# vtk DataFile Version 4.2
vtk output
ASCII
DATASET POLYDATA
POINTS 1096 float
1.23657 -30.3623 2.96752 1.27451 -30.1164 2.65908 1.61217 -30.5 2.73206 
0.627832 -30.381 3.00774 0.780386 -30.0291 2.73756 0.134482 -30.4528 2.92353 
0.282596 -30.1408 2.76919 -0.0264954 -30.3053 2.61141 1.48362 -30.7411 2.92836 
1.6314 -30.8914 2.61411 0.983469 -30.8065 3.00346 0.351425 -30.8354 2.9627 
-0.0567169 -30.7281 2.66427 1.24751 -31.0804 2.67638 0.622348 -31.1571 2.69074 
0.131882 -31.1002 2.62399 0.780368 -27.4148 2.28179 0.858371 -27.0186 2.07486 
1.01153 -27.3252 2.08631 0.596182 -27.2285 2.1314 0.80723 -27.8968 2.31627 
1.0463 -27.9042 2.08993 0.495566 -27.7449 2.18226 0.813959 -28.5141 2.30877 
1.03423 -28.5284 2.08342 0.486649 -28.3669 2.17521 0.802872 -29.1201 2.28702 
1.02077 -29.1313 2.06613 0.484378 -28.9753 2.14311 0.858472 -29.7226 2.36324 
1.04507 -29.6161 2.00762 0.433923 -29.5224 2.1387 1.50136 -30.3981 2.42137 
1.18418 -30.0964 2.1508 0.265759 -29.9604 2.34993 -0.101541 -30.2895 2.09814 
1.43776 -30.5596 1.95155 1.64122 -30.9046 2.14261 -0.110568 -30.9374 2.07286 
1.35648 -31.2116 2.21969 0.788718 -31.3298 2.23051 0.221484 -31.3031 2.19211 
2.06608 -21.892 1.58519 2.09152 -21.7799 1.37818 2.15266 -21.932 1.4109 
1.79536 -21.8805 1.38434 2.04579 -21.9947 1.49294 0.602435 -26.7762 1.83222 
0.781787 -26.3419 1.4513 1.01353 -26.7088 1.57745 0.162158 -26.8394 1.71564 
0.354932 -26.4171 1.54655 -0.0325012 -26.5847 1.38923 1.12318 -27.256 1.54236 
0.227866 -27.3726 1.86886 -0.0769135 -27.1522 1.46475 1.11324 -27.8815 1.54189 
0.165115 -28.0861 1.86243 -0.0642883 -27.7679 1.46213 1.09319 -28.4993 1.54172 
0.168127 -28.7041 1.83512 -0.0608734 -28.3786 1.44021 1.07041 -29.1054 1.526 
0.157397 -29.2927 1.81278 -0.0525604 -28.9766 1.42337 1.06373 -29.6943 1.53215 
0.0944275 -29.7719 1.92064 -0.0802917 -29.6675 1.50126 1.15483 -30.2175 1.51953 
-0.158313 -30.3414 1.50892 1.39307 -30.6229 1.36122 1.63412 -30.9072 1.6287 
-0.169144 -30.8426 1.42992 1.34647 -31.4919 1.8199 1.6313 -31.3703 1.43997 
0.916278 -31.5361 1.92567 0.374927 -31.6446 1.79711 -0.0564056 -31.3357 1.55583 
1.31776 -31.8074 1.53551 1.10775 -32.2405 1.48046 0.825595 -32.0443 1.71883 
0.403885 -32.1076 1.53713 0.132266 -31.8038 1.31803 0.828049 -32.608 1.65947 
0.967108 -32.7154 1.34621 0.58602 -32.5641 1.48829 0.735773 -32.8795 1.41172 
1.35193 -21.3986 1.14551 1.32514 -21.0329 0.717137 1.68337 -21.3169 0.76431 
0.820468 -21.3674 1.09735 0.846588 -21.0382 0.855515 0.504446 -21.2232 0.83286 
-1.07594 -21.2707 0.990239 -0.903799 -21.1314 0.771977 -0.84072 -21.3821 0.817758 
-1.19216 -21.2208 0.789441 1.91713 -21.6325 0.988774 2.14116 -21.8504 1.08444 
1.26184 -21.9936 1.3099 0.879163 -21.8672 1.17617 0.502176 -21.6909 0.929462 
-1.13285 -21.3825 0.796193 1.96613 -22.1133 1.14684 1.40388 -22.4829 1.21498 
1.72983 -22.4721 0.806131 0.869376 -22.5058 1.16898 0.490091 -22.3282 0.935706 
1.31046 -23.0945 1.10344 1.60481 -23.1448 0.713832 0.866373 -23.1231 1.15325 
0.468182 -22.9605 0.93322 1.30769 -23.4906 1.00748 1.15782 -23.9407 0.963002 
0.894269 -23.6982 1.11361 0.464786 -23.561 0.940814 0.841397 -24.1948 1.04583 
0.994574 -24.3826 0.895413 0.512997 -24.1267 0.933083 0.682736 -24.4901 0.892136 
0.580499 -26.062 1.18622 0.780615 -25.7751 0.812704 0.993137 -26.1253 0.929759 
0.158899 -26.1838 1.24481 0.351984 -25.828 0.921062 -0.055957 -26.0822 0.867526 
1.10688 -26.6493 0.891335 -0.164163 -26.7137 0.933975 1.0907 -27.2461 0.883708 
-0.151392 -27.3234 0.93484 1.07927 -27.8687 0.887791 -0.13819 -27.9229 0.919885 
1.07764 -28.4958 0.902225 -0.13147 -28.5125 0.908936 1.05611 -29.1193 0.902083 
-0.125162 -29.1086 0.903017 1.04366 -29.7292 0.904665 -0.130334 -29.7208 0.907956 
1.13723 -30.2509 0.895038 -0.151154 -30.3294 0.907938 1.3847 -30.6293 0.751007 
1.63276 -31.0082 1.07462 -0.156546 -30.9239 0.919405 1.66989 -31.5415 0.764168 
-0.0720795 -31.4536 0.90802 1.44823 -31.8752 1.14092 1.2114 -32.3709 0.910748 
0.357971 -32.2494 1.08773 0.145313 -31.8486 0.742268 0.996149 -32.787 0.834077 
0.556842 -32.7077 0.950116 0.784323 -32.9265 0.929416 1.28192 -21.0703 0.314978 
1.61404 -21.3075 0.341373 0.823883 -20.9976 0.408105 0.0371613 -21.3773 0.626985 
0.217639 -21.0716 0.413223 -0.491949 -21.2649 0.670335 -0.526959 -21.0909 0.37478 
-1.06614 -21.1069 0.459485 -1.19452 -21.2985 0.472169 1.99732 -21.9657 0.777681 
1.81935 -21.8263 0.472073 0.0922577 -22.045 0.709035 -0.477979 -21.7941 0.563841 
-0.898334 -21.5536 0.348422 -0.759613 -21.9431 0.26033 1.74028 -22.493 0.282925 
0.0960205 -22.6805 0.709062 -0.350116 -22.4936 0.535579 -0.683047 -22.3404 0.228804 
1.71871 -23.0208 0.193144 0.154752 -23.2226 0.726434 -0.244043 -23.1587 0.515469 
-0.65593 -22.9904 0.16772 1.46337 -23.6796 0.765157 1.65464 -23.6385 0.333398 
0.10025 -23.7952 0.630817 -0.226154 -23.7603 0.287563 -0.495593 -23.4466 0.217795 
1.35059 -24.2559 0.655934 1.63614 -24.3139 0.248318 0.270987 -24.5037 0.62065 
-0.0414001 -24.2252 0.323955 1.32333 -24.8633 0.499443 1.60734 -24.9357 0.123372 
0.745413 -24.8415 0.6892 0.16441 -25.0355 0.515794 -0.046756 -24.7672 0.226154 
1.32047 -25.2601 0.370189 1.1461 -25.6857 0.408916 0.832379 -25.3965 0.622293 
0.244583 -25.4729 0.66275 -0.0810608 -25.4515 0.298988 1.16425 -26.2466 0.244492 
-0.153195 -26.123 0.319089 1.08076 -26.761 0.345598 -0.143344 -26.73 0.322348 
1.06691 -27.2842 0.27231 -0.127835 -27.3281 0.314452 1.139 -27.9575 0.285846 
-0.124301 -27.9249 0.31133 1.15797 -28.6541 0.376263 -0.121152 -28.5185 0.307892 
1.13996 -29.281 0.369246 -0.116528 -29.1097 0.302879 1.13384 -29.8816 0.378868 
-0.123706 -29.7063 0.302476 1.20985 -30.3197 0.42952 -0.134857 -30.3279 0.313998 
1.42636 -30.5234 0.25323 1.64485 -30.9395 0.380296 -0.0608643 -30.9882 0.32699 
1.72771 -31.4274 0.212769 0.0237305 -31.5156 0.446448 1.48021 -32.0305 0.682159 
1.58713 -31.9186 0.243741 0.395892 -32.1679 0.355952 0.220413 -31.7152 0.243567 
1.26608 -32.3069 0.228429 0.99809 -32.6505 0.332057 0.603717 -32.6978 0.333939 
0.827106 -32.8797 0.445367 1.42936 -21.3435 -0.00103912 0.978369 -21.2416 -0.00549774 
0.345401 -21.2367 -0.00415649 -0.41727 -21.3526 -0.0199631 -0.939313 -21.2201 0.19433 
1.28476 -21.5601 -0.462048 1.67096 -21.8351 -0.126118 0.623346 -21.4699 -0.394258 
0.0506287 -21.4708 -0.33517 -0.317459 -21.6373 -0.407826 -0.668573 -21.9591 -0.160185 
1.7326 -22.497 -0.304404 -0.706741 -22.686 -0.319528 1.72096 -23.1033 -0.303987 
-0.772952 -23.135 -0.28894 1.70579 -23.7122 -0.266126 -0.418799 -23.8149 -0.0334396 
-0.658237 -23.5261 -0.260651 1.70507 -24.3114 -0.266597 -0.203925 -24.281 -0.124077 
-0.431625 -23.9966 -0.49969 1.70538 -24.8231 -0.363936 -0.128549 -24.9106 -0.289403 
1.4602 -25.4437 0.126265 1.63436 -25.4333 -0.286423 -0.12648 -25.5166 -0.299904 
1.40259 -25.8871 -0.045639 1.57972 -26.1298 -0.51243 -0.12323 -26.1107 -0.296883 
1.34265 -26.3477 -0.242468 1.18055 -26.7944 -0.184712 -0.112317 -26.7049 -0.299332 
1.19672 -27.4125 -0.168883 -0.109332 -27.3041 -0.300096 1.33686 -27.8596 -0.104947 
1.42962 -27.5667 -0.403912 1.57343 -27.9565 -0.376382 -0.109433 -27.9037 -0.299121 
1.38256 -28.3406 0.00104828 1.62372 -28.5097 -0.361038 -0.109048 -28.5 -0.300059 
1.38976 -28.9454 0.00396423 1.61786 -29.1142 -0.377504 -0.115201 -29.093 -0.303259 
1.37135 -29.5583 -0.0140671 1.60538 -29.717 -0.383977 -0.129318 -29.6966 -0.295216 
1.37079 -30.1231 0.0332748 1.62766 -30.3563 -0.25757 -0.0520843 -30.3417 -0.25882 
1.73204 -30.9352 -0.271875 0.133511 -30.8654 -0.0933334 0.331796 -31.035 -0.30395 
0.196939 -30.6317 -0.489523 1.67211 -31.5239 -0.340508 0.181769 -31.3096 0.0499466 
0.401944 -31.5489 -0.285246 1.47723 -31.957 -0.227431 1.40204 -32.1497 -0.00361633 
1.17077 -32.1952 -0.420213 0.538275 -32.2033 -0.318443 0.830777 -32.4231 -0.318297 
0.730179 -32.6696 0.0154358 1.34905 -21.6354 -1.08609 1.6462 -21.9561 -0.759032 
0.798816 -21.5605 -0.90596 0.125381 -21.6443 -0.734816 -0.351581 -21.8785 -0.599565 
-0.133878 -21.9727 -0.985909 1.72732 -22.4889 -0.913174 -0.464593 -22.2954 -0.649393 
-0.241635 -22.5321 -1.12083 1.70251 -23.0928 -0.916397 -0.499475 -22.7787 -0.81162 
-0.646957 -23.2469 -0.745207 1.69188 -23.7089 -0.865489 -0.584702 -23.7324 -0.778253 
1.7716 -24.3672 -0.8548 -0.190475 -24.3362 -0.844862 -0.378003 -23.9492 -0.982086 
1.7749 -25.0788 -0.8916 -0.107327 -24.9195 -0.904834 1.69509 -25.6291 -0.796756 
-0.107785 -25.5053 -0.903497 1.68505 -26.0234 -1.00398 -0.108087 -26.0999 -0.900664 
1.42378 -26.6535 -0.525005 1.61563 -26.6389 -0.91637 -0.107236 -26.6986 -0.900952 
1.39491 -27.1104 -0.560944 1.62879 -27.349 -0.861996 -0.109735 -27.2969 -0.901442 
1.70896 -27.9306 -0.875935 -0.114267 -27.8913 -0.902884 1.71541 -28.5229 -0.876668 
-0.121829 -28.4814 -0.908235 1.71005 -29.1243 -0.887411 -0.141916 -29.0747 -0.915248 
1.71227 -29.7201 -0.892506 -0.138098 -29.6827 -0.892827 1.73666 -30.3171 -0.885168 
0.00457764 -30.1951 -0.852612 1.74745 -30.9176 -0.902898 0.410339 -30.9064 -0.841081 
0.231848 -30.4744 -0.933701 1.59367 -31.3866 -1.02144 0.545792 -31.5818 -0.946358 
1.41109 -31.8229 -0.705757 1.07752 -32.0464 -0.921474 0.617688 -32.1415 -0.808195 
0.828891 -32.2518 -0.812988 1.33857 -21.6229 -1.68383 1.65336 -21.943 -1.36393 
0.915399 -21.5479 -1.41573 0.337289 -21.6815 -1.37514 -0.0137054 -22.0872 -1.54153 
1.71952 -22.4656 -1.52045 -0.124988 -22.5006 -1.51557 1.68741 -23.0856 -1.51469 
-0.392331 -23.0732 -1.11566 -0.196399 -23.0228 -1.51615 1.75194 -23.7324 -1.4401 
-0.418488 -23.5432 -1.16759 -0.186603 -23.7445 -1.48915 1.95488 -24.2546 -1.25208 
2.00304 -24.0515 -1.64979 2.168 -24.4422 -1.4656 -0.103107 -24.3124 -1.50981 
2.0046 -24.7059 -1.21557 2.19617 -24.8153 -1.67778 -0.0982086 -24.9001 -1.50663 
1.96355 -25.1019 -1.44161 1.769 -25.5218 -1.41687 -0.106073 -25.501 -1.49834 
1.68584 -26.0986 -1.51665 -0.108966 -26.1007 -1.49759 1.68275 -26.709 -1.49747 
-0.115402 -26.696 -1.50092 1.70353 -27.3109 -1.48539 -0.127332 -27.2862 -1.50644 
1.71036 -27.9027 -1.48086 -0.132065 -27.8789 -1.51219 1.7142 -28.5036 -1.47632 
[...]
CELL_DATA 2188
SCALARS scalars float
LOOKUP_TABLE default
14 14 14 14 14 14 14 14 14 
14 14 14 14 14 14 14 14 14 
14 14 14 14 14 14 14 14 14 
14 14 14 14 14 14 14 14 14 
14 14 14 14 14 14 14 14 14 
14 14 14 14 14 14 14 14 14 
14 14 14 14 14 14 14 14 14 
14 14 14 14 14 14 14 14 14 
14 14 14 14 14 14 14 14 14 
14 14 14 14 14 14 14 14 14 
14 14 14 14 14 14 14 14 14 
14 14 14 14 14 14 14 14 14 
14 14 14 14 14 14 14 14 14 
14 14 14 14 14 14 14 14 14 
14 14 14 14 14 14 14 14 14 
14 14 14 14 14 14 14 14 14 
14 14 14 14 14 14 14 14 14 
14 14 14 14 14 14 14 14 14 
14 14 14 14 14 14 14 14 14 
14 14 14 14 14 14 14 14 14 
14 14 14 14 14 14 14 14 14 
14 14 14 14 14 14 14 14 14 
14 14 14 14 14 14 14 14 14 
14 14 14 14 14 14 14 14 14 
14 14 14 14 14 14 14 14 14 
14 14 14 14 14 14 14 14 14 
14 14 14 14 14 14 14 14 14 
14 14 14 14 14 14 14 14 14 
14 14 14 14 14 14 14 14 14 
14 14 14 14 14 14 14 14 14 
14 14 14 14 14 14 14 14 14 
14 14 14 14 14 14 14 14 14 
14 14 14 14 14 14 14 14 14 
14 14 14 14 14 14 14 14 14 
14 14 14 14 14 14 14 14 14 
14 14 14 14 14 14 14 14 14 
14 14 14 14 14 14 14 14 14 
14 14 14 14 14 14 14 14 14 
14 14 14 14 14 14 14 14 14 
14 14 14 14 14 14 14 14 14 
14 14 14 14 14 14 14 14 14 
14 14 14 14 14 14 14 14 14 
14 14 14 14 14 14 14 14 14 
14 14 14 14 14 14 14 14 14 
14 14 14 14 14 14 14 14 14 
14 14 14 14 14 14 14 14 14 
14 14 14 14 14 14 14 14 14 
14 14 14 14 14 14 14 14 14 
14 14 14 14 14 14 14 14 14 
14 14 14 14 14 14 14 14 14 
14 14 14 14 14 14 14 14 14 
14 14 14 14 14 14 14 14 14 
14 14 14 14 14 14 14 14 14 
14 14 14 14 14 14 14 14 14 
14 14 14 14 14 14 14 14 14 
14 14 14 14 14 14 14 14 14 
14 14 14 14 14 14 14 14 14 
14 14 14 14 14 14 14 14 14 
14 14 14 14 14 14 14 14 14 
14 14 14 14 14 14 14 14 14 
14 14 14 14 14 14 14 14 14 
14 14 14 14 14 14 14 14 14 
14 14 14 14 14 14 14 14 14 
14 14 14 14 14 14 14 14 14 
14 14 14 14 14 14 14 14 14 
14 14 14 14 14 14 14 14 14 
14 14 14 14 14 14 14 14 14 
14 14 14 14 14 14 14 14 14 
14 14 14 14 14 14 14 14 14 
14 14 14 14 14 14 14 14 14 
14 14 14 14 14 14 14 14 14 
14 14 14 14 14 14 14 14 14 
14 14 14 14 14 14 14 14 14 
14 14 14 14 14 14 14 14 14 
14 14 14 14 14 14 14 14 14 
14 14 14 14 14 14 14 14 14 
14 14 14 14 14 14 14 14 14 
14 14 14 14 14 14 14 14 14 
14 14 14 14 14 14 14 14 14 
14 14 14 14 14 14 14 14 14 
14 14 14 14 14 14 14 14 14 
14 14 14 14 14 14 14 14 14 
14 14 14 14 14 14 14 14 14 
14 14 14 14 14 14 14 14 14 
14 14 14 14 14 14 14 14 14 
14 14 14 14 14 14 14 14 14 
14 14 14 14 14 14 14 14 14 
14 14 14 14 14 14 14 14 14 
14 14 14 14 14 14 14 14 14 
14 14 14 14 14 14 14 14 14 
14 14 14 14 14 14 14 14 14 
14 14 14 14 14 14 14 14 14 
14 14 14 14 14 14 14 14 14 
14 14 14 14 14 14 14 14 14 
14 14 14 14 14 14 14 14 14 
14 14 14 14 14 14 14 14 14 
14 14 14 14 14 14 14 14 14 
14 14 14 14 14 14 14 14 14 
14 14 14 14 14 14 14 14 14 
14 14 14 14 14 14 14 14 14 
14 14 14 14 14 14 14 14 14 
14 14 14 14 14 14 14 14 14 
14 14 14 14 14 14 14 14 14 
14 14 14 14 14 14 14 14 14 
14 14 14 14 14 14 14 14 14 
14 14 14 14 14 14 14 14 14 
14 14 14 14 14 14 14 14 14 
14 14 14 14 14 14 14 14 14 
14 14 14 14 14 14 14 14 14 
14 14 14 14 14 14 14 14 14 
14 14 14 14 14 14 14 14 14 
14 14 14 14 14 14 14 14 14 
14 14 14 14 14 14 14 14 14 
14 14 14 14 14 14 14 14 14 
14 14 14 14 14 14 14 14 14 
14 14 14 14 14 14 14 14 14 
14 14 14 14 14 14 14 14 14 
14 14 14 14 14 14 14 14 14 
14 14 14 14 14 14 14 14 14 
14 14 14 14 14 14 14 14 14 
14 14 14 14 14 14 14 14 14 
14 14 14 14 14 14 14 14 14 
14 14 14 14 14 14 14 14 14 
14 14 14 14 14 14 14 14 14 
14 14 14 14 14 14 14 14 14 
14 14 14 14 14 14 14 14 14 
14 14 14 14 14 14 14 14 14 
14 14 14 14 14 14 14 14 14 
14 14 14 14 14 14 14 14 14 
14 14 14 14 14 14 14 14 14 
14 14 14 14 14 14 14 14 14 
14 14 14 14 14 14 14 14 14 
14 14 14 14 14 14 14 14 14 
14 14 14 14 14 14 14 14 14 
14 14 14 14 14 14 14 14 14 
14 14 14 14 14 14 14 14 14 
14 14 14 14 14 14 14 14 14 
14 14 14 14 14 14 14 14 14 
14 14 14 14 14 14 14 14 14 
14 14 14 14 14 14 14 14 14 
14 14 14 14 14 14 14 14 14 
14 14 14 14 14 14 14 14 14 
14 14 14 14 14 14 14 14 14 
14 14 14 14 14 14 14 14 14 
14 14 14 14 14 14 14 14 14 
14 14 14 14 14 14 14 14 14 
14 14 14 14 14 14 14 14 14 
14 14 14 14 14 14 14 14 14 
14 14 14 14 14 14 14 14 14 
14 14 14 14 14 14 14 14 14 
14 14 14 14 14 14 14 14 14 
14 14 14 14 14 14 14 14 14 
14 14 14 14 14 14 14 14 14 
14 14 14 14 14 14 14 14 14 
14 14 14 14 14 14 14 14 14 
14 14 14 14 14 14 14 14 14 
14 14 14 14 14 14 14 14 14 
14 14 14 14 14 14 14 14 14 
14 14 14 14 14 14 14 14 14 
14 14 14 14 14 14 14 14 14 
14 14 14 14 14 14 14 14 14 
14 14 14 14 14 14 14 14 14 
14 14 14 14 14 14 14 14 14 
14 14 14 14 14 14 14 14 14 
14 14 14 14 14 14 14 14 14 
14 14 14 14 14 14 14 14 14 
14 14 14 14 14 14 14 14 14 
14 14 14 14 14 14 14 14 14 
14 14 14 14 14 14 14 14 14 
14 14 14 14 14 14 14 14 14 
14 14 14 14 14 14 14 14 14 
14 14 14 14 14 14 14 14 14 
14 14 14 14 14 14 14 14 14 
14 14 14 14 14 14 14 14 14 
14 14 14 14 14 14 14 14 14 
14 14 14 14 14 14 14 14 14 
14 14 14 14 14 14 14 14 14 
14 14 14 14 14 14 14 14 14 
14 14 14 14 14 14 14 14 14 
14 14 14 14 14 14 14 14 14 
14 14 14 14 14 14 14 14 14 
14 14 14 14 14 14 14 14 14 
14 14 14 14 14 14 14 14 14 
14 14 14 14 14 14 14 14 14 
14 14 14 14 14 14 14 14 14 
14 14 14 14 14 14 14 14 14 
14 14 14 14 14 14 14 14 14 
14 14 14 14 14 14 14 14 14 
14 14 14 14 14 14 14 14 14 
14 14 14 14 14 14 14 14 14 
14 14 14 14 14 14 14 14 14 
14 14 14 14 14 14 14 14 14 
14 14 14 14 14 14 14 14 14 
14 14 14 14 14 14 14 14 14 
14 14 14 14 14 14 14 14 14 
14 14 14 14 14 14 14 14 14 
14 14 14 14 14 14 14 14 14 
14 14 14 14 14 14 14 14 14 
14 14 14 14 14 14 14 14 14 
14 14 14 14 14 14 14 14 14 
14 14 14 14 14 14 14 14 14 
14 14 14 14 14 14 14 14 14 
14 14 14 14 14 14 14 14 14 
14 14 14 14 14 14 14 14 14 
14 14 14 14 14 14 14 14 14 
14 14 14 14 14 14 14 14 14 
14 14 14 14 14 14 14 14 14 
14 14 14 14 14 14 14 14 14 
14 14 14 14 14 14 14 14 14 
14 14 14 14 14 14 14 14 14 
14 14 14 14 14 14 14 14 14 
14 14 14 14 14 14 14 14 14 
14 14 14 14 14 14 14 14 14 
14 14 14 14 14 14 14 14 14 
14 14 14 14 14 14 14 14 14 
14 14 14 14 14 14 14 14 14 
14 14 14 14 14 14 14 14 14 
14 14 14 14 14 14 14 14 14 
14 14 14 14 14 14 14 14 14 
14 14 14 14 14 14 14 14 14 
14 14 14 14 14 14 14 14 14 
14 14 14 14 14 14 14 14 14 
14 14 14 14 14 14 14 14 14 
14 14 14 14 14 14 14 14 14 
14 14 14 14 14 14 14 14 14 
14 14 14 14 14 14 14 14 14 
14 14 14 14 14 14 14 14 14 
14 14 14 14 14 14 14 14 14 
14 14 14 14 14 14 14 14 14 
14 14 14 14 14 14 14 14 14 
14 14 14 14 14 14 14 14 14 
14 14 14 14 14 14 14 14 14 
14 14 14 14 14 14 14 14 14 
14 14 14 14 14 14 14 14 14 
14 14 14 14 14 14 14 14 14 
14 14 14 14 14 14 14 14 14 
14 14 14 14 14 14 14 14 14 
14 14 14 14 14 14 14 14 14 
14 14 14 14 14 14 14 14 14 
14 14 14 14 14 14 14 14 14 
14 14 14 14 14 14 14 14 14 
14 14 14 14 14 14 14 14 14 
14 14 14 14 14 14 14 14 14 
14 
