# vtk DataFile Version 4.2
vtk output
ASCII
DATASET POLYDATA
POINTS 1096 float
-2.05485 -9.63741 18.9123 -2.11812 -9.22754 18.3982 -2.68102 -9.86675 18.52 
-1.04028 -9.6688 18.9791 -1.2945 -9.08231 18.5288 -0.218097 -9.78866 18.8385 
-0.464885 -9.26856 18.5813 0.0501269 -9.54291 18.3182 -2.46679 -10.2687 18.8471 
-2.71328 -10.5191 18.3235 -1.63319 -10.3778 18.9721 -0.579819 -10.4263 18.9039 
0.100335 -10.2476 18.4063 -2.07352 -10.8341 18.4271 -1.03162 -10.9622 18.4507 
-0.214176 -10.8678 18.3393 -1.29353 -4.725 17.7692 -1.42345 -4.06474 17.4244 
-1.67884 -4.57558 17.4435 -0.986537 -4.41458 17.5185 -1.33849 -5.52835 17.8267 
-1.73705 -5.54056 17.4496 -0.819046 -5.27531 17.6032 -1.34998 -6.55716 17.8142 
-1.7172 -6.58097 17.4387 -0.804458 -6.31203 17.5915 -1.33178 -7.56728 17.778 
-1.69504 -7.5858 17.4099 -0.800953 -7.32606 17.538 -1.42467 -8.57143 17.905 
-1.73579 -8.39387 17.3124 -0.717102 -8.23794 17.5306 -2.49643 -9.69693 18.0022 
-1.96777 -9.19428 17.5511 -0.436928 -8.96802 17.8826 0.174986 -9.5166 17.4627 
-2.3907 -9.96618 17.2191 -2.72987 -10.5411 17.5376 0.189738 -10.5965 17.4206 
-2.2554 -11.0529 17.666 -1.30917 -11.25 17.6838 -0.363791 -11.2058 17.6195 
-3.43428 4.48016 16.6088 -3.47672 4.66701 16.2638 -3.57867 4.41343 16.3183 
-2.98316 4.49915 16.2739 -3.40055 4.30897 16.455 -0.996892 -3.66086 17.0199 
-1.29579 -2.93688 16.3851 -1.68214 -3.54838 16.5954 -0.263175 -3.76636 16.8254 
-0.584354 -3.06244 16.5436 0.0612261 -3.34197 16.2813 -1.86513 -4.4602 16.537 
-0.372853 -4.65504 17.0808 0.135032 -4.28779 16.4071 -1.84885 -5.50277 16.5362 
-0.268583 -5.84421 17.07 0.11372 -5.3139 16.4028 -1.81569 -6.53238 16.5359 
-0.273885 -6.87423 17.0245 0.107753 -6.33185 16.3662 -1.77799 -7.54267 16.5097 
-0.256268 -7.85524 16.9873 0.09363 -7.32848 16.3382 -1.76712 -8.52411 16.5199 
-0.15148 -8.65387 17.167 0.139582 -8.47997 16.468 -1.91918 -9.39607 16.499 
0.269326 -9.6032 16.4807 -2.3165 -10.0716 16.2352 -2.71826 -10.5454 16.6811 
0.287125 -10.4384 16.349 -2.239 -11.5199 16.9997 -2.71383 -11.3172 16.3666 
-1.522 -11.5939 17.1757 -0.619849 -11.7749 16.9612 0.0990677 -11.2603 16.5589 
-2.19143 -12.0458 16.5257 -1.84162 -12.7678 16.4338 -1.37117 -12.4409 16.831 
-0.668428 -12.5466 16.528 -0.215693 -12.0403 16.1627 -1.37553 -13.3805 16.732 
-1.60748 -13.5594 16.21 -0.972207 -13.3073 16.4466 -1.22197 -13.8329 16.3191 
-2.24401 5.30221 15.8757 -2.19939 5.91157 15.1617 -2.79653 5.43849 15.2405 
-1.35824 5.354 15.7952 -1.40174 5.90257 15.3921 -0.831591 5.59406 15.3542 
1.80243 5.5142 15.6158 1.5155 5.74656 15.2521 1.41028 5.32871 15.3285 
1.99607 5.59738 15.2811 -3.18618 4.91254 15.6147 -3.55961 4.54945 15.7742 
-2.09405 4.31052 16.1496 -1.45625 4.52093 15.9266 -0.827969 4.81456 15.5152 
1.89714 5.32799 15.2924 -3.26798 4.11128 15.8781 -2.33103 3.49505 15.9915 
-2.87445 3.51307 15.3102 -1.44022 3.45654 15.9146 -0.808102 3.75243 15.5256 
-2.17564 2.47558 15.8055 -2.66642 2.39192 15.1563 -1.43549 2.42785 15.8884 
-0.771865 2.69857 15.5215 -2.17125 1.81547 15.6456 -1.92168 1.06522 15.5714 
-1.48225 1.46925 15.8223 -0.766462 1.69783 15.5341 -1.39438 0.641538 15.7093 
-1.64982 0.328662 15.4587 -0.847065 0.755027 15.5213 -1.13014 0.149365 15.4531 
-0.960302 -2.47051 15.9432 -1.29387 -1.99219 15.3207 -1.64817 -2.57576 15.5159 
-0.257662 -2.67377 16.0407 -0.579456 -2.08065 15.5012 0.100311 -2.50453 15.4118 
-1.83799 -3.44905 15.4519 0.280408 -3.55702 15.5225 -1.81129 -4.44376 15.4392 
0.258856 -4.57323 15.5239 -1.7925 -5.48138 15.446 0.236585 -5.57228 15.499 
-1.79005 -6.5267 15.4701 0.225124 -6.55501 15.4807 -1.75444 -7.56584 15.4698 
0.214348 -7.54856 15.4709 -1.73397 -8.58224 15.4741 0.222704 -8.56888 15.4791 
-1.89014 -9.45175 15.4581 0.257137 -9.58316 15.4791 -2.30282 -10.0823 15.2182 
-2.71628 -10.7137 15.7577 0.26587 -10.574 15.4982 -2.77853 -11.6025 15.2402 
0.124857 -11.4569 15.4792 -2.40907 -12.1588 15.8681 -2.01467 -12.9851 15.4843 
-0.592163 -12.7829 15.7789 -0.237708 -12.1151 15.2031 -1.65614 -13.6787 15.3565 
-0.923874 -13.5467 15.5497 -1.30311 -13.9112 15.5153 -2.12754 5.84932 14.4914 
-2.68116 5.45415 14.5356 -1.36407 5.97022 14.6464 -0.0529396 5.33709 15.0109 
-0.353696 5.84669 14.6547 0.828979 5.52422 15.0829 0.887276 5.8141 14.5903 
1.78594 5.78721 14.7312 1.99982 5.46783 14.7523 -3.32007 4.35733 15.2629 
-3.02352 4.58947 14.7535 -0.145022 4.22433 15.1477 0.805417 4.64225 14.9054 
1.50602 5.04292 14.5462 1.27461 4.39368 14.3995 -2.8921 3.47831 14.4382 
-0.151571 3.16516 15.1477 0.591996 3.47645 14.8584 1.14681 3.73169 14.3469 
-2.85643 2.59872 14.2886 -0.249685 2.2617 15.1767 0.414909 2.36789 14.8249 
1.10131 2.64835 14.2451 -2.4309 1.50048 15.2418 -2.74985 1.56907 14.5223 
-0.159141 1.30734 15.0173 0.384731 1.36525 14.4451 0.833904 1.88807 14.3287 
-2.24322 0.539938 15.0597 -2.71935 0.443528 14.3805 -0.444015 0.126473 15.0004 
0.076622 0.590578 14.5058 -2.19813 -0.472319 14.7989 -2.67168 -0.592839 14.1722 
-1.23484 -0.43624 15.1149 -0.266665 -0.759873 14.8256 0.0852694 -0.312753 14.3428 
-2.1936 -1.13366 14.5835 -1.90315 -1.84303 14.6479 -1.38006 -1.36127 15.0034 
-0.400413 -1.48887 15.0706 0.142177 -1.45334 14.4642 -1.93371 -2.778 14.3739 
0.262117 -2.57242 14.4976 -1.79474 -3.63533 14.5424 0.245436 -3.58413 14.5031 
-1.77192 -4.50726 14.4202 0.219323 -4.58104 14.4899 -1.89235 -5.62949 14.4428 
0.213171 -5.5757 14.4847 -1.92423 -6.7904 14.5935 0.207662 -6.56494 14.479 
-1.8945 -7.8352 14.5818 0.199696 -7.55026 14.4706 -1.88456 -8.83626 14.5978 
0.211399 -8.54467 14.47 -2.01141 -9.56634 14.6823 0.229718 -9.58057 14.4892 
-2.37243 -9.90575 14.3886 -2.73669 -10.5992 14.6004 0.106114 -10.6812 14.5109 
-2.87509 -11.4123 14.3213 -0.0350547 -11.5601 14.71 -2.46264 -12.4176 15.1035 
-2.64099 -12.2311 14.3728 -0.655648 -12.6472 14.5593 -0.363035 -11.8926 14.3719 
-2.10608 -12.8784 14.3472 -1.65953 -13.4512 14.5198 -1.00226 -13.5302 14.5227 
-1.37461 -13.8332 14.7085 -2.37353 5.39398 13.9648 -1.62184 5.56359 13.9572 
-0.566886 5.5716 13.9591 0.704174 5.37806 13.9324 1.5744 5.59872 14.2894 
-2.13282 5.03304 13.1964 -2.77646 4.57475 13.7564 -1.0304 5.18298 13.3091 
-0.0758456 5.18127 13.4073 0.53753 4.90361 13.2861 1.12269 4.36717 13.6986 
-2.87957 3.47165 13.4593 1.18591 3.15557 13.433 -2.86043 2.46121 13.46 
1.29608 2.4072 13.484 -2.83539 1.4463 13.5231 0.705643 1.2742 13.91 
1.10473 1.75549 13.5312 -2.83445 0.44767 13.5223 0.347276 0.497413 13.759 
0.726738 0.97142 13.1329 -2.83525 -0.405143 13.3601 0.221304 -0.551893 13.4835 
-2.42666 -1.43968 14.177 -2.7171 -1.42214 13.4892 0.217587 -1.56173 13.466 
-2.33091 -2.17859 13.8904 -2.62644 -2.5831 13.1125 0.211912 -2.55193 13.471 
-2.2313 -2.94637 13.5624 -1.9613 -3.69098 13.6586 0.193463 -3.54233 13.467 
-1.98852 -4.72107 13.685 0.188228 -4.54092 13.4657 -2.22225 -5.46616 13.7916 
-2.37686 -4.97798 13.2933 -2.61669 -5.62753 13.3393 0.188134 -5.54036 13.4673 
-2.29857 -6.2679 13.9683 -2.70075 -6.54948 13.3649 0.187233 -6.53412 13.4658 
-2.31084 -7.27579 13.9731 -2.69126 -7.5571 13.3374 0.197227 -7.52241 13.4604 
-2.28043 -8.29728 13.9431 -2.67072 -8.56176 13.3266 0.220496 -8.52852 13.4738 
-2.27973 -9.23869 14.022 -2.70807 -9.62723 13.5373 0.0915077 -9.60364 13.5345 
-2.88231 -10.5919 13.5135 -0.217975 -10.4764 13.8104 -0.548615 -10.7589 13.4595 
-0.323758 -10.0868 13.1501 -2.7827 -11.5732 13.3991 -0.298535 -11.2167 14.0492 
-0.665744 -11.6153 13.4907 -2.45804 -12.2951 13.5875 -2.33272 -12.6163 13.9605 
-1.94746 -12.6923 13.2661 -0.893263 -12.706 13.4354 -1.38086 -13.0722 13.4358 
-1.21316 -13.4832 13.9919 -2.24028 4.90755 12.1563 -2.73552 4.37319 12.7016 
-1.32311 5.03202 12.4563 -0.200684 4.89219 12.7413 0.59421 4.50156 12.9665 
0.231162 4.34468 12.3227 -2.87103 3.48512 12.4447 0.782361 3.80677 12.8834 
0.410455 3.41231 12.0977 -2.82994 2.47864 12.4393 0.840216 3.00123 12.613 
1.08584 2.22081 12.7236 -2.81247 1.45185 12.5242 0.981859 1.41168 12.6686 
-2.94563 0.354735 12.542 0.324523 0.4055 12.5577 0.637177 1.05041 12.3289 
-2.95145 -0.83139 12.4807 0.185662 -0.566624 12.4578 -2.81864 -1.74846 12.6387 
0.18617 -1.5429 12.46 -2.80215 -2.40577 12.2933 0.186416 -2.53389 12.4647 
-2.36678 -3.456 13.0915 -2.68668 -3.43158 12.4393 0.184735 -3.53184 12.4643 
-2.31887 -4.21748 13.0316 -2.7089 -4.61504 12.5299 0.18864 -4.52891 12.4634 
-2.84279 -5.5844 12.5068 0.195933 -5.51967 12.461 -2.8538 -6.57152 12.5055 
0.208277 -6.50311 12.4521 -2.84513 -7.57385 12.4876 0.241493 -7.49202 12.4404 
-2.84908 -8.5668 12.4791 0.234875 -8.50531 12.4778 -2.89 -9.56181 12.4914 
-0.00312398 -9.35928 12.5449 -2.90825 -10.5627 12.4618 -0.679699 -10.5445 12.5643 
-0.382065 -9.82462 12.4098 -2.65221 -11.3445 12.2642 -0.905793 -11.6701 12.3889 
-2.34796 -12.0716 12.7903 -1.7922 -12.4443 12.4306 -1.0258 -12.603 12.6192 
-1.37786 -12.7868 12.6113 -2.22306 4.92827 11.1601 -2.74772 4.39494 11.6934 
-1.51763 5.05314 11.6067 -0.554159 4.83028 11.6742 0.030583 4.15388 11.3967 
-2.85827 3.52394 11.4326 0.215885 3.4649 11.4399 -2.80503 2.49063 11.4422 
0.661381 2.51045 12.1063 0.334675 2.59449 11.4389 -2.91284 1.41271 11.5665 
0.704748 1.72698 12.0197 0.318045 1.39172 11.4839 -3.25121 0.542513 11.8799 
-3.33156 0.880898 11.2171 -3.60658 0.229923 11.5242 0.178629 0.44515 11.4495 
-3.33425 -0.209678 11.9408 -3.65379 -0.391975 11.1706 0.17021 -0.534378 11.4548 
-3.26612 -0.869676 11.5641 -2.94203 -1.56961 11.6052 0.183059 -1.53588 11.4686 
-2.80374 -2.53104 11.4389 0.18762 -2.53525 11.4699 -2.79884 -3.54842 11.4708 
0.198086 -3.52747 11.4643 -2.83373 -4.55151 11.491 0.217708 -4.5112 11.4551 
-2.84536 -5.53792 11.4985 0.225336 -5.49898 11.4455 -2.85203 -6.53939 11.5061 
0.238025 -6.50235 11.4335 -2.86845 -7.52431 11.4896 0.271233 -7.52622 11.4281 
-2.89214 -8.50293 11.4737 0.153118 -8.56282 11.4843 -2.92709 -9.52843 11.4597 
-0.184231 -9.32946 11.87 -0.54992 -9.78135 11.6367 -0.214443 -9.10975 11.0713 
-2.79217 -10.5546 11.2987 -0.885923 -10.616 11.4616 -2.21217 -11.1719 11.3226 
-1.94566 -11.7564 11.9661 -1.43149 -11.0932 11.233 -1.27162 -11.4821 11.7841 
[...]
CELL_DATA 2188
SCALARS scalars float
LOOKUP_TABLE default
14 14 14 14 14 14 14 14 14 
14 14 14 14 14 14 14 14 14 
14 14 14 14 14 14 14 14 14 
14 14 14 14 14 14 14 14 14 
14 14 14 14 14 14 14 14 14 
14 14 14 14 14 14 14 14 14 
14 14 14 14 14 14 14 14 14 
14 14 14 14 14 14 14 14 14 
14 14 14 14 14 14 14 14 14 
14 14 14 14 14 14 14 14 14 
14 14 14 14 14 14 14 14 14 
14 14 14 14 14 14 14 14 14 
14 14 14 14 14 14 14 14 14 
14 14 14 14 14 14 14 14 14 
14 14 14 14 14 14 14 14 14 
14 14 14 14 14 14 14 14 14 
14 14 14 14 14 14 14 14 14 
14 14 14 14 14 14 14 14 14 
14 14 14 14 14 14 14 14 14 
14 14 14 14 14 14 14 14 14 
14 14 14 14 14 14 14 14 14 
14 14 14 14 14 14 14 14 14 
14 14 14 14 14 14 14 14 14 
14 14 14 14 14 14 14 14 14 
14 14 14 14 14 14 14 14 14 
14 14 14 14 14 14 14 14 14 
14 14 14 14 14 14 14 14 14 
14 14 14 14 14 14 14 14 14 
14 14 14 14 14 14 14 14 14 
14 14 14 14 14 14 14 14 14 
14 14 14 14 14 14 14 14 14 
14 14 14 14 14 14 14 14 14 
14 14 14 14 14 14 14 14 14 
14 14 14 14 14 14 14 14 14 
14 14 14 14 14 14 14 14 14 
14 14 14 14 14 14 14 14 14 
14 14 14 14 14 14 14 14 14 
14 14 14 14 14 14 14 14 14 
14 14 14 14 14 14 14 14 14 
14 14 14 14 14 14 14 14 14 
14 14 14 14 14 14 14 14 14 
14 14 14 14 14 14 14 14 14 
14 14 14 14 14 14 14 14 14 
14 14 14 14 14 14 14 14 14 
14 14 14 14 14 14 14 14 14 
14 14 14 14 14 14 14 14 14 
14 14 14 14 14 14 14 14 14 
14 14 14 14 14 14 14 14 14 
14 14 14 14 14 14 14 14 14 
14 14 14 14 14 14 14 14 14 
14 14 14 14 14 14 14 14 14 
14 14 14 14 14 14 14 14 14 
14 14 14 14 14 14 14 14 14 
14 14 14 14 14 14 14 14 14 
14 14 14 14 14 14 14 14 14 
14 14 14 14 14 14 14 14 14 
14 14 14 14 14 14 14 14 14 
14 14 14 14 14 14 14 14 14 
14 14 14 14 14 14 14 14 14 
14 14 14 14 14 14 14 14 14 
14 14 14 14 14 14 14 14 14 
14 14 14 14 14 14 14 14 14 
14 14 14 14 14 14 14 14 14 
14 14 14 14 14 14 14 14 14 
14 14 14 14 14 14 14 14 14 
14 14 14 14 14 14 14 14 14 
14 14 14 14 14 14 14 14 14 
14 14 14 14 14 14 14 14 14 
14 14 14 14 14 14 14 14 14 
14 14 14 14 14 14 14 14 14 
14 14 14 14 14 14 14 14 14 
14 14 14 14 14 14 14 14 14 
14 14 14 14 14 14 14 14 14 
14 14 14 14 14 14 14 14 14 
14 14 14 14 14 14 14 14 14 
14 14 14 14 14 14 14 14 14 
14 14 14 14 14 14 14 14 14 
14 14 14 14 14 14 14 14 14 
14 14 14 14 14 14 14 14 14 
14 14 14 14 14 14 14 14 14 
14 14 14 14 14 14 14 14 14 
14 14 14 14 14 14 14 14 14 
14 14 14 14 14 14 14 14 14 
14 14 14 14 14 14 14 14 14 
14 14 14 14 14 14 14 14 14 
14 14 14 14 14 14 14 14 14 
14 14 14 14 14 14 14 14 14 
14 14 14 14 14 14 14 14 14 
14 14 14 14 14 14 14 14 14 
14 14 14 14 14 14 14 14 14 
14 14 14 14 14 14 14 14 14 
14 14 14 14 14 14 14 14 14 
14 14 14 14 14 14 14 14 14 
14 14 14 14 14 14 14 14 14 
14 14 14 14 14 14 14 14 14 
14 14 14 14 14 14 14 14 14 
14 14 14 14 14 14 14 14 14 
14 14 14 14 14 14 14 14 14 
14 14 14 14 14 14 14 14 14 
14 14 14 14 14 14 14 14 14 
14 14 14 14 14 14 14 14 14 
14 14 14 14 14 14 14 14 14 
14 14 14 14 14 14 14 14 14 
14 14 14 14 14 14 14 14 14 
14 14 14 14 14 14 14 14 14 
14 14 14 14 14 14 14 14 14 
14 14 14 14 14 14 14 14 14 
14 14 14 14 14 14 14 14 14 
14 14 14 14 14 14 14 14 14 
14 14 14 14 14 14 14 14 14 
14 14 14 14 14 14 14 14 14 
14 14 14 14 14 14 14 14 14 
14 14 14 14 14 14 14 14 14 
14 14 14 14 14 14 14 14 14 
14 14 14 14 14 14 14 14 14 
14 14 14 14 14 14 14 14 14 
14 14 14 14 14 14 14 14 14 
14 14 14 14 14 14 14 14 14 
14 14 14 14 14 14 14 14 14 
14 14 14 14 14 14 14 14 14 
14 14 14 14 14 14 14 14 14 
14 14 14 14 14 14 14 14 14 
14 14 14 14 14 14 14 14 14 
14 14 14 14 14 14 14 14 14 
14 14 14 14 14 14 14 14 14 
14 14 14 14 14 14 14 14 14 
14 14 14 14 14 14 14 14 14 
14 14 14 14 14 14 14 14 14 
14 14 14 14 14 14 14 14 14 
14 14 14 14 14 14 14 14 14 
14 14 14 14 14 14 14 14 14 
14 14 14 14 14 14 14 14 14 
14 14 14 14 14 14 14 14 14 
14 14 14 14 14 14 14 14 14 
14 14 14 14 14 14 14 14 14 
14 14 14 14 14 14 14 14 14 
14 14 14 14 14 14 14 14 14 
14 14 14 14 14 14 14 14 14 
14 14 14 14 14 14 14 14 14 
14 14 14 14 14 14 14 14 14 
14 14 14 14 14 14 14 14 14 
14 14 14 14 14 14 14 14 14 
14 14 14 14 14 14 14 14 14 
14 14 14 14 14 14 14 14 14 
14 14 14 14 14 14 14 14 14 
14 14 14 14 14 14 14 14 14 
14 14 14 14 14 14 14 14 14 
14 14 14 14 14 14 14 14 14 
14 14 14 14 14 14 14 14 14 
14 14 14 14 14 14 14 14 14 
14 14 14 14 14 14 14 14 14 
14 14 14 14 14 14 14 14 14 
14 14 14 14 14 14 14 14 14 
14 14 14 14 14 14 14 14 14 
14 14 14 14 14 14 14 14 14 
14 14 14 14 14 14 14 14 14 
14 14 14 14 14 14 14 14 14 
14 14 14 14 14 14 14 14 14 
14 14 14 14 14 14 14 14 14 
14 14 14 14 14 14 14 14 14 
14 14 14 14 14 14 14 14 14 
14 14 14 14 14 14 14 14 14 
14 14 14 14 14 14 14 14 14 
14 14 14 14 14 14 14 14 14 
14 14 14 14 14 14 14 14 14 
14 14 14 14 14 14 14 14 14 
14 14 14 14 14 14 14 14 14 
14 14 14 14 14 14 14 14 14 
14 14 14 14 14 14 14 14 14 
14 14 14 14 14 14 14 14 14 
14 14 14 14 14 14 14 14 14 
14 14 14 14 14 14 14 14 14 
14 14 14 14 14 14 14 14 14 
14 14 14 14 14 14 14 14 14 
14 14 14 14 14 14 14 14 14 
14 14 14 14 14 14 14 14 14 
14 14 14 14 14 14 14 14 14 
14 14 14 14 14 14 14 14 14 
14 14 14 14 14 14 14 14 14 
14 14 14 14 14 14 14 14 14 
14 14 14 14 14 14 14 14 14 
14 14 14 14 14 14 14 14 14 
14 14 14 14 14 14 14 14 14 
14 14 14 14 14 14 14 14 14 
14 14 14 14 14 14 14 14 14 
14 14 14 14 14 14 14 14 14 
14 14 14 14 14 14 14 14 14 
14 14 14 14 14 14 14 14 14 
14 14 14 14 14 14 14 14 14 
14 14 14 14 14 14 14 14 14 
14 14 14 14 14 14 14 14 14 
14 14 14 14 14 14 14 14 14 
14 14 14 14 14 14 14 14 14 
14 14 14 14 14 14 14 14 14 
14 14 14 14 14 14 14 14 14 
14 14 14 14 14 14 14 14 14 
14 14 14 14 14 14 14 14 14 
14 14 14 14 14 14 14 14 14 
14 14 14 14 14 14 14 14 14 
14 14 14 14 14 14 14 14 14 
14 14 14 14 14 14 14 14 14 
14 14 14 14 14 14 14 14 14 
14 14 14 14 14 14 14 14 14 
14 14 14 14 14 14 14 14 14 
14 14 14 14 14 14 14 14 14 
14 14 14 14 14 14 14 14 14 
14 14 14 14 14 14 14 14 14 
14 14 14 14 14 14 14 14 14 
14 14 14 14 14 14 14 14 14 
14 14 14 14 14 14 14 14 14 
14 14 14 14 14 14 14 14 14 
14 14 14 14 14 14 14 14 14 
14 14 14 14 14 14 14 14 14 
14 14 14 14 14 14 14 14 14 
14 14 14 14 14 14 14 14 14 
14 14 14 14 14 14 14 14 14 
14 14 14 14 14 14 14 14 14 
14 14 14 14 14 14 14 14 14 
14 14 14 14 14 14 14 14 14 
14 14 14 14 14 14 14 14 14 
14 14 14 14 14 14 14 14 14 
14 14 14 14 14 14 14 14 14 
14 14 14 14 14 14 14 14 14 
14 14 14 14 14 14 14 14 14 
14 14 14 14 14 14 14 14 14 
14 14 14 14 14 14 14 14 14 
14 14 14 14 14 14 14 14 14 
14 14 14 14 14 14 14 14 14 
14 14 14 14 14 14 14 14 14 
14 14 14 14 14 14 14 14 14 
14 14 14 14 14 14 14 14 14 
14 14 14 14 14 14 14 14 14 
14 14 14 14 14 14 14 14 14 
14 14 14 14 14 14 14 14 14 
14 14 14 14 14 14 14 14 14 
14 14 14 14 14 14 14 14 14 
14 14 14 14 14 14 14 14 14 
14 14 14 14 14 14 14 14 14 
14 14 14 14 14 14 14 14 14 
14 14 14 14 14 14 14 14 14 
14 14 14 14 14 14 14 14 14 
14 14 14 14 14 14 14 14 14 
14 14 14 14 14 14 14 14 14 
14 
