# vtk DataFile Version 4.2
vtk output
ASCII
DATASET POLYDATA
POINTS 1096 float
2.05485 18.9123 -9.63741 2.11812 18.3982 -9.22754 2.68102 18.52 -9.86675 
1.04028 18.9791 -9.6688 1.2945 18.5288 -9.08231 0.218097 18.8385 -9.78866 
0.464885 18.5813 -9.26856 -0.0501269 18.3182 -9.54291 2.46679 18.8471 -10.2687 
2.71328 18.3235 -10.5191 1.63319 18.9721 -10.3778 0.579819 18.9039 -10.4263 
-0.100335 18.4063 -10.2476 2.07352 18.4271 -10.8341 1.03162 18.4507 -10.9622 
0.214176 18.3393 -10.8678 1.29353 17.7692 -4.725 1.42345 17.4244 -4.06474 
1.67884 17.4435 -4.57558 0.986537 17.5185 -4.41458 1.33849 17.8267 -5.52835 
1.73705 17.4496 -5.54056 0.819046 17.6032 -5.27531 1.34998 17.8142 -6.55716 
1.7172 17.4387 -6.58097 0.804458 17.5915 -6.31203 1.33178 17.778 -7.56728 
1.69504 17.4099 -7.5858 0.800953 17.538 -7.32606 1.42467 17.905 -8.57143 
1.73579 17.3124 -8.39387 0.717102 17.5306 -8.23794 2.49643 18.0022 -9.69693 
1.96777 17.5511 -9.19428 0.436928 17.8826 -8.96802 -0.174986 17.4627 -9.5166 
2.3907 17.2191 -9.96618 2.72987 17.5376 -10.5411 -0.189738 17.4206 -10.5965 
2.2554 17.666 -11.0529 1.30917 17.6838 -11.25 0.363791 17.6195 -11.2058 
3.43428 16.6088 4.48016 3.47672 16.2638 4.66701 3.57867 16.3183 4.41343 
2.98316 16.2739 4.49915 3.40055 16.455 4.30897 0.996892 17.0199 -3.66086 
1.29579 16.3851 -2.93688 1.68214 16.5954 -3.54838 0.263175 16.8254 -3.76636 
0.584354 16.5436 -3.06244 -0.0612261 16.2813 -3.34197 1.86513 16.537 -4.4602 
0.372853 17.0808 -4.65504 -0.135032 16.4071 -4.28779 1.84885 16.5362 -5.50277 
0.268583 17.07 -5.84421 -0.11372 16.4028 -5.3139 1.81569 16.5359 -6.53238 
0.273885 17.0245 -6.87423 -0.107753 16.3662 -6.33185 1.77799 16.5097 -7.54267 
0.256268 16.9873 -7.85524 -0.09363 16.3382 -7.32848 1.76712 16.5199 -8.52411 
0.15148 17.167 -8.65387 -0.139582 16.468 -8.47997 1.91918 16.499 -9.39607 
-0.269326 16.4807 -9.6032 2.3165 16.2352 -10.0716 2.71826 16.6811 -10.5454 
-0.287125 16.349 -10.4384 2.239 16.9997 -11.5199 2.71383 16.3666 -11.3172 
1.522 17.1757 -11.5939 0.619849 16.9612 -11.7749 -0.0990677 16.5589 -11.2603 
2.19143 16.5257 -12.0458 1.84162 16.4338 -12.7678 1.37117 16.831 -12.4409 
0.668428 16.528 -12.5466 0.215693 16.1627 -12.0403 1.37553 16.732 -13.3805 
1.60748 16.21 -13.5594 0.972207 16.4466 -13.3073 1.22197 16.3191 -13.8329 
2.24401 15.8757 5.30221 2.19939 15.1617 5.91157 2.79653 15.2405 5.43849 
1.35824 15.7952 5.354 1.40174 15.3921 5.90257 0.831591 15.3542 5.59406 
-1.80243 15.6158 5.5142 -1.5155 15.2521 5.74656 -1.41028 15.3285 5.32871 
-1.99607 15.2811 5.59738 3.18618 15.6147 4.91254 3.55961 15.7742 4.54945 
2.09405 16.1496 4.31052 1.45625 15.9266 4.52093 0.827969 15.5152 4.81456 
-1.89714 15.2924 5.32799 3.26798 15.8781 4.11128 2.33103 15.9915 3.49505 
2.87445 15.3102 3.51307 1.44022 15.9146 3.45654 0.808102 15.5256 3.75243 
2.17564 15.8055 2.47558 2.66642 15.1563 2.39192 1.43549 15.8884 2.42785 
0.771865 15.5215 2.69857 2.17125 15.6456 1.81547 1.92168 15.5714 1.06522 
1.48225 15.8223 1.46925 0.766462 15.5341 1.69783 1.39438 15.7093 0.641538 
1.64982 15.4587 0.328662 0.847065 15.5213 0.755027 1.13014 15.4531 0.149365 
0.960302 15.9432 -2.47051 1.29387 15.3207 -1.99219 1.64817 15.5159 -2.57576 
0.257662 16.0407 -2.67377 0.579456 15.5012 -2.08065 -0.100311 15.4118 -2.50453 
1.83799 15.4519 -3.44905 -0.280408 15.5225 -3.55702 1.81129 15.4392 -4.44376 
-0.258856 15.5239 -4.57323 1.7925 15.446 -5.48138 -0.236585 15.499 -5.57228 
1.79005 15.4701 -6.5267 -0.225124 15.4807 -6.55501 1.75444 15.4698 -7.56584 
-0.214348 15.4709 -7.54856 1.73397 15.4741 -8.58224 -0.222704 15.4791 -8.56888 
1.89014 15.4581 -9.45175 -0.257137 15.4791 -9.58316 2.30282 15.2182 -10.0823 
2.71628 15.7577 -10.7137 -0.26587 15.4982 -10.574 2.77853 15.2402 -11.6025 
-0.124857 15.4792 -11.4569 2.40907 15.8681 -12.1588 2.01467 15.4843 -12.9851 
0.592163 15.7789 -12.7829 0.237708 15.2031 -12.1151 1.65614 15.3565 -13.6787 
0.923874 15.5497 -13.5467 1.30311 15.5153 -13.9112 2.12754 14.4914 5.84932 
2.68116 14.5356 5.45415 1.36407 14.6464 5.97022 0.0529396 15.0109 5.33709 
0.353696 14.6547 5.84669 -0.828979 15.0829 5.52422 -0.887276 14.5903 5.8141 
-1.78594 14.7312 5.78721 -1.99982 14.7523 5.46783 3.32007 15.2629 4.35733 
3.02352 14.7535 4.58947 0.145022 15.1477 4.22433 -0.805417 14.9054 4.64225 
-1.50602 14.5462 5.04292 -1.27461 14.3995 4.39368 2.8921 14.4382 3.47831 
0.151571 15.1477 3.16516 -0.591996 14.8584 3.47645 -1.14681 14.3469 3.73169 
2.85643 14.2886 2.59872 0.249685 15.1767 2.2617 -0.414909 14.8249 2.36789 
-1.10131 14.2451 2.64835 2.4309 15.2418 1.50048 2.74985 14.5223 1.56907 
0.159141 15.0173 1.30734 -0.384731 14.4451 1.36525 -0.833904 14.3287 1.88807 
2.24322 15.0597 0.539938 2.71935 14.3805 0.443528 0.444015 15.0004 0.126473 
-0.076622 14.5058 0.590578 2.19813 14.7989 -0.472319 2.67168 14.1722 -0.592839 
1.23484 15.1149 -0.43624 0.266665 14.8256 -0.759873 -0.0852694 14.3428 -0.312753 
2.1936 14.5835 -1.13366 1.90315 14.6479 -1.84303 1.38006 15.0034 -1.36127 
0.400413 15.0706 -1.48887 -0.142177 14.4642 -1.45334 1.93371 14.3739 -2.778 
-0.262117 14.4976 -2.57242 1.79474 14.5424 -3.63533 -0.245436 14.5031 -3.58413 
1.77192 14.4202 -4.50726 -0.219323 14.4899 -4.58104 1.89235 14.4428 -5.62949 
-0.213171 14.4847 -5.5757 1.92423 14.5935 -6.7904 -0.207662 14.479 -6.56494 
1.8945 14.5818 -7.8352 -0.199696 14.4706 -7.55026 1.88456 14.5978 -8.83626 
-0.211399 14.47 -8.54467 2.01141 14.6823 -9.56634 -0.229718 14.4892 -9.58057 
2.37243 14.3886 -9.90575 2.73669 14.6004 -10.5992 -0.106114 14.5109 -10.6812 
2.87509 14.3213 -11.4123 0.0350547 14.71 -11.5601 2.46264 15.1035 -12.4176 
2.64099 14.3728 -12.2311 0.655648 14.5593 -12.6472 0.363035 14.3719 -11.8926 
2.10608 14.3472 -12.8784 1.65953 14.5198 -13.4512 1.00226 14.5227 -13.5302 
1.37461 14.7085 -13.8332 2.37353 13.9648 5.39398 1.62184 13.9572 5.56359 
0.566886 13.9591 5.5716 -0.704174 13.9324 5.37806 -1.5744 14.2894 5.59872 
2.13282 13.1964 5.03304 2.77646 13.7564 4.57475 1.0304 13.3091 5.18298 
0.0758456 13.4073 5.18127 -0.53753 13.2861 4.90361 -1.12269 13.6986 4.36717 
2.87957 13.4593 3.47165 -1.18591 13.433 3.15557 2.86043 13.46 2.46121 
-1.29608 13.484 2.4072 2.83539 13.5231 1.4463 -0.705643 13.91 1.2742 
-1.10473 13.5312 1.75549 2.83445 13.5223 0.44767 -0.347276 13.759 0.497413 
-0.726738 13.1329 0.97142 2.83525 13.3601 -0.405143 -0.221304 13.4835 -0.551893 
2.42666 14.177 -1.43968 2.7171 13.4892 -1.42214 -0.217587 13.466 -1.56173 
2.33091 13.8904 -2.17859 2.62644 13.1125 -2.5831 -0.211912 13.471 -2.55193 
2.2313 13.5624 -2.94637 1.9613 13.6586 -3.69098 -0.193463 13.467 -3.54233 
1.98852 13.685 -4.72107 -0.188228 13.4657 -4.54092 2.22225 13.7916 -5.46616 
2.37686 13.2933 -4.97798 2.61669 13.3393 -5.62753 -0.188134 13.4673 -5.54036 
2.29857 13.9683 -6.2679 2.70075 13.3649 -6.54948 -0.187233 13.4658 -6.53412 
2.31084 13.9731 -7.27579 2.69126 13.3374 -7.5571 -0.197227 13.4604 -7.52241 
2.28043 13.9431 -8.29728 2.67072 13.3266 -8.56176 -0.220496 13.4738 -8.52852 
2.27973 14.022 -9.23869 2.70807 13.5373 -9.62723 -0.0915077 13.5345 -9.60364 
2.88231 13.5135 -10.5919 0.217975 13.8104 -10.4764 0.548615 13.4595 -10.7589 
0.323758 13.1501 -10.0868 2.7827 13.3991 -11.5732 0.298535 14.0492 -11.2167 
0.665744 13.4907 -11.6153 2.45804 13.5875 -12.2951 2.33272 13.9605 -12.6163 
1.94746 13.2661 -12.6923 0.893263 13.4354 -12.706 1.38086 13.4358 -13.0722 
1.21316 13.9919 -13.4832 2.24028 12.1563 4.90755 2.73552 12.7016 4.37319 
1.32311 12.4563 5.03202 0.200684 12.7413 4.89219 -0.59421 12.9665 4.50156 
-0.231162 12.3227 4.34468 2.87103 12.4447 3.48512 -0.782361 12.8834 3.80677 
-0.410455 12.0977 3.41231 2.82994 12.4393 2.47864 -0.840216 12.613 3.00123 
-1.08584 12.7236 2.22081 2.81247 12.5242 1.45185 -0.981859 12.6686 1.41168 
2.94563 12.542 0.354735 -0.324523 12.5577 0.4055 -0.637177 12.3289 1.05041 
2.95145 12.4807 -0.83139 -0.185662 12.4578 -0.566624 2.81864 12.6387 -1.74846 
-0.18617 12.46 -1.5429 2.80215 12.2933 -2.40577 -0.186416 12.4647 -2.53389 
2.36678 13.0915 -3.456 2.68668 12.4393 -3.43158 -0.184735 12.4643 -3.53184 
2.31887 13.0316 -4.21748 2.7089 12.5299 -4.61504 -0.18864 12.4634 -4.52891 
2.84279 12.5068 -5.5844 -0.195933 12.461 -5.51967 2.8538 12.5055 -6.57152 
-0.208277 12.4521 -6.50311 2.84513 12.4876 -7.57385 -0.241493 12.4404 -7.49202 
2.84908 12.4791 -8.5668 -0.234875 12.4778 -8.50531 2.89 12.4914 -9.56181 
0.00312398 12.5449 -9.35928 2.90825 12.4618 -10.5627 0.679699 12.5643 -10.5445 
0.382065 12.4098 -9.82462 2.65221 12.2642 -11.3445 0.905793 12.3889 -11.6701 
2.34796 12.7903 -12.0716 1.7922 12.4306 -12.4443 1.0258 12.6192 -12.603 
1.37786 12.6113 -12.7868 2.22306 11.1601 4.92827 2.74772 11.6934 4.39494 
1.51763 11.6067 5.05314 0.554159 11.6742 4.83028 -0.030583 11.3967 4.15388 
2.85827 11.4326 3.52394 -0.215885 11.4399 3.4649 2.80503 11.4422 2.49063 
-0.661381 12.1063 2.51045 -0.334675 11.4389 2.59449 2.91284 11.5665 1.41271 
-0.704748 12.0197 1.72698 -0.318045 11.4839 1.39172 3.25121 11.8799 0.542513 
3.33156 11.2171 0.880898 3.60658 11.5242 0.229923 -0.178629 11.4495 0.44515 
3.33425 11.9408 -0.209678 3.65379 11.1706 -0.391975 -0.17021 11.4548 -0.534378 
3.26612 11.5641 -0.869676 2.94203 11.6052 -1.56961 -0.183059 11.4686 -1.53588 
2.80374 11.4389 -2.53104 -0.18762 11.4699 -2.53525 2.79884 11.4708 -3.54842 
-0.198086 11.4643 -3.52747 2.83373 11.491 -4.55151 -0.217708 11.4551 -4.5112 
2.84536 11.4985 -5.53792 -0.225336 11.4455 -5.49898 2.85203 11.5061 -6.53939 
-0.238025 11.4335 -6.50235 2.86845 11.4896 -7.52431 -0.271233 11.4281 -7.52622 
2.89214 11.4737 -8.50293 -0.153118 11.4843 -8.56282 2.92709 11.4597 -9.52843 
0.184231 11.87 -9.32946 0.54992 11.6367 -9.78135 0.214443 11.0713 -9.10975 
2.79217 11.2987 -10.5546 0.885923 11.4616 -10.616 2.21217 11.3226 -11.1719 
1.94566 11.9661 -11.7564 1.43149 11.233 -11.0932 1.27162 11.7841 -11.4821 
1.33069 12.1486 -12.2479 2.20605 10.15 4.9216 2.74045 10.6938 4.41278 
1.17064 10.5793 4.9633 0.424008 10.8731 4.61642 0.482572 10.2692 4.63238 
2.84298 10.4428 3.51471 0.157964 10.587 4.28549 -0.128377 10.513 3.63771 
[...]
CELL_DATA 2188
SCALARS scalars float
LOOKUP_TABLE default
14 14 14 14 14 14 14 14 14 
14 14 14 14 14 14 14 14 14 
14 14 14 14 14 14 14 14 14 
14 14 14 14 14 14 14 14 14 
14 14 14 14 14 14 14 14 14 
14 14 14 14 14 14 14 14 14 
14 14 14 14 14 14 14 14 14 
14 14 14 14 14 14 14 14 14 
14 14 14 14 14 14 14 14 14 
14 14 14 14 14 14 14 14 14 
14 14 14 14 14 14 14 14 14 
14 14 14 14 14 14 14 14 14 
14 14 14 14 14 14 14 14 14 
14 14 14 14 14 14 14 14 14 
14 14 14 14 14 14 14 14 14 
14 14 14 14 14 14 14 14 14 
14 14 14 14 14 14 14 14 14 
14 14 14 14 14 14 14 14 14 
14 14 14 14 14 14 14 14 14 
14 14 14 14 14 14 14 14 14 
14 14 14 14 14 14 14 14 14 
14 14 14 14 14 14 14 14 14 
14 14 14 14 14 14 14 14 14 
14 14 14 14 14 14 14 14 14 
14 14 14 14 14 14 14 14 14 
14 14 14 14 14 14 14 14 14 
14 14 14 14 14 14 14 14 14 
14 14 14 14 14 14 14 14 14 
14 14 14 14 14 14 14 14 14 
14 14 14 14 14 14 14 14 14 
14 14 14 14 14 14 14 14 14 
14 14 14 14 14 14 14 14 14 
14 14 14 14 14 14 14 14 14 
14 14 14 14 14 14 14 14 14 
14 14 14 14 14 14 14 14 14 
14 14 14 14 14 14 14 14 14 
14 14 14 14 14 14 14 14 14 
14 14 14 14 14 14 14 14 14 
14 14 14 14 14 14 14 14 14 
14 14 14 14 14 14 14 14 14 
14 14 14 14 14 14 14 14 14 
14 14 14 14 14 14 14 14 14 
14 14 14 14 14 14 14 14 14 
14 14 14 14 14 14 14 14 14 
14 14 14 14 14 14 14 14 14 
14 14 14 14 14 14 14 14 14 
14 14 14 14 14 14 14 14 14 
14 14 14 14 14 14 14 14 14 
14 14 14 14 14 14 14 14 14 
14 14 14 14 14 14 14 14 14 
14 14 14 14 14 14 14 14 14 
14 14 14 14 14 14 14 14 14 
14 14 14 14 14 14 14 14 14 
14 14 14 14 14 14 14 14 14 
14 14 14 14 14 14 14 14 14 
14 14 14 14 14 14 14 14 14 
14 14 14 14 14 14 14 14 14 
14 14 14 14 14 14 14 14 14 
14 14 14 14 14 14 14 14 14 
14 14 14 14 14 14 14 14 14 
14 14 14 14 14 14 14 14 14 
14 14 14 14 14 14 14 14 14 
14 14 14 14 14 14 14 14 14 
14 14 14 14 14 14 14 14 14 
14 14 14 14 14 14 14 14 14 
14 14 14 14 14 14 14 14 14 
14 14 14 14 14 14 14 14 14 
14 14 14 14 14 14 14 14 14 
14 14 14 14 14 14 14 14 14 
14 14 14 14 14 14 14 14 14 
14 14 14 14 14 14 14 14 14 
14 14 14 14 14 14 14 14 14 
14 14 14 14 14 14 14 14 14 
14 14 14 14 14 14 14 14 14 
14 14 14 14 14 14 14 14 14 
14 14 14 14 14 14 14 14 14 
14 14 14 14 14 14 14 14 14 
14 14 14 14 14 14 14 14 14 
14 14 14 14 14 14 14 14 14 
14 14 14 14 14 14 14 14 14 
14 14 14 14 14 14 14 14 14 
14 14 14 14 14 14 14 14 14 
14 14 14 14 14 14 14 14 14 
14 14 14 14 14 14 14 14 14 
14 14 14 14 14 14 14 14 14 
14 14 14 14 14 14 14 14 14 
14 14 14 14 14 14 14 14 14 
14 14 14 14 14 14 14 14 14 
14 14 14 14 14 14 14 14 14 
14 14 14 14 14 14 14 14 14 
14 14 14 14 14 14 14 14 14 
14 14 14 14 14 14 14 14 14 
14 14 14 14 14 14 14 14 14 
14 14 14 14 14 14 14 14 14 
14 14 14 14 14 14 14 14 14 
14 14 14 14 14 14 14 14 14 
14 14 14 14 14 14 14 14 14 
14 14 14 14 14 14 14 14 14 
14 14 14 14 14 14 14 14 14 
14 14 14 14 14 14 14 14 14 
14 14 14 14 14 14 14 14 14 
14 14 14 14 14 14 14 14 14 
14 14 14 14 14 14 14 14 14 
14 14 14 14 14 14 14 14 14 
14 14 14 14 14 14 14 14 14 
14 14 14 14 14 14 14 14 14 
14 14 14 14 14 14 14 14 14 
14 14 14 14 14 14 14 14 14 
14 14 14 14 14 14 14 14 14 
14 14 14 14 14 14 14 14 14 
14 14 14 14 14 14 14 14 14 
14 14 14 14 14 14 14 14 14 
14 14 14 14 14 14 14 14 14 
14 14 14 14 14 14 14 14 14 
14 14 14 14 14 14 14 14 14 
14 14 14 14 14 14 14 14 14 
14 14 14 14 14 14 14 14 14 
14 14 14 14 14 14 14 14 14 
14 14 14 14 14 14 14 14 14 
14 14 14 14 14 14 14 14 14 
14 14 14 14 14 14 14 14 14 
14 14 14 14 14 14 14 14 14 
14 14 14 14 14 14 14 14 14 
14 14 14 14 14 14 14 14 14 
14 14 14 14 14 14 14 14 14 
14 14 14 14 14 14 14 14 14 
14 14 14 14 14 14 14 14 14 
14 14 14 14 14 14 14 14 14 
14 14 14 14 14 14 14 14 14 
14 14 14 14 14 14 14 14 14 
14 14 14 14 14 14 14 14 14 
14 14 14 14 14 14 14 14 14 
14 14 14 14 14 14 14 14 14 
14 14 14 14 14 14 14 14 14 
14 14 14 14 14 14 14 14 14 
14 14 14 14 14 14 14 14 14 
14 14 14 14 14 14 14 14 14 
14 14 14 14 14 14 14 14 14 
14 14 14 14 14 14 14 14 14 
14 14 14 14 14 14 14 14 14 
14 14 14 14 14 14 14 14 14 
14 14 14 14 14 14 14 14 14 
14 14 14 14 14 14 14 14 14 
14 14 14 14 14 14 14 14 14 
14 14 14 14 14 14 14 14 14 
14 14 14 14 14 14 14 14 14 
14 14 14 14 14 14 14 14 14 
14 14 14 14 14 14 14 14 14 
14 14 14 14 14 14 14 14 14 
14 14 14 14 14 14 14 14 14 
14 14 14 14 14 14 14 14 14 
14 14 14 14 14 14 14 14 14 
14 14 14 14 14 14 14 14 14 
14 14 14 14 14 14 14 14 14 
14 14 14 14 14 14 14 14 14 
14 14 14 14 14 14 14 14 14 
14 14 14 14 14 14 14 14 14 
14 14 14 14 14 14 14 14 14 
14 14 14 14 14 14 14 14 14 
14 14 14 14 14 14 14 14 14 
14 14 14 14 14 14 14 14 14 
14 14 14 14 14 14 14 14 14 
14 14 14 14 14 14 14 14 14 
14 14 14 14 14 14 14 14 14 
14 14 14 14 14 14 14 14 14 
14 14 14 14 14 14 14 14 14 
14 14 14 14 14 14 14 14 14 
14 14 14 14 14 14 14 14 14 
14 14 14 14 14 14 14 14 14 
14 14 14 14 14 14 14 14 14 
14 14 14 14 14 14 14 14 14 
14 14 14 14 14 14 14 14 14 
14 14 14 14 14 14 14 14 14 
14 14 14 14 14 14 14 14 14 
14 14 14 14 14 14 14 14 14 
14 14 14 14 14 14 14 14 14 
14 14 14 14 14 14 14 14 14 
14 14 14 14 14 14 14 14 14 
14 14 14 14 14 14 14 14 14 
14 14 14 14 14 14 14 14 14 
14 14 14 14 14 14 14 14 14 
14 14 14 14 14 14 14 14 14 
14 14 14 14 14 14 14 14 14 
14 14 14 14 14 14 14 14 14 
14 14 14 14 14 14 14 14 14 
14 14 14 14 14 14 14 14 14 
14 14 14 14 14 14 14 14 14 
14 14 14 14 14 14 14 14 14 
14 14 14 14 14 14 14 14 14 
14 14 14 14 14 14 14 14 14 
14 14 14 14 14 14 14 14 14 
14 14 14 14 14 14 14 14 14 
14 14 14 14 14 14 14 14 14 
14 14 14 14 14 14 14 14 14 
14 14 14 14 14 14 14 14 14 
14 14 14 14 14 14 14 14 14 
14 14 14 14 14 14 14 14 14 
14 14 14 14 14 14 14 14 14 
14 14 14 14 14 14 14 14 14 
14 14 14 14 14 14 14 14 14 
14 14 14 14 14 14 14 14 14 
14 14 14 14 14 14 14 14 14 
14 14 14 14 14 14 14 14 14 
14 14 14 14 14 14 14 14 14 
14 14 14 14 14 14 14 14 14 
14 14 14 14 14 14 14 14 14 
14 14 14 14 14 14 14 14 14 
14 14 14 14 14 14 14 14 14 
14 14 14 14 14 14 14 14 14 
14 14 14 14 14 14 14 14 14 
14 14 14 14 14 14 14 14 14 
14 14 14 14 14 14 14 14 14 
14 14 14 14 14 14 14 14 14 
14 14 14 14 14 14 14 14 14 
14 14 14 14 14 14 14 14 14 
14 14 14 14 14 14 14 14 14 
14 14 14 14 14 14 14 14 14 
14 14 14 14 14 14 14 14 14 
14 14 14 14 14 14 14 14 14 
14 14 14 14 14 14 14 14 14 
14 14 14 14 14 14 14 14 14 
14 14 14 14 14 14 14 14 14 
14 14 14 14 14 14 14 14 14 
14 14 14 14 14 14 14 14 14 
14 14 14 14 14 14 14 14 14 
14 14 14 14 14 14 14 14 14 
14 14 14 14 14 14 14 14 14 
14 14 14 14 14 14 14 14 14 
14 14 14 14 14 14 14 14 14 
14 14 14 14 14 14 14 14 14 
14 14 14 14 14 14 14 14 14 
14 14 14 14 14 14 14 14 14 
14 14 14 14 14 14 14 14 14 
14 14 14 14 14 14 14 14 14 
14 14 14 14 14 14 14 14 14 
14 14 14 14 14 14 14 14 14 
14 14 14 14 14 14 14 14 14 
14 14 14 14 14 14 14 14 14 
14 14 14 14 14 14 14 14 14 
14 14 14 14 14 14 14 14 14 
14 14 14 14 14 14 14 14 14 
14 14 14 14 14 14 14 14 14 
14 14 14 14 14 14 14 14 14 
14 
