# vtk DataFile Version 4.2
vtk output
ASCII
DATASET POLYDATA
POINTS 1914 float
1.92009 -23.8188 -13.8859 2.03302 -23.5707 -14.1508 2.1269 -23.8534 -14.0061 
1.82354 -23.656 -14.1635 1.99688 -24.1614 -13.8894 2.16968 -24.243 -14.2137 
1.78179 -24.0876 -14.0833 1.93089 -24.4255 -14.171 2.10706 -23.4648 -14.6918 
2.3131 -23.8051 -14.4946 1.74445 -23.7282 -14.6336 2.32615 -24.2418 -14.5862 
1.72501 -24.3109 -14.6992 2.11056 -24.5757 -14.7135 2.55086 -23.6298 -14.9693 
2.48188 -23.4155 -15.4082 2.81314 -23.7827 -15.3025 1.8964 -23.3872 -15.2821 
1.59599 -23.7479 -15.2183 2.57145 -24.1472 -14.9609 2.85319 -24.3223 -15.487 
1.55436 -24.3098 -15.3325 2.45278 -24.6661 -15.154 2.086 -24.9135 -15.1163 
2.28589 -24.9495 -15.2691 1.77569 -24.8707 -15.2268 2.08842 -25.1808 -15.4324 
2.46741 -23.4432 -16.0357 2.87022 -23.7965 -15.7922 1.96625 -23.3011 -15.9155 
1.34322 -23.8415 -15.63 1.50427 -23.4269 -15.769 1.17651 -23.638 -16.0511 
2.98383 -24.2719 -15.8836 1.37769 -24.3393 -15.6695 1.12396 -24.1614 -16.0448 
2.5556 -24.8981 -15.4915 2.86646 -24.8647 -16.0019 1.54778 -24.9064 -15.7695 
1.3021 -24.6499 -15.9643 2.45309 -25.2892 -15.7486 2.08134 -25.5082 -15.7268 
2.33405 -25.6049 -15.9535 1.79168 -25.3794 -15.741 2.01321 -25.7053 -16.0645 
2.70458 -23.7311 -16.2499 2.36748 -23.589 -16.446 1.94347 -23.4345 -16.4398 
1.43155 -23.4368 -16.3263 1.10366 -23.8649 -16.5717 2.51948 -23.9158 -16.7217 
2.9084 -24.2272 -16.3239 0.997769 -24.2849 -16.508 2.96285 -24.8047 -16.5863 
1.3875 -25.0473 -16.2198 1.12845 -24.7185 -16.4599 2.65125 -25.4545 -16.1046 
2.85749 -25.4852 -16.6108 1.65373 -25.5259 -16.3809 1.34238 -25.2124 -16.6916 
2.41265 -25.8195 -16.364 1.98557 -25.9065 -16.5133 2.03505 -23.6724 -16.7478 
1.52916 -23.6517 -16.795 2.46488 -24.1163 -17.15 2.8494 -24.4107 -16.9995 
1.89657 -23.9523 -17.0888 1.31525 -23.9835 -17.0522 1.1083 -24.4038 -16.9744 
2.96831 -24.9927 -17.0044 1.17856 -24.9163 -16.971 2.96518 -25.411 -17.2035 
1.55028 -25.4522 -17.1119 1.37797 -25.1295 -17.176 2.60566 -26.043 -16.7612 
2.84027 -26.0812 -17.2143 2.19009 -26.1519 -16.7985 1.7469 -26.0041 -17.1202 
2.39851 -26.4102 -17.0577 1.98125 -26.4315 -17.1648 2.63393 -24.3602 -17.4375 
2.05665 -24.3224 -17.4619 1.47922 -24.2715 -17.2947 2.47977 -24.5388 -17.8996 
2.8934 -24.8362 -17.545 1.92984 -24.5992 -17.7635 1.45465 -24.6981 -17.3941 
1.64199 -24.9934 -17.7006 2.95903 -25.4668 -17.7268 1.62288 -25.5122 -17.7346 
2.95373 -25.9859 -17.8144 1.61746 -26.0098 -17.813 2.49137 -26.7866 -17.3002 
2.93253 -26.7031 -17.6711 2.02704 -26.8062 -17.3501 1.70264 -26.5489 -17.6652 
2.50988 -27.3506 -17.4098 2.91825 -27.4766 -17.6402 2.04671 -27.3343 -17.4173 
1.71931 -27.1692 -17.742 2.58583 -27.8077 -17.4768 2.84226 -27.8743 -17.6395 
2.16114 -27.8586 -17.4585 1.73866 -27.814 -17.7824 2.57279 -28.167 -17.727 
1.97923 -28.2416 -17.7292 2.46318 -24.668 -18.3886 2.80139 -24.9271 -18.1673 
2.06198 -24.6665 -18.1823 1.78643 -25.0575 -18.2772 2.84825 -25.475 -18.2676 
1.70282 -25.6305 -18.2806 2.93041 -26.1085 -18.2211 1.70108 -26.2512 -18.2532 
3.20565 -26.6156 -18.0904 3.14088 -26.4226 -18.3589 3.39955 -26.8622 -18.3358 
1.69663 -26.8855 -18.3245 3.26216 -27.1383 -17.9729 3.47394 -27.3797 -18.295 
1.62201 -27.4075 -18.183 3.1676 -27.7788 -17.9596 3.46581 -27.9293 -18.4906 
1.55493 -27.7952 -18.3766 3.07484 -28.2542 -18.1579 2.65182 -28.4769 -18.0587 
2.86539 -28.6029 -18.3041 2.17392 -28.5287 -18.0027 1.64478 -28.4447 -18.2728 
2.40758 -28.7773 -18.2855 1.97252 -28.8165 -18.3568 2.51296 -25.0271 -18.5723 
2.13925 -24.8188 -18.549 2.50461 -25.6074 -18.5819 2.04506 -25.2734 -18.6091 
2.64392 -26.225 -18.5662 2.0302 -25.9008 -18.575 3.14967 -26.6778 -18.6087 
2.6838 -26.6644 -18.7219 2.08934 -26.5519 -18.6323 3.03376 -27.014 -18.906 
3.47336 -27.3166 -18.778 2.4405 -26.9745 -18.9198 1.95963 -27.0006 -18.8172 
1.71347 -27.335 -18.7936 3.58223 -27.8688 -18.8976 1.45544 -27.656 -18.9347 
1.34431 -28.0929 -18.6129 1.19383 -27.8859 -19.0333 3.20276 -28.543 -18.5006 
3.49372 -28.4188 -18.9101 1.33641 -28.4642 -18.6064 1.13387 -28.3706 -19.0164 
3.13836 -29.0489 -18.6926 3.42331 -29.1283 -19.0991 2.6376 -29.0678 -18.5065 
2.04814 -29.1837 -18.5822 1.65813 -29.0533 -18.709 1.34427 -28.804 -18.8426 
3.11131 -29.4601 -18.8211 2.93917 -29.9221 -18.8354 2.6101 -29.678 -18.624 
2.06039 -29.7106 -18.6559 1.66454 -29.6601 -18.9404 2.49544 -30.3399 -18.6244 
2.89628 -30.4831 -18.8416 2.04517 -30.3226 -18.6434 1.74884 -30.2228 -18.8699 
2.58153 -30.7859 -18.6834 2.84017 -30.8585 -18.8434 2.16235 -30.8517 -18.6816 
1.76032 -30.8183 -18.9927 2.55819 -31.1636 -18.9359 1.9827 -31.238 -18.957 
3.26073 -27.3648 -19.1992 2.78229 -27.2772 -19.2353 2.17726 -27.2716 -19.178 
3.10589 -27.5626 -19.6656 3.50411 -27.8341 -19.3268 2.44822 -27.4735 -19.6284 
1.78647 -27.4918 -19.4894 1.3355 -27.6485 -19.416 1.10425 -27.939 -19.5121 
3.55407 -28.4896 -19.5104 1.01374 -28.3743 -19.6127 3.54438 -29.0118 -19.6271 
1.36209 -29.3116 -19.1414 1.09726 -28.9253 -19.4584 3.26509 -29.6646 -19.0626 
3.46907 -29.6325 -19.5016 1.40642 -29.7758 -19.2953 1.14952 -29.5881 -19.6437 
3.23074 -30.1619 -19.1492 3.45668 -30.3082 -19.5725 1.55345 -30.2906 -19.2813 
1.31804 -30.0566 -19.5855 3.14001 -30.7846 -19.1594 3.42152 -30.9376 -19.6938 
1.5614 -30.8402 -19.4667 3.05341 -31.2537 -19.3458 2.55381 -31.599 -19.2036 
2.9493 -31.6897 -19.4627 2.0568 -31.598 -19.1626 1.66392 -31.366 -19.3729 
2.51178 -32.0953 -19.2516 2.89311 -32.2322 -19.4729 2.06413 -32.0869 -19.2465 
1.67731 -31.9633 -19.4588 2.48768 -32.6888 -19.2262 2.87965 -32.8383 -19.4501 
2.05139 -32.6763 -19.2381 1.67652 -32.5608 -19.4656 2.49892 -33.3028 -19.2068 
2.88582 -33.4464 -19.4512 2.06163 -33.3032 -19.2281 1.67908 -33.2561 -19.5337 
2.58845 -33.8105 -19.2343 2.8856 -34.0825 -19.5642 2.18055 -33.9304 -19.2412 
1.79521 -33.8793 -19.5428 2.53928 -34.2986 -19.3024 2.75973 -34.6382 -19.6122 
2.22883 -34.4195 -19.3841 1.93845 -34.2927 -19.5462 2.47113 -34.6524 -19.4696 
3.1054 -27.6985 -20.1455 3.45059 -27.9933 -20.0236 2.5977 -27.6411 -20.0646 
1.94997 -27.6337 -20.0567 1.4052 -27.6848 -19.9243 1.14484 -28.0704 -20.059 
3.56008 -28.5717 -20.0303 1.0814 -28.6667 -20.1569 3.55218 -29.0723 -20.1286 
1.02307 -29.1917 -20.0212 3.54734 -29.69 -20.1151 1.02424 -29.6006 -20.208 
3.54101 -30.2978 -20.1242 1.35628 -30.5113 -19.7458 1.11473 -30.124 -20.0929 
3.52255 -30.8069 -20.2173 1.37439 -31.078 -19.7944 1.14351 -30.743 -20.1851 
3.26339 -31.4484 -19.6848 3.45257 -31.4323 -20.102 1.37355 -31.6731 -19.7813 
1.1381 -31.3284 -20.1876 3.21527 -31.9247 -19.7838 3.50292 -32.1701 -20.1547 
1.36579 -32.2735 -19.7699 1.054 -31.931 -20.1838 3.20078 -32.5341 -19.7804 
3.50649 -32.8673 -20.0766 1.37918 -32.876 -19.7767 1.05762 -32.5575 -20.0625 
3.20376 -33.1422 -19.771 3.49197 -33.4705 -20.0928 1.41891 -33.3631 -19.885 
1.11787 -33.1266 -20.0814 3.18374 -33.7169 -19.8249 3.38978 -33.9579 -20.1371 
1.54804 -33.7948 -19.9237 1.2785 -33.5682 -20.1258 3.14896 -34.1666 -19.9819 
3.02365 -34.5734 -19.9949 2.09175 -34.7257 -19.7067 1.67714 -34.4297 -20.0458 
2.51171 -34.9955 -19.7008 2.87664 -35.2161 -20.1073 2.16179 -35.2347 -19.8724 
1.82988 -35.087 -20.1598 2.54063 -35.5203 -19.9179 2.75858 -35.8657 -20.2327 
2.218 -35.7469 -20.1564 1.95449 -35.473 -20.1819 2.53056 -35.9737 -20.1515 
3.242 -27.9248 -20.4485 2.69586 -27.9143 -20.4416 2.00074 -27.9247 -20.3611 
1.49647 -27.8694 -20.2934 3.04414 -28.175 -20.7451 3.44632 -28.4116 -20.5472 
2.5755 -28.2498 -20.6978 2.09623 -28.3043 -20.5674 2.23299 -28.5787 -20.7882 
1.47049 -28.3353 -20.4554 3.46707 -29.0544 -20.6648 1.74873 -28.7386 -20.7563 
1.32123 -28.8079 -20.6518 1.12066 -29.2288 -20.5914 3.45438 -29.6737 -20.6435 
1.1052 -29.8571 -20.6526 3.46008 -30.3415 -20.7095 1.10356 -30.4759 -20.7492 
3.52307 -30.9816 -20.5965 1.04192 -30.9886 -20.6207 3.62553 -31.5242 -20.6299 
0.975513 -31.4828 -20.768 3.77374 -32.0526 -20.4916 3.87328 -31.7347 -20.8091 
3.997 -32.1281 -20.7718 0.788571 -31.8846 -20.6366 0.744305 -32.2849 -20.404 
0.589224 -32.0864 -20.8114 3.79821 -32.5505 -20.386 4.04382 -32.6821 -20.7567 
0.75694 -32.8515 -20.3537 0.51709 -32.5255 -20.7482 3.80597 -33.1623 -20.3772 
4.12369 -33.357 -20.7432 0.887604 -33.4901 -20.3797 0.534705 -33.126 -20.7453 
3.73491 -33.8658 -20.393 4.11265 -34.0685 -20.6866 1.29979 -33.9679 -20.2676 
0.948532 -34.0423 -20.5162 0.574649 -33.7835 -20.8145 3.7202 -34.4733 -20.5238 
4.00373 -34.577 -20.7384 3.35448 -34.3796 -20.2752 1.34384 -34.4557 -20.4787 
1.04299 -34.4269 -20.6681 0.740643 -34.2497 -20.7764 3.68128 -34.871 -20.6823 
3.42352 -35.2128 -20.7635 3.28456 -34.9145 -20.4446 1.57285 -34.9783 -20.5493 
1.28834 -34.7669 -20.7383 3.12744 -35.3858 -20.6212 2.98997 -35.7928 -20.6075 
1.97466 -35.7235 -20.3899 1.69449 -35.6218 -20.7278 2.62929 -36.2336 -20.4185 
2.83737 -36.2015 -20.6064 2.33931 -36.2136 -20.5116 1.99867 -36.0265 -20.6704 
2.64887 -36.4858 -20.8171 3.15064 -28.636 -20.9389 2.65106 -28.5525 -20.929 
3.13714 -29.2219 -20.9649 2.60489 -29.08 -21.046 1.99745 -29.0581 -20.977 
1.47055 -29.1003 -20.893 3.14532 -29.8237 -20.9539 2.61116 -29.6773 -21.0385 
1.97374 -29.6716 -21.0463 1.42712 -29.5505 -20.9522 3.21411 -30.3044 -21.0726 
2.76281 -30.1874 -21.1136 2.1298 -30.2019 -21.1175 1.46466 -30.1733 -21.0436 
2.99958 -30.6153 -21.3048 3.4882 -30.8681 -21.1035 2.40058 -30.5987 -21.3198 
1.77962 -30.6023 -21.3281 1.33029 -30.6155 -21.237 1.14883 -31.0208 -21.1902 
3.78866 -31.3598 -21.0645 3.73049 -31.202 -21.3606 3.98944 -31.6665 -21.2483 
1.09461 -31.4842 -21.3743 4.11954 -32.193 -21.1852 0.810425 -31.7828 -21.2363 
0.534164 -32.1535 -21.3005 4.20283 -32.7177 -21.2573 0.431451 -32.67 -21.2879 
4.37676 -33.2334 -21.0835 4.42502 -33.0239 -21.499 4.56627 -33.4144 -21.2772 
0.369608 -33.2455 -21.3057 4.42178 -33.7297 -20.9689 4.64482 -33.8775 -21.3344 
0.358081 -33.7967 -21.2573 4.35548 -34.426 -20.9774 4.73397 -34.5513 -21.3404 
0.89209 -34.7135 -20.9556 0.466827 -34.3258 -21.1658 4.33181 -35.1185 -21.0586 
4.72333 -35.2574 -21.2729 3.85506 -35.0922 -20.8957 1.32557 -35.1758 -20.8945 
[...]
CELL_DATA 3824
SCALARS scalars float
LOOKUP_TABLE default
15 15 15 15 15 15 15 15 15 
15 15 15 15 15 15 15 15 15 
15 15 15 15 15 15 15 15 15 
15 15 15 15 15 15 15 15 15 
15 15 15 15 15 15 15 15 15 
15 15 15 15 15 15 15 15 15 
15 15 15 15 15 15 15 15 15 
15 15 15 15 15 15 15 15 15 
15 15 15 15 15 15 15 15 15 
15 15 15 15 15 15 15 15 15 
15 15 15 15 15 15 15 15 15 
15 15 15 15 15 15 15 15 15 
15 15 15 15 15 15 15 15 15 
15 15 15 15 15 15 15 15 15 
15 15 15 15 15 15 15 15 15 
15 15 15 15 15 15 15 15 15 
15 15 15 15 15 15 15 15 15 
15 15 15 15 15 15 15 15 15 
15 15 15 15 15 15 15 15 15 
15 15 15 15 15 15 15 15 15 
15 15 15 15 15 15 15 15 15 
15 15 15 15 15 15 15 15 15 
15 15 15 15 15 15 15 15 15 
15 15 15 15 15 15 15 15 15 
15 15 15 15 15 15 15 15 15 
15 15 15 15 15 15 15 15 15 
15 15 15 15 15 15 15 15 15 
15 15 15 15 15 15 15 15 15 
15 15 15 15 15 15 15 15 15 
15 15 15 15 15 15 15 15 15 
15 15 15 15 15 15 15 15 15 
15 15 15 15 15 15 15 15 15 
15 15 15 15 15 15 15 15 15 
15 15 15 15 15 15 15 15 15 
15 15 15 15 15 15 15 15 15 
15 15 15 15 15 15 15 15 15 
15 15 15 15 15 15 15 15 15 
15 15 15 15 15 15 15 15 15 
15 15 15 15 15 15 15 15 15 
15 15 15 15 15 15 15 15 15 
15 15 15 15 15 15 15 15 15 
15 15 15 15 15 15 15 15 15 
15 15 15 15 15 15 15 15 15 
15 15 15 15 15 15 15 15 15 
15 15 15 15 15 15 15 15 15 
15 15 15 15 15 15 15 15 15 
15 15 15 15 15 15 15 15 15 
15 15 15 15 15 15 15 15 15 
15 15 15 15 15 15 15 15 15 
15 15 15 15 15 15 15 15 15 
15 15 15 15 15 15 15 15 15 
15 15 15 15 15 15 15 15 15 
15 15 15 15 15 15 15 15 15 
15 15 15 15 15 15 15 15 15 
15 15 15 15 15 15 15 15 15 
15 15 15 15 15 15 15 15 15 
15 15 15 15 15 15 15 15 15 
15 15 15 15 15 15 15 15 15 
15 15 15 15 15 15 15 15 15 
15 15 15 15 15 15 15 15 15 
15 15 15 15 15 15 15 15 15 
15 15 15 15 15 15 15 15 15 
15 15 15 15 15 15 15 15 15 
15 15 15 15 15 15 15 15 15 
15 15 15 15 15 15 15 15 15 
15 15 15 15 15 15 15 15 15 
15 15 15 15 15 15 15 15 15 
15 15 15 15 15 15 15 15 15 
15 15 15 15 15 15 15 15 15 
15 15 15 15 15 15 15 15 15 
15 15 15 15 15 15 15 15 15 
15 15 15 15 15 15 15 15 15 
15 15 15 15 15 15 15 15 15 
15 15 15 15 15 15 15 15 15 
15 15 15 15 15 15 15 15 15 
15 15 15 15 15 15 15 15 15 
15 15 15 15 15 15 15 15 15 
15 15 15 15 15 15 15 15 15 
15 15 15 15 15 15 15 15 15 
15 15 15 15 15 15 15 15 15 
15 15 15 15 15 15 15 15 15 
15 15 15 15 15 15 15 15 15 
15 15 15 15 15 15 15 15 15 
15 15 15 15 15 15 15 15 15 
15 15 15 15 15 15 15 15 15 
15 15 15 15 15 15 15 15 15 
15 15 15 15 15 15 15 15 15 
15 15 15 15 15 15 15 15 15 
15 15 15 15 15 15 15 15 15 
15 15 15 15 15 15 15 15 15 
15 15 15 15 15 15 15 15 15 
15 15 15 15 15 15 15 15 15 
15 15 15 15 15 15 15 15 15 
15 15 15 15 15 15 15 15 15 
15 15 15 15 15 15 15 15 15 
15 15 15 15 15 15 15 15 15 
15 15 15 15 15 15 15 15 15 
15 15 15 15 15 15 15 15 15 
15 15 15 15 15 15 15 15 15 
15 15 15 15 15 15 15 15 15 
15 15 15 15 15 15 15 15 15 
15 15 15 15 15 15 15 15 15 
15 15 15 15 15 15 15 15 15 
15 15 15 15 15 15 15 15 15 
15 15 15 15 15 15 15 15 15 
15 15 15 15 15 15 15 15 15 
15 15 15 15 15 15 15 15 15 
15 15 15 15 15 15 15 15 15 
15 15 15 15 15 15 15 15 15 
15 15 15 15 15 15 15 15 15 
15 15 15 15 15 15 15 15 15 
15 15 15 15 15 15 15 15 15 
15 15 15 15 15 15 15 15 15 
15 15 15 15 15 15 15 15 15 
15 15 15 15 15 15 15 15 15 
15 15 15 15 15 15 15 15 15 
15 15 15 15 15 15 15 15 15 
15 15 15 15 15 15 15 15 15 
15 15 15 15 15 15 15 15 15 
15 15 15 15 15 15 15 15 15 
15 15 15 15 15 15 15 15 15 
15 15 15 15 15 15 15 15 15 
15 15 15 15 15 15 15 15 15 
15 15 15 15 15 15 15 15 15 
15 15 15 15 15 15 15 15 15 
15 15 15 15 15 15 15 15 15 
15 15 15 15 15 15 15 15 15 
15 15 15 15 15 15 15 15 15 
15 15 15 15 15 15 15 15 15 
15 15 15 15 15 15 15 15 15 
15 15 15 15 15 15 15 15 15 
15 15 15 15 15 15 15 15 15 
15 15 15 15 15 15 15 15 15 
15 15 15 15 15 15 15 15 15 
15 15 15 15 15 15 15 15 15 
15 15 15 15 15 15 15 15 15 
15 15 15 15 15 15 15 15 15 
15 15 15 15 15 15 15 15 15 
15 15 15 15 15 15 15 15 15 
15 15 15 15 15 15 15 15 15 
15 15 15 15 15 15 15 15 15 
15 15 15 15 15 15 15 15 15 
15 15 15 15 15 15 15 15 15 
15 15 15 15 15 15 15 15 15 
15 15 15 15 15 15 15 15 15 
15 15 15 15 15 15 15 15 15 
15 15 15 15 15 15 15 15 15 
15 15 15 15 15 15 15 15 15 
15 15 15 15 15 15 15 15 15 
15 15 15 15 15 15 15 15 15 
15 15 15 15 15 15 15 15 15 
15 15 15 15 15 15 15 15 15 
15 15 15 15 15 15 15 15 15 
15 15 15 15 15 15 15 15 15 
15 15 15 15 15 15 15 15 15 
15 15 15 15 15 15 15 15 15 
15 15 15 15 15 15 15 15 15 
15 15 15 15 15 15 15 15 15 
15 15 15 15 15 15 15 15 15 
15 15 15 15 15 15 15 15 15 
15 15 15 15 15 15 15 15 15 
15 15 15 15 15 15 15 15 15 
15 15 15 15 15 15 15 15 15 
15 15 15 15 15 15 15 15 15 
15 15 15 15 15 15 15 15 15 
15 15 15 15 15 15 15 15 15 
15 15 15 15 15 15 15 15 15 
15 15 15 15 15 15 15 15 15 
15 15 15 15 15 15 15 15 15 
15 15 15 15 15 15 15 15 15 
15 15 15 15 15 15 15 15 15 
15 15 15 15 15 15 15 15 15 
15 15 15 15 15 15 15 15 15 
15 15 15 15 15 15 15 15 15 
15 15 15 15 15 15 15 15 15 
15 15 15 15 15 15 15 15 15 
15 15 15 15 15 15 15 15 15 
15 15 15 15 15 15 15 15 15 
15 15 15 15 15 15 15 15 15 
15 15 15 15 15 15 15 15 15 
15 15 15 15 15 15 15 15 15 
15 15 15 15 15 15 15 15 15 
15 15 15 15 15 15 15 15 15 
15 15 15 15 15 15 15 15 15 
15 15 15 15 15 15 15 15 15 
15 15 15 15 15 15 15 15 15 
15 15 15 15 15 15 15 15 15 
15 15 15 15 15 15 15 15 15 
15 15 15 15 15 15 15 15 15 
15 15 15 15 15 15 15 15 15 
15 15 15 15 15 15 15 15 15 
15 15 15 15 15 15 15 15 15 
15 15 15 15 15 15 15 15 15 
15 15 15 15 15 15 15 15 15 
15 15 15 15 15 15 15 15 15 
15 15 15 15 15 15 15 15 15 
15 15 15 15 15 15 15 15 15 
15 15 15 15 15 15 15 15 15 
15 15 15 15 15 15 15 15 15 
15 15 15 15 15 15 15 15 15 
15 15 15 15 15 15 15 15 15 
15 15 15 15 15 15 15 15 15 
15 15 15 15 15 15 15 15 15 
15 15 15 15 15 15 15 15 15 
15 15 15 15 15 15 15 15 15 
15 15 15 15 15 15 15 15 15 
15 15 15 15 15 15 15 15 15 
15 15 15 15 15 15 15 15 15 
15 15 15 15 15 15 15 15 15 
15 15 15 15 15 15 15 15 15 
15 15 15 15 15 15 15 15 15 
15 15 15 15 15 15 15 15 15 
15 15 15 15 15 15 15 15 15 
15 15 15 15 15 15 15 15 15 
15 15 15 15 15 15 15 15 15 
15 15 15 15 15 15 15 15 15 
15 15 15 15 15 15 15 15 15 
15 15 15 15 15 15 15 15 15 
15 15 15 15 15 15 15 15 15 
15 15 15 15 15 15 15 15 15 
15 15 15 15 15 15 15 15 15 
15 15 15 15 15 15 15 15 15 
15 15 15 15 15 15 15 15 15 
15 15 15 15 15 15 15 15 15 
15 15 15 15 15 15 15 15 15 
15 15 15 15 15 15 15 15 15 
15 15 15 15 15 15 15 15 15 
15 15 15 15 15 15 15 15 15 
15 15 15 15 15 15 15 15 15 
15 15 15 15 15 15 15 15 15 
15 15 15 15 15 15 15 15 15 
15 15 15 15 15 15 15 15 15 
15 15 15 15 15 15 15 15 15 
15 15 15 15 15 15 15 15 15 
15 15 15 15 15 15 15 15 15 
15 15 15 15 15 15 15 15 15 
15 15 15 15 15 15 15 15 15 
15 15 15 15 15 15 15 15 15 
15 15 15 15 15 15 15 15 15 
15 15 15 15 15 15 15 15 15 
15 15 15 15 15 15 15 15 15 
15 15 15 15 15 15 15 15 15 
15 15 15 15 15 15 15 15 15 
15 15 15 15 15 15 15 15 15 
15 15 15 15 15 15 15 15 15 
15 15 15 15 15 15 15 15 15 
15 15 15 15 15 15 15 15 15 
15 15 15 15 15 15 15 15 15 
15 15 15 15 15 15 15 15 15 
15 15 15 15 15 15 15 15 15 
15 15 15 15 15 15 15 15 15 
15 15 15 15 15 15 15 15 15 
15 15 15 15 15 15 15 15 15 
15 15 15 15 15 15 15 15 15 
15 15 15 15 15 15 15 15 15 
15 15 15 15 15 15 15 15 15 
15 15 15 15 15 15 15 15 15 
15 15 15 15 15 15 15 15 15 
15 15 15 15 15 15 15 15 15 
15 15 15 15 15 15 15 15 15 
15 15 15 15 15 15 15 15 15 
15 15 15 15 15 15 15 15 15 
15 15 15 15 15 15 15 15 15 
15 15 15 15 15 15 15 15 15 
15 15 15 15 15 15 15 15 15 
15 15 15 15 15 15 15 15 15 
15 15 15 15 15 15 15 15 15 
15 15 15 15 15 15 15 15 15 
15 15 15 15 15 15 15 15 15 
15 15 15 15 15 15 15 15 15 
15 15 15 15 15 15 15 15 15 
15 15 15 15 15 15 15 15 15 
15 15 15 15 15 15 15 15 15 
15 15 15 15 15 15 15 15 15 
15 15 15 15 15 15 15 15 15 
15 15 15 15 15 15 15 15 15 
15 15 15 15 15 15 15 15 15 
15 15 15 15 15 15 15 15 15 
15 15 15 15 15 15 15 15 15 
15 15 15 15 15 15 15 15 15 
15 15 15 15 15 15 15 15 15 
15 15 15 15 15 15 15 15 15 
15 15 15 15 15 15 15 15 15 
15 15 15 15 15 15 15 15 15 
15 15 15 15 15 15 15 15 15 
15 15 15 15 15 15 15 15 15 
15 15 15 15 15 15 15 15 15 
15 15 15 15 15 15 15 15 15 
15 15 15 15 15 15 15 15 15 
15 15 15 15 15 15 15 15 15 
15 15 15 15 15 15 15 15 15 
15 15 15 15 15 15 15 15 15 
15 15 15 15 15 15 15 15 15 
15 15 15 15 15 15 15 15 15 
15 15 15 15 15 15 15 15 15 
15 15 15 15 15 15 15 15 15 
15 15 15 15 15 15 15 15 15 
15 15 15 15 15 15 15 15 15 
15 15 15 15 15 15 15 15 15 
15 15 15 15 15 15 15 15 15 
15 15 15 15 15 15 15 15 15 
15 15 15 15 15 15 15 15 15 
15 15 15 15 15 15 15 15 15 
15 15 15 15 15 15 15 15 15 
15 15 15 15 15 15 15 15 15 
15 15 15 15 15 15 15 15 15 
15 15 15 15 15 15 15 15 15 
15 15 15 15 15 15 15 15 15 
15 15 15 15 15 15 15 15 15 
15 15 15 15 15 15 15 15 15 
15 15 15 15 15 15 15 15 15 
15 15 15 15 15 15 15 15 15 
15 15 15 15 15 15 15 15 15 
15 15 15 15 15 15 15 15 15 
15 15 15 15 15 15 15 15 15 
15 15 15 15 15 15 15 15 15 
15 15 15 15 15 15 15 15 15 
15 15 15 15 15 15 15 15 15 
15 15 15 15 15 15 15 15 15 
15 15 15 15 15 15 15 15 15 
15 15 15 15 15 15 15 15 15 
15 15 15 15 15 15 15 15 15 
15 15 15 15 15 15 15 15 15 
15 15 15 15 15 15 15 15 15 
15 15 15 15 15 15 15 15 15 
15 15 15 15 15 15 15 15 15 
15 15 15 15 15 15 15 15 15 
15 15 15 15 15 15 15 15 15 
15 15 15 15 15 15 15 15 15 
15 15 15 15 15 15 15 15 15 
15 15 15 15 15 15 15 15 15 
15 15 15 15 15 15 15 15 15 
15 15 15 15 15 15 15 15 15 
15 15 15 15 15 15 15 15 15 
15 15 15 15 15 15 15 15 15 
15 15 15 15 15 15 15 15 15 
15 15 15 15 15 15 15 15 15 
15 15 15 15 15 15 15 15 15 
15 15 15 15 15 15 15 15 15 
15 15 15 15 15 15 15 15 15 
15 15 15 15 15 15 15 15 15 
15 15 15 15 15 15 15 15 15 
15 15 15 15 15 15 15 15 15 
15 15 15 15 15 15 15 15 15 
15 15 15 15 15 15 15 15 15 
15 15 15 15 15 15 15 15 15 
15 15 15 15 15 15 15 15 15 
15 15 15 15 15 15 15 15 15 
15 15 15 15 15 15 15 15 15 
15 15 15 15 15 15 15 15 15 
15 15 15 15 15 15 15 15 15 
15 15 15 15 15 15 15 15 15 
15 15 15 15 15 15 15 15 15 
15 15 15 15 15 15 15 15 15 
15 15 15 15 15 15 15 15 15 
15 15 15 15 15 15 15 15 15 
15 15 15 15 15 15 15 15 15 
15 15 15 15 15 15 15 15 15 
15 15 15 15 15 15 15 15 15 
15 15 15 15 15 15 15 15 15 
15 15 15 15 15 15 15 15 15 
15 15 15 15 15 15 15 15 15 
15 15 15 15 15 15 15 15 15 
15 15 15 15 15 15 15 15 15 
15 15 15 15 15 15 15 15 15 
15 15 15 15 15 15 15 15 15 
15 15 15 15 15 15 15 15 15 
15 15 15 15 15 15 15 15 15 
15 15 15 15 15 15 15 15 15 
15 15 15 15 15 15 15 15 15 
15 15 15 15 15 15 15 15 15 
15 15 15 15 15 15 15 15 15 
15 15 15 15 15 15 15 15 15 
15 15 15 15 15 15 15 15 15 
15 15 15 15 15 15 15 15 15 
15 15 15 15 15 15 15 15 15 
15 15 15 15 15 15 15 15 15 
15 15 15 15 15 15 15 15 15 
15 15 15 15 15 15 15 15 15 
15 15 15 15 15 15 15 15 15 
15 15 15 15 15 15 15 15 15 
15 15 15 15 15 15 15 15 15 
15 15 15 15 15 15 15 15 15 
15 15 15 15 15 15 15 15 15 
15 15 15 15 15 15 15 15 15 
15 15 15 15 15 15 15 15 15 
15 15 15 15 15 15 15 15 15 
15 15 15 15 15 15 15 15 15 
15 15 15 15 15 15 15 15 15 
15 15 15 15 15 15 15 15 15 
15 15 15 15 15 15 15 15 15 
15 15 15 15 15 15 15 15 15 
15 15 15 15 15 15 15 15 15 
15 15 15 15 15 15 15 15 15 
15 15 15 15 15 15 15 15 15 
15 15 15 15 15 15 15 15 15 
15 15 15 15 15 15 15 15 15 
15 15 15 15 15 15 15 15 15 
15 15 15 15 15 15 15 15 15 
15 15 15 15 15 15 15 15 15 
15 15 15 15 15 15 15 15 15 
15 15 15 15 15 15 15 15 15 
15 15 15 15 15 15 15 15 15 
15 15 15 15 15 15 15 15 15 
15 15 15 15 15 15 15 15 15 
15 15 15 15 15 15 15 15 15 
15 15 15 15 15 15 15 15 15 
15 15 15 15 15 15 15 15 15 
15 15 15 15 15 15 15 15 15 
15 15 15 15 15 15 15 15 15 
15 15 15 15 15 15 15 15 15 
15 15 15 15 15 15 15 15 15 
15 15 15 15 15 15 15 15 15 
15 15 15 15 15 15 15 15 15 
15 15 15 15 15 15 15 15 15 
15 15 15 15 15 15 15 15 15 
15 15 15 15 15 15 15 15 15 
15 15 15 15 15 15 15 15 15 
15 15 15 15 15 15 15 15 15 
15 15 15 15 15 15 15 15 15 
15 15 15 15 15 15 15 15 15 
15 15 15 15 15 15 15 15 15 
15 15 15 15 15 15 15 15 15 
15 15 15 15 15 15 15 15 15 
15 15 15 15 15 15 15 15 
