# vtk DataFile Version 4.2
vtk output
ASCII
DATASET POLYDATA
POINTS 760 float
-0.28218 4.26176 45.7421 -0.437442 4.92191 45.4158 -0.648188 4.40249 45.4418 
-0.028363 4.59116 45.4794 3.83891 4.22928 45.7435 3.59093 4.71731 45.4866 
3.31509 4.1356 45.5549 4.05129 4.65296 45.3084 -0.335792 3.475 45.7966 
-0.709365 3.44916 45.4481 0.150891 3.74919 45.5382 3.76973 3.442 45.8187 
3.22779 3.18637 45.5455 4.13315 3.73792 45.4466 -0.351854 2.4451 45.7998 
-0.705011 2.40446 45.4608 0.161593 2.73557 45.5245 3.73146 2.42033 45.8091 
3.24174 2.16727 45.5393 4.10981 2.69715 45.4692 -0.358863 1.41902 45.8149 
-0.715748 1.37536 45.4619 0.1643 1.70365 45.5309 3.68238 1.6136 45.7448 
3.43002 1.29676 45.477 4.07567 1.56927 45.3499 -0.428067 0.629164 45.7657 
-0.682349 0.342892 45.2585 0.0921273 0.736847 45.5692 3.84268 0.948969 45.4184 
-0.193397 0.138853 45.5196 3.87534 8.25769 44.7402 3.51236 8.72161 44.2718 
3.35289 8.16277 44.538 4.04773 8.48712 44.3147 3.8031 7.47204 44.7954 
3.26508 7.20045 44.5245 4.16633 7.75868 44.4405 -0.0947042 6.22863 44.7318 
-0.457866 6.89642 44.3459 -0.666288 6.42923 44.3947 0.0585668 6.63038 44.4333 
3.66603 6.32102 44.801 3.10485 6.35104 44.5501 4.13629 6.73242 44.4274 
-0.180417 5.44237 45.0346 -0.74725 5.46077 44.6115 0.580501 6.11633 44.5654 
0.804137 5.42898 44.8576 2.00151 5.31393 44.8027 1.43778 5.90787 44.4575 
2.97553 5.63023 44.8506 2.41838 5.98218 44.4396 3.62139 5.2812 45.108 
4.13632 5.54825 44.5467 -0.843161 4.48875 44.5564 0.664077 4.36345 45.108 
1.7049 4.4845 44.9493 2.80994 4.7615 45.1303 4.25311 4.44805 44.5525 
-0.83963 3.46513 44.554 0.816124 3.19146 45.0889 1.66766 3.48619 44.9196 
2.56325 3.78124 45.1188 4.24777 3.41171 44.5764 -0.832675 2.43723 44.5763 
0.83345 2.18031 45.0791 1.70267 2.47527 44.8985 2.55982 2.76264 45.0903 
4.23638 2.37939 44.5566 -0.843442 1.41213 44.5742 0.838872 1.15332 45.1331 
1.75078 1.44328 44.9335 2.74392 1.55845 45.0967 4.24328 1.52099 44.389 
-0.857945 0.552571 44.4167 0.595359 0.120176 45.1822 1.70718 0.400158 44.9967 
2.73465 0.411425 44.9983 3.60465 0.413273 45.0565 4.15351 0.630361 44.6134 
-0.215259 -0.355633 45.0944 -0.714516 -0.545917 44.3908 0.469236 -0.577751 44.9136 
1.39094 -0.450719 44.8995 2.47561 -0.470511 44.89 3.44266 -0.531059 44.835 
4.07 -0.341114 44.4182 -0.0281877 -1.00764 44.4 0.918204 -0.903484 44.3944 
1.98004 -0.925848 44.3984 3.04123 -1.00798 44.4048 3.79302 -0.928734 44.3034 
-0.13815 9.22981 43.7579 -0.468592 9.91409 43.3727 -0.705082 9.44476 43.3984 
0.0362439 9.65196 43.4557 -0.224503 8.45826 43.8728 -0.747242 8.51613 43.3948 
0.534771 9.13664 43.5901 0.780042 8.42218 43.8426 1.9818 8.34244 43.8104 
1.40016 8.96842 43.4771 2.83783 8.50587 44.0695 2.60639 8.98725 43.5917 
3.61178 8.98665 43.6622 4.16838 8.52722 43.5032 -0.209019 7.42028 44.0221 
-0.763896 7.44674 43.5651 0.693742 7.42269 43.9816 1.73253 7.45563 43.9364 
2.63965 7.7551 44.121 4.27371 7.44406 43.5458 -0.850276 6.51362 43.5054 
0.733464 6.57586 44.1996 1.69801 6.54583 44.0844 2.59424 6.78085 44.1688 
4.25 6.43072 43.5243 -0.844272 5.50173 43.4962 4.24311 5.42061 43.5079 
-0.830701 4.48237 43.4861 4.23421 4.41023 43.5016 -0.820909 3.4686 43.4928 
4.22321 3.39986 43.5089 -0.822588 2.4531 43.5161 4.22826 2.39206 43.4986 
-0.836305 1.44153 43.5391 4.24695 1.37841 43.5095 -0.849384 0.425546 43.5533 
4.26741 0.356909 43.5328 -0.848217 -0.4569 43.4135 4.15133 -0.531008 43.5234 
-0.442324 -1.46167 43.9896 -0.727839 -1.58315 43.379 0.146156 -1.68365 43.4301 
0.777238 -1.19637 43.4435 1.7042 -1.03578 43.521 2.76235 -1.09957 43.5351 
3.65977 -1.02826 43.5331 -0.311476 -2.05623 43.4307 -0.0639575 10.3376 42.9566 
-0.388897 11.0271 42.3691 -0.718209 10.4271 42.5753 0.911875 10.3389 42.8491 
0.342059 11.0074 42.5025 1.95887 10.3486 42.8293 1.36227 11.0034 42.4981 
3.00308 10.3319 42.8634 2.44106 11.0195 42.5126 3.77349 10.2535 42.7609 
3.44125 10.957 42.5137 4.1073 10.7434 42.2271 -0.858427 9.56135 42.4892 
0.711981 9.62042 43.2001 1.69646 9.60757 43.0975 2.7647 9.61888 43.13 
3.66447 9.52689 43.0886 4.19562 9.61695 42.4863 -0.830272 8.54368 42.4665 
4.28724 8.46452 42.4908 -0.809146 7.53076 42.4583 4.25616 7.45493 42.4733 
-0.797419 6.52606 42.4434 4.22685 6.4697 42.4551 -0.785691 5.51325 42.4421 
4.21108 5.47083 42.4499 -0.786201 4.50001 42.4425 4.20238 4.46751 42.4566 
-0.790599 3.48526 42.4493 4.20093 3.46198 42.4643 -0.794659 2.47036 42.4681 
4.2093 2.4462 42.467 -0.804104 1.45191 42.4981 4.23797 1.41569 42.4769 
-0.820918 0.439905 42.5227 4.26085 0.38282 42.4954 -0.834182 -0.585078 42.5392 
4.1552 -0.611308 42.3964 -0.846118 -1.46171 42.4099 0.658779 -1.5439 42.9565 
1.1911 -1.61287 42.3475 1.73295 -1.20804 42.6192 2.68175 -1.2036 42.6374 
3.6058 -1.18512 42.5855 -0.406208 -2.49767 42.9785 -0.671622 -2.43362 42.3773 
0.106983 -2.45167 42.7856 0.664654 -2.07049 42.4925 -0.0624209 -2.91465 42.2531 
-0.0437903 11.5186 41.9319 -0.214302 11.9922 41.2459 -0.686053 11.4036 41.5617 
0.909838 11.499 42.0079 0.651372 11.8559 41.3695 1.98213 11.535 41.9982 
1.70151 11.8672 41.3397 3.02952 11.5513 42.0248 2.76374 11.9073 41.3406 
3.79863 11.417 42.0117 3.57609 11.8086 41.4857 4.10694 11.4131 41.4081 
-0.838894 10.5109 41.4849 4.31304 10.5284 41.4604 -0.803096 9.51449 41.435 
4.28879 9.48228 41.4713 -0.770863 8.49823 41.4283 4.24659 8.47541 41.4332 
-0.763143 7.49486 41.4372 4.23246 7.50697 41.4179 -0.763621 6.49832 41.4239 
4.23243 6.53117 41.4177 -0.758264 5.51405 41.4182 4.22683 5.52818 41.4141 
-0.756156 4.53058 41.4192 4.22376 4.51992 41.4288 -0.761807 3.52559 41.4141 
4.22228 3.51945 41.4324 -0.764173 2.51447 41.4301 4.226 2.51576 41.4328 
-0.766905 1.50743 41.4446 4.2437 1.49548 41.4508 -0.775831 0.490125 41.4696 
4.2682 0.463544 41.4571 -0.804929 -0.533511 41.5057 4.28854 -0.386658 41.3138 
-0.834916 -1.57081 41.5388 1.784 -1.49046 42.0494 2.45841 -1.53203 41.9802 
3.42363 -1.58849 41.9242 4.11051 -1.2561 41.5346 -0.71425 -2.48931 41.289 
0.534599 -2.70081 42.0551 1.0487 -2.38054 41.6442 1.8629 -1.97427 41.3492 
3.01335 -1.95233 41.3381 3.78909 -1.86412 41.2485 -0.207808 -3.03111 41.4911 
0.530913 -2.9511 41.3972 -0.176671 12.3969 40.7329 -0.20349 12.7317 40.2483 
-0.812363 12.3423 40.516 0.264967 12.5396 40.3115 -0.97156 11.2212 40.6368 
0.466877 12.1818 40.7479 1.43243 12.1124 40.6227 2.48051 12.1237 40.5853 
3.52187 11.8532 40.5656 4.09134 11.169 40.5865 -0.935964 10.2128 40.5836 
4.13261 10.2201 40.5944 -0.905194 9.20528 40.5743 4.08793 9.21832 40.5808 
-0.904688 8.20403 40.5918 4.10531 8.20748 40.3861 -0.911036 7.22261 40.5823 
4.23072 7.35167 40.5625 -0.883397 6.20889 40.3897 4.23871 6.5096 40.4105 
-0.759416 5.34874 40.5662 4.24136 5.49891 40.4077 -0.754854 4.5079 40.4121 
4.23779 4.49665 40.4235 -0.752861 3.49871 40.4068 4.23509 3.50046 40.4235 
-0.754524 2.4969 40.4206 4.23378 2.50017 40.4297 -0.753304 1.49806 40.4223 
4.23797 1.4846 40.4566 -0.757714 0.489807 40.4383 4.26396 0.457473 40.4437 
-0.790729 -0.541945 40.4994 4.29998 -0.561702 40.4523 -0.833462 -1.58449 40.5182 
4.18052 -1.45123 40.4592 -0.708701 -2.46971 40.255 1.16403 -2.56048 40.7087 
1.87135 -2.19768 40.1728 2.76992 -2.07531 40.4329 3.66633 -1.95729 40.4513 
-0.224307 -2.99196 40.5016 0.508646 -2.99211 40.4882 -1.1805 13.2406 39.8178 
-1.27006 14.0371 39.1789 -1.67573 13.4424 39.3933 -0.772873 13.5768 39.3398 
-1.44037 12.6455 39.9556 -1.73912 12.5038 39.3734 -0.480072 13.0951 39.7639 
1.01813 12.4774 40.047 0.415014 12.9609 39.6248 2.01331 12.4604 39.9601 
1.49578 12.9501 39.4484 2.9002 12.2949 39.8984 2.45703 12.8865 39.4591 
3.07937 12.6935 39.2104 -1.35284 11.7464 40.0214 -1.68804 11.4492 39.3531 
3.36912 11.6405 39.5076 3.77265 11.4142 40.0612 -1.30762 10.7181 39.9833 
-1.66952 10.4291 39.3501 3.7563 10.7481 39.9557 3.33729 10.4664 39.3503 
-1.28478 9.71495 39.9641 -1.67003 9.43244 39.3556 3.70198 9.73628 39.9707 
3.30626 9.43137 39.3562 -1.28614 8.7163 39.9744 -1.6753 8.43347 39.3746 
3.70153 8.78661 39.8912 3.34919 8.37628 39.1557 -1.29564 7.73006 39.9926 
-1.67672 7.4331 39.3698 3.77517 8.03409 39.6125 4.04361 7.3008 39.6696 
-1.28369 6.79211 39.8962 -1.63822 6.37757 39.1555 4.08883 6.21765 39.5515 
-1.21452 6.03724 39.6134 -0.949771 5.30112 39.6713 4.08954 5.20385 39.5695 
-0.9064 4.2184 39.5526 4.08578 4.20681 39.5797 -0.905485 3.20561 39.5698 
4.0833 3.20895 39.5802 -0.907239 2.21012 39.5778 4.07688 2.21047 39.5968 
-0.9048 1.21386 39.5748 4.07662 1.21729 39.5907 -0.909817 0.212381 39.5964 
4.14564 0.16294 39.3903 -0.941506 -0.80496 39.6349 4.30449 -0.758229 39.5705 
-0.956504 -1.86235 39.4722 4.16595 -1.45616 39.4188 -0.71468 -2.59946 39.3463 
1.25588 -2.57384 39.7691 1.96268 -2.30944 39.4179 2.81569 -2.19123 39.3638 
3.64878 -1.94804 39.4345 -0.211382 -2.96637 39.488 0.723763 -2.98326 39.427 
-1.39291 14.5957 38.7938 -1.29786 14.8254 38.1667 -1.69012 14.3116 38.6972 
-0.873463 14.5839 38.4919 -1.88628 13.5208 38.5085 -0.0351169 13.4899 39.0517 
-0.487894 14.0277 38.7354 0.948794 13.4698 38.9301 0.427505 14.0042 38.4439 
1.99185 13.471 38.9745 1.47185 14.0352 38.4396 2.75887 13.3535 38.9887 
2.46613 13.9839 38.4919 3.1254 13.5934 38.3533 -1.88231 12.4729 38.4455 
3.28179 12.5371 38.4626 -1.85193 11.4365 38.4545 3.23523 11.4802 38.4717 
-1.84053 10.4304 38.4818 3.1776 10.442 38.5029 -1.83354 9.42886 38.4959 
3.16247 9.43253 38.5028 -1.83415 8.41352 38.5231 3.16512 8.58572 38.3396 
-1.83859 7.40019 38.5132 3.61946 7.52304 39.1363 3.28933 7.53929 38.4781 
-1.84543 6.56258 38.3441 3.69029 6.71319 38.9653 3.32008 6.4406 38.342 
-1.37316 5.52613 39.1335 -1.72142 5.53872 38.4685 3.7046 5.71146 38.945 
3.31602 5.43731 38.3448 -1.30537 4.71588 38.9608 -1.69588 4.44976 38.3236 
3.69914 4.71562 38.9658 3.31319 4.44229 38.3518 -1.29077 3.71617 38.9412 
-1.69464 3.45128 38.3261 3.69724 3.71812 38.9684 3.31273 3.44239 38.353 
-1.29379 2.72239 38.9629 -1.68941 2.45414 38.3349 3.69406 2.7186 38.9755 
3.30755 2.44152 38.3704 -1.29237 1.72559 38.9649 -1.68256 1.44839 38.3406 
3.68512 1.73305 38.9916 3.30548 1.44507 38.3623 -1.29034 0.727351 38.9696 
[...]
CELL_DATA 1516
SCALARS scalars float
LOOKUP_TABLE default
255 255 255 255 255 255 255 255 255 
255 255 255 255 255 255 255 255 255 
255 255 255 255 255 255 255 255 255 
255 255 255 255 255 255 255 255 255 
255 255 255 255 255 255 255 255 255 
255 255 255 255 255 255 255 255 255 
255 255 255 255 255 255 255 255 255 
255 255 255 255 255 255 255 255 255 
255 255 255 255 255 255 255 255 255 
255 255 255 255 255 255 255 255 255 
255 255 255 255 255 255 255 255 255 
255 255 255 255 255 255 255 255 255 
255 255 255 255 255 255 255 255 255 
255 255 255 255 255 255 255 255 255 
255 255 255 255 255 255 255 255 255 
255 255 255 255 255 255 255 255 255 
255 255 255 255 255 255 255 255 255 
255 255 255 255 255 255 255 255 255 
255 255 255 255 255 255 255 255 255 
255 255 255 255 255 255 255 255 255 
255 255 255 255 255 255 255 255 255 
255 255 255 255 255 255 255 255 255 
255 255 255 255 255 255 255 255 255 
255 255 255 255 255 255 255 255 255 
255 255 255 255 255 255 255 255 255 
255 255 255 255 255 255 255 255 255 
255 255 255 255 255 255 255 255 255 
255 255 255 255 255 255 255 255 255 
255 255 255 255 255 255 255 255 255 
255 255 255 255 255 255 255 255 255 
255 255 255 255 255 255 255 255 255 
255 255 255 255 255 255 255 255 255 
255 255 255 255 255 255 255 255 255 
255 255 255 255 255 255 255 255 255 
255 255 255 255 255 255 255 255 255 
255 255 255 255 255 255 255 255 255 
255 255 255 255 255 255 255 255 255 
255 255 255 255 255 255 255 255 255 
255 255 255 255 255 255 255 255 255 
255 255 255 255 255 255 255 255 255 
255 255 255 255 255 255 255 255 255 
255 255 255 255 255 255 255 255 255 
255 255 255 255 255 255 255 255 255 
255 255 255 255 255 255 255 255 255 
255 255 255 255 255 255 255 255 255 
255 255 255 255 255 255 255 255 255 
255 255 255 255 255 255 255 255 255 
255 255 255 255 255 255 255 255 255 
255 255 255 255 255 255 255 255 255 
255 255 255 255 255 255 255 255 255 
255 255 255 255 255 255 255 255 255 
255 255 255 255 255 255 255 255 255 
255 255 255 255 255 255 255 255 255 
255 255 255 255 255 255 255 255 255 
255 255 255 255 255 255 255 255 255 
255 255 255 255 255 255 255 255 255 
255 255 255 255 255 255 255 255 255 
255 255 255 255 255 255 255 255 255 
255 255 255 255 255 255 255 255 255 
255 255 255 255 255 255 255 255 255 
255 255 255 255 255 255 255 255 255 
255 255 255 255 255 255 255 255 255 
255 255 255 255 255 255 255 255 255 
255 255 255 255 255 255 255 255 255 
255 255 255 255 255 255 255 255 255 
255 255 255 255 255 255 255 255 255 
255 255 255 255 255 255 255 255 255 
255 255 255 255 255 255 255 255 255 
255 255 255 255 255 255 255 255 255 
255 255 255 255 255 255 255 255 255 
255 255 255 255 255 255 255 255 255 
255 255 255 255 255 255 255 255 255 
255 255 255 255 255 255 255 255 255 
255 255 255 255 255 255 255 255 255 
255 255 255 255 255 255 255 255 255 
255 255 255 255 255 255 255 255 255 
255 255 255 255 255 255 255 255 255 
255 255 255 255 255 255 255 255 255 
255 255 255 255 255 255 255 255 255 
255 255 255 255 255 255 255 255 255 
255 255 255 255 255 255 255 255 255 
255 255 255 255 255 255 255 255 255 
255 255 255 255 255 255 255 255 255 
255 255 255 255 255 255 255 255 255 
255 255 255 255 255 255 255 255 255 
255 255 255 255 255 255 255 255 255 
255 255 255 255 255 255 255 255 255 
255 255 255 255 255 255 255 255 255 
255 255 255 255 255 255 255 255 255 
255 255 255 255 255 255 255 255 255 
255 255 255 255 255 255 255 255 255 
255 255 255 255 255 255 255 255 255 
255 255 255 255 255 255 255 255 255 
255 255 255 255 255 255 255 255 255 
255 255 255 255 255 255 255 255 255 
255 255 255 255 255 255 255 255 255 
255 255 255 255 255 255 255 255 255 
255 255 255 255 255 255 255 255 255 
255 255 255 255 255 255 255 255 255 
255 255 255 255 255 255 255 255 255 
255 255 255 255 255 255 255 255 255 
255 255 255 255 255 255 255 255 255 
255 255 255 255 255 255 255 255 255 
255 255 255 255 255 255 255 255 255 
255 255 255 255 255 255 255 255 255 
255 255 255 255 255 255 255 255 255 
255 255 255 255 255 255 255 255 255 
255 255 255 255 255 255 255 255 255 
255 255 255 255 255 255 255 255 255 
255 255 255 255 255 255 255 255 255 
255 255 255 255 255 255 255 255 255 
255 255 255 255 255 255 255 255 255 
255 255 255 255 255 255 255 255 255 
255 255 255 255 255 255 255 255 255 
255 255 255 255 255 255 255 255 255 
255 255 255 255 255 255 255 255 255 
255 255 255 255 255 255 255 255 255 
255 255 255 255 255 255 255 255 255 
255 255 255 255 255 255 255 255 255 
255 255 255 255 255 255 255 255 255 
255 255 255 255 255 255 255 255 255 
255 255 255 255 255 255 255 255 255 
255 255 255 255 255 255 255 255 255 
255 255 255 255 255 255 255 255 255 
255 255 255 255 255 255 255 255 255 
255 255 255 255 255 255 255 255 255 
255 255 255 255 255 255 255 255 255 
255 255 255 255 255 255 255 255 255 
255 255 255 255 255 255 255 255 255 
255 255 255 255 255 255 255 255 255 
255 255 255 255 255 255 255 255 255 
255 255 255 255 255 255 255 255 255 
255 255 255 255 255 255 255 255 255 
255 255 255 255 255 255 255 255 255 
255 255 255 255 255 255 255 255 255 
255 255 255 255 255 255 255 255 255 
255 255 255 255 255 255 255 255 255 
255 255 255 255 255 255 255 255 255 
255 255 255 255 255 255 255 255 255 
255 255 255 255 255 255 255 255 255 
255 255 255 255 255 255 255 255 255 
255 255 255 255 255 255 255 255 255 
255 255 255 255 255 255 255 255 255 
255 255 255 255 255 255 255 255 255 
255 255 255 255 255 255 255 255 255 
255 255 255 255 255 255 255 255 255 
255 255 255 255 255 255 255 255 255 
255 255 255 255 255 255 255 255 255 
255 255 255 255 255 255 255 255 255 
255 255 255 255 255 255 255 255 255 
255 255 255 255 255 255 255 255 255 
255 255 255 255 255 255 255 255 255 
255 255 255 255 255 255 255 255 255 
255 255 255 255 255 255 255 255 255 
255 255 255 255 255 255 255 255 255 
255 255 255 255 255 255 255 255 255 
255 255 255 255 255 255 255 255 255 
255 255 255 255 255 255 255 255 255 
255 255 255 255 255 255 255 255 255 
255 255 255 255 255 255 255 255 255 
255 255 255 255 255 255 255 255 255 
255 255 255 255 255 255 255 255 255 
255 255 255 255 255 255 255 255 255 
255 255 255 255 255 255 255 255 255 
255 255 255 255 255 255 255 255 255 
255 255 255 255 255 255 255 255 255 
255 255 255 255 255 255 255 255 255 
255 255 255 255 255 255 255 255 255 
255 255 255 255 
