# vtk DataFile Version 4.2
vtk output
ASCII
DATASET POLYDATA
POINTS 760 float
0.28218 45.7421 4.26176 0.437442 45.4158 4.92191 0.648188 45.4418 4.40249 
0.028363 45.4794 4.59116 -3.83891 45.7435 4.22928 -3.59093 45.4866 4.71731 
-3.31509 45.5549 4.1356 -4.05129 45.3084 4.65296 0.335792 45.7966 3.475 
0.709365 45.4481 3.44916 -0.150891 45.5382 3.74919 -3.76973 45.8187 3.442 
-3.22779 45.5455 3.18637 -4.13315 45.4466 3.73792 0.351854 45.7998 2.4451 
0.705011 45.4608 2.40446 -0.161593 45.5245 2.73557 -3.73146 45.8091 2.42033 
-3.24174 45.5393 2.16727 -4.10981 45.4692 2.69715 0.358863 45.8149 1.41902 
0.715748 45.4619 1.37536 -0.1643 45.5309 1.70365 -3.68238 45.7448 1.6136 
-3.43002 45.477 1.29676 -4.07567 45.3499 1.56927 0.428067 45.7657 0.629164 
0.682349 45.2585 0.342892 -0.0921273 45.5692 0.736847 -3.84268 45.4184 0.948969 
0.193397 45.5196 0.138853 -3.87534 44.7402 8.25769 -3.51236 44.2718 8.72161 
-3.35289 44.538 8.16277 -4.04773 44.3147 8.48712 -3.8031 44.7954 7.47204 
-3.26508 44.5245 7.20045 -4.16633 44.4405 7.75868 0.0947042 44.7318 6.22863 
0.457866 44.3459 6.89642 0.666288 44.3947 6.42923 -0.0585668 44.4333 6.63038 
-3.66603 44.801 6.32102 -3.10485 44.5501 6.35104 -4.13629 44.4274 6.73242 
0.180417 45.0346 5.44237 0.74725 44.6115 5.46077 -0.580501 44.5654 6.11633 
-0.804137 44.8576 5.42898 -2.00151 44.8027 5.31393 -1.43778 44.4575 5.90787 
-2.97553 44.8506 5.63023 -2.41838 44.4396 5.98218 -3.62139 45.108 5.2812 
-4.13632 44.5467 5.54825 0.843161 44.5564 4.48875 -0.664077 45.108 4.36345 
-1.7049 44.9493 4.4845 -2.80994 45.1303 4.7615 -4.25311 44.5525 4.44805 
0.83963 44.554 3.46513 -0.816124 45.0889 3.19146 -1.66766 44.9196 3.48619 
-2.56325 45.1188 3.78124 -4.24777 44.5764 3.41171 0.832675 44.5763 2.43723 
-0.83345 45.0791 2.18031 -1.70267 44.8985 2.47527 -2.55982 45.0903 2.76264 
-4.23638 44.5566 2.37939 0.843442 44.5742 1.41213 -0.838872 45.1331 1.15332 
-1.75078 44.9335 1.44328 -2.74392 45.0967 1.55845 -4.24328 44.389 1.52099 
0.857945 44.4167 0.552571 -0.595359 45.1822 0.120176 -1.70718 44.9967 0.400158 
-2.73465 44.9983 0.411425 -3.60465 45.0565 0.413273 -4.15351 44.6134 0.630361 
0.215259 45.0944 -0.355633 0.714516 44.3908 -0.545917 -0.469236 44.9136 -0.577751 
-1.39094 44.8995 -0.450719 -2.47561 44.89 -0.470511 -3.44266 44.835 -0.531059 
-4.07 44.4182 -0.341114 0.0281877 44.4 -1.00764 -0.918204 44.3944 -0.903484 
-1.98004 44.3984 -0.925848 -3.04123 44.4048 -1.00798 -3.79302 44.3034 -0.928734 
0.13815 43.7579 9.22981 0.468592 43.3727 9.91409 0.705082 43.3984 9.44476 
-0.0362439 43.4557 9.65196 0.224503 43.8728 8.45826 0.747242 43.3948 8.51613 
-0.534771 43.5901 9.13664 -0.780042 43.8426 8.42218 -1.9818 43.8104 8.34244 
-1.40016 43.4771 8.96842 -2.83783 44.0695 8.50587 -2.60639 43.5917 8.98725 
-3.61178 43.6622 8.98665 -4.16838 43.5032 8.52722 0.209019 44.0221 7.42028 
0.763896 43.5651 7.44674 -0.693742 43.9816 7.42269 -1.73253 43.9364 7.45563 
-2.63965 44.121 7.7551 -4.27371 43.5458 7.44406 0.850276 43.5054 6.51362 
-0.733464 44.1996 6.57586 -1.69801 44.0844 6.54583 -2.59424 44.1688 6.78085 
-4.25 43.5243 6.43072 0.844272 43.4962 5.50173 -4.24311 43.5079 5.42061 
0.830701 43.4861 4.48237 -4.23421 43.5016 4.41023 0.820909 43.4928 3.4686 
-4.22321 43.5089 3.39986 0.822588 43.5161 2.4531 -4.22826 43.4986 2.39206 
0.836305 43.5391 1.44153 -4.24695 43.5095 1.37841 0.849384 43.5533 0.425546 
-4.26741 43.5328 0.356909 0.848217 43.4135 -0.4569 -4.15133 43.5234 -0.531008 
0.442324 43.9896 -1.46167 0.727839 43.379 -1.58315 -0.146156 43.4301 -1.68365 
-0.777238 43.4435 -1.19637 -1.7042 43.521 -1.03578 -2.76235 43.5351 -1.09957 
-3.65977 43.5331 -1.02826 0.311476 43.4307 -2.05623 0.0639575 42.9566 10.3376 
0.388897 42.3691 11.0271 0.718209 42.5753 10.4271 -0.911875 42.8491 10.3389 
-0.342059 42.5025 11.0074 -1.95887 42.8293 10.3486 -1.36227 42.4981 11.0034 
-3.00308 42.8634 10.3319 -2.44106 42.5126 11.0195 -3.77349 42.7609 10.2535 
-3.44125 42.5137 10.957 -4.1073 42.2271 10.7434 0.858427 42.4892 9.56135 
-0.711981 43.2001 9.62042 -1.69646 43.0975 9.60757 -2.7647 43.13 9.61888 
-3.66447 43.0886 9.52689 -4.19562 42.4863 9.61695 0.830272 42.4665 8.54368 
-4.28724 42.4908 8.46452 0.809146 42.4583 7.53076 -4.25616 42.4733 7.45493 
0.797419 42.4434 6.52606 -4.22685 42.4551 6.4697 0.785691 42.4421 5.51325 
-4.21108 42.4499 5.47083 0.786201 42.4425 4.50001 -4.20238 42.4566 4.46751 
0.790599 42.4493 3.48526 -4.20093 42.4643 3.46198 0.794659 42.4681 2.47036 
-4.2093 42.467 2.4462 0.804104 42.4981 1.45191 -4.23797 42.4769 1.41569 
0.820918 42.5227 0.439905 -4.26085 42.4954 0.38282 0.834182 42.5392 -0.585078 
-4.1552 42.3964 -0.611308 0.846118 42.4099 -1.46171 -0.658779 42.9565 -1.5439 
-1.1911 42.3475 -1.61287 -1.73295 42.6192 -1.20804 -2.68175 42.6374 -1.2036 
-3.6058 42.5855 -1.18512 0.406208 42.9785 -2.49767 0.671622 42.3773 -2.43362 
-0.106983 42.7856 -2.45167 -0.664654 42.4925 -2.07049 0.0624209 42.2531 -2.91465 
0.0437903 41.9319 11.5186 0.214302 41.2459 11.9922 0.686053 41.5617 11.4036 
-0.909838 42.0079 11.499 -0.651372 41.3695 11.8559 -1.98213 41.9982 11.535 
-1.70151 41.3397 11.8672 -3.02952 42.0248 11.5513 -2.76374 41.3406 11.9073 
-3.79863 42.0117 11.417 -3.57609 41.4857 11.8086 -4.10694 41.4081 11.4131 
0.838894 41.4849 10.5109 -4.31304 41.4604 10.5284 0.803096 41.435 9.51449 
-4.28879 41.4713 9.48228 0.770863 41.4283 8.49823 -4.24659 41.4332 8.47541 
0.763143 41.4372 7.49486 -4.23246 41.4179 7.50697 0.763621 41.4239 6.49832 
-4.23243 41.4177 6.53117 0.758264 41.4182 5.51405 -4.22683 41.4141 5.52818 
0.756156 41.4192 4.53058 -4.22376 41.4288 4.51992 0.761807 41.4141 3.52559 
-4.22228 41.4324 3.51945 0.764173 41.4301 2.51447 -4.226 41.4328 2.51576 
0.766905 41.4446 1.50743 -4.2437 41.4508 1.49548 0.775831 41.4696 0.490125 
-4.2682 41.4571 0.463544 0.804929 41.5057 -0.533511 -4.28854 41.3138 -0.386658 
0.834916 41.5388 -1.57081 -1.784 42.0494 -1.49046 -2.45841 41.9802 -1.53203 
-3.42363 41.9242 -1.58849 -4.11051 41.5346 -1.2561 0.71425 41.289 -2.48931 
-0.534599 42.0551 -2.70081 -1.0487 41.6442 -2.38054 -1.8629 41.3492 -1.97427 
-3.01335 41.3381 -1.95233 -3.78909 41.2485 -1.86412 0.207808 41.4911 -3.03111 
-0.530913 41.3972 -2.9511 0.176671 40.7329 12.3969 0.20349 40.2483 12.7317 
0.812363 40.516 12.3423 -0.264967 40.3115 12.5396 0.97156 40.6368 11.2212 
-0.466877 40.7479 12.1818 -1.43243 40.6227 12.1124 -2.48051 40.5853 12.1237 
-3.52187 40.5656 11.8532 -4.09134 40.5865 11.169 0.935964 40.5836 10.2128 
-4.13261 40.5944 10.2201 0.905194 40.5743 9.20528 -4.08793 40.5808 9.21832 
0.904688 40.5918 8.20403 -4.10531 40.3861 8.20748 0.911036 40.5823 7.22261 
-4.23072 40.5625 7.35167 0.883397 40.3897 6.20889 -4.23871 40.4105 6.5096 
0.759416 40.5662 5.34874 -4.24136 40.4077 5.49891 0.754854 40.4121 4.5079 
-4.23779 40.4235 4.49665 0.752861 40.4068 3.49871 -4.23509 40.4235 3.50046 
0.754524 40.4206 2.4969 -4.23378 40.4297 2.50017 0.753304 40.4223 1.49806 
-4.23797 40.4566 1.4846 0.757714 40.4383 0.489807 -4.26396 40.4437 0.457473 
0.790729 40.4994 -0.541945 -4.29998 40.4523 -0.561702 0.833462 40.5182 -1.58449 
-4.18052 40.4592 -1.45123 0.708701 40.255 -2.46971 -1.16403 40.7087 -2.56048 
-1.87135 40.1728 -2.19768 -2.76992 40.4329 -2.07531 -3.66633 40.4513 -1.95729 
0.224307 40.5016 -2.99196 -0.508646 40.4882 -2.99211 1.1805 39.8178 13.2406 
1.27006 39.1789 14.0371 1.67573 39.3933 13.4424 0.772873 39.3398 13.5768 
1.44037 39.9556 12.6455 1.73912 39.3734 12.5038 0.480072 39.7639 13.0951 
-1.01813 40.047 12.4774 -0.415014 39.6248 12.9609 -2.01331 39.9601 12.4604 
-1.49578 39.4484 12.9501 -2.9002 39.8984 12.2949 -2.45703 39.4591 12.8865 
-3.07937 39.2104 12.6935 1.35284 40.0214 11.7464 1.68804 39.3531 11.4492 
-3.36912 39.5076 11.6405 -3.77265 40.0612 11.4142 1.30762 39.9833 10.7181 
1.66952 39.3501 10.4291 -3.7563 39.9557 10.7481 -3.33729 39.3503 10.4664 
1.28478 39.9641 9.71495 1.67003 39.3556 9.43244 -3.70198 39.9707 9.73628 
-3.30626 39.3562 9.43137 1.28614 39.9744 8.7163 1.6753 39.3746 8.43347 
-3.70153 39.8912 8.78661 -3.34919 39.1557 8.37628 1.29564 39.9926 7.73006 
1.67672 39.3698 7.4331 -3.77517 39.6125 8.03409 -4.04361 39.6696 7.3008 
1.28369 39.8962 6.79211 1.63822 39.1555 6.37757 -4.08883 39.5515 6.21765 
1.21452 39.6134 6.03724 0.949771 39.6713 5.30112 -4.08954 39.5695 5.20385 
0.9064 39.5526 4.2184 -4.08578 39.5797 4.20681 0.905485 39.5698 3.20561 
-4.0833 39.5802 3.20895 0.907239 39.5778 2.21012 -4.07688 39.5968 2.21047 
0.9048 39.5748 1.21386 -4.07662 39.5907 1.21729 0.909817 39.5964 0.212381 
-4.14564 39.3903 0.16294 0.941506 39.6349 -0.80496 -4.30449 39.5705 -0.758229 
0.956504 39.4722 -1.86235 -4.16595 39.4188 -1.45616 0.71468 39.3463 -2.59946 
-1.25588 39.7691 -2.57384 -1.96268 39.4179 -2.30944 -2.81569 39.3638 -2.19123 
-3.64878 39.4345 -1.94804 0.211382 39.488 -2.96637 -0.723763 39.427 -2.98326 
1.39291 38.7938 14.5957 1.29786 38.1667 14.8254 1.69012 38.6972 14.3116 
0.873463 38.4919 14.5839 1.88628 38.5085 13.5208 0.0351169 39.0517 13.4899 
0.487894 38.7354 14.0277 -0.948794 38.9301 13.4698 -0.427505 38.4439 14.0042 
-1.99185 38.9745 13.471 -1.47185 38.4396 14.0352 -2.75887 38.9887 13.3535 
-2.46613 38.4919 13.9839 -3.1254 38.3533 13.5934 1.88231 38.4455 12.4729 
-3.28179 38.4626 12.5371 1.85193 38.4545 11.4365 -3.23523 38.4717 11.4802 
1.84053 38.4818 10.4304 -3.1776 38.5029 10.442 1.83354 38.4959 9.42886 
-3.16247 38.5028 9.43253 1.83415 38.5231 8.41352 -3.16512 38.3396 8.58572 
1.83859 38.5132 7.40019 -3.61946 39.1363 7.52304 -3.28933 38.4781 7.53929 
1.84543 38.3441 6.56258 -3.69029 38.9653 6.71319 -3.32008 38.342 6.4406 
1.37316 39.1335 5.52613 1.72142 38.4685 5.53872 -3.7046 38.945 5.71146 
-3.31602 38.3448 5.43731 1.30537 38.9608 4.71588 1.69588 38.3236 4.44976 
-3.69914 38.9658 4.71562 -3.31319 38.3518 4.44229 1.29077 38.9412 3.71617 
1.69464 38.3261 3.45128 -3.69724 38.9684 3.71812 -3.31273 38.353 3.44239 
1.29379 38.9629 2.72239 1.68941 38.3349 2.45414 -3.69406 38.9755 2.7186 
-3.30755 38.3704 2.44152 1.29237 38.9649 1.72559 1.68256 38.3406 1.44839 
[...]
CELL_DATA 1516
SCALARS scalars float
LOOKUP_TABLE default
255 255 255 255 255 255 255 255 255 
255 255 255 255 255 255 255 255 255 
255 255 255 255 255 255 255 255 255 
255 255 255 255 255 255 255 255 255 
255 255 255 255 255 255 255 255 255 
255 255 255 255 255 255 255 255 255 
255 255 255 255 255 255 255 255 255 
255 255 255 255 255 255 255 255 255 
255 255 255 255 255 255 255 255 255 
255 255 255 255 255 255 255 255 255 
255 255 255 255 255 255 255 255 255 
255 255 255 255 255 255 255 255 255 
255 255 255 255 255 255 255 255 255 
255 255 255 255 255 255 255 255 255 
255 255 255 255 255 255 255 255 255 
255 255 255 255 255 255 255 255 255 
255 255 255 255 255 255 255 255 255 
255 255 255 255 255 255 255 255 255 
255 255 255 255 255 255 255 255 255 
255 255 255 255 255 255 255 255 255 
255 255 255 255 255 255 255 255 255 
255 255 255 255 255 255 255 255 255 
255 255 255 255 255 255 255 255 255 
255 255 255 255 255 255 255 255 255 
255 255 255 255 255 255 255 255 255 
255 255 255 255 255 255 255 255 255 
255 255 255 255 255 255 255 255 255 
255 255 255 255 255 255 255 255 255 
255 255 255 255 255 255 255 255 255 
255 255 255 255 255 255 255 255 255 
255 255 255 255 255 255 255 255 255 
255 255 255 255 255 255 255 255 255 
255 255 255 255 255 255 255 255 255 
255 255 255 255 255 255 255 255 255 
255 255 255 255 255 255 255 255 255 
255 255 255 255 255 255 255 255 255 
255 255 255 255 255 255 255 255 255 
255 255 255 255 255 255 255 255 255 
255 255 255 255 255 255 255 255 255 
255 255 255 255 255 255 255 255 255 
255 255 255 255 255 255 255 255 255 
255 255 255 255 255 255 255 255 255 
255 255 255 255 255 255 255 255 255 
255 255 255 255 255 255 255 255 255 
255 255 255 255 255 255 255 255 255 
255 255 255 255 255 255 255 255 255 
255 255 255 255 255 255 255 255 255 
255 255 255 255 255 255 255 255 255 
255 255 255 255 255 255 255 255 255 
255 255 255 255 255 255 255 255 255 
255 255 255 255 255 255 255 255 255 
255 255 255 255 255 255 255 255 255 
255 255 255 255 255 255 255 255 255 
255 255 255 255 255 255 255 255 255 
255 255 255 255 255 255 255 255 255 
255 255 255 255 255 255 255 255 255 
255 255 255 255 255 255 255 255 255 
255 255 255 255 255 255 255 255 255 
255 255 255 255 255 255 255 255 255 
255 255 255 255 255 255 255 255 255 
255 255 255 255 255 255 255 255 255 
255 255 255 255 255 255 255 255 255 
255 255 255 255 255 255 255 255 255 
255 255 255 255 255 255 255 255 255 
255 255 255 255 255 255 255 255 255 
255 255 255 255 255 255 255 255 255 
255 255 255 255 255 255 255 255 255 
255 255 255 255 255 255 255 255 255 
255 255 255 255 255 255 255 255 255 
255 255 255 255 255 255 255 255 255 
255 255 255 255 255 255 255 255 255 
255 255 255 255 255 255 255 255 255 
255 255 255 255 255 255 255 255 255 
255 255 255 255 255 255 255 255 255 
255 255 255 255 255 255 255 255 255 
255 255 255 255 255 255 255 255 255 
255 255 255 255 255 255 255 255 255 
255 255 255 255 255 255 255 255 255 
255 255 255 255 255 255 255 255 255 
255 255 255 255 255 255 255 255 255 
255 255 255 255 255 255 255 255 255 
255 255 255 255 255 255 255 255 255 
255 255 255 255 255 255 255 255 255 
255 255 255 255 255 255 255 255 255 
255 255 255 255 255 255 255 255 255 
255 255 255 255 255 255 255 255 255 
255 255 255 255 255 255 255 255 255 
255 255 255 255 255 255 255 255 255 
255 255 255 255 255 255 255 255 255 
255 255 255 255 255 255 255 255 255 
255 255 255 255 255 255 255 255 255 
255 255 255 255 255 255 255 255 255 
255 255 255 255 255 255 255 255 255 
255 255 255 255 255 255 255 255 255 
255 255 255 255 255 255 255 255 255 
255 255 255 255 255 255 255 255 255 
255 255 255 255 255 255 255 255 255 
255 255 255 255 255 255 255 255 255 
255 255 255 255 255 255 255 255 255 
255 255 255 255 255 255 255 255 255 
255 255 255 255 255 255 255 255 255 
255 255 255 255 255 255 255 255 255 
255 255 255 255 255 255 255 255 255 
255 255 255 255 255 255 255 255 255 
255 255 255 255 255 255 255 255 255 
255 255 255 255 255 255 255 255 255 
255 255 255 255 255 255 255 255 255 
255 255 255 255 255 255 255 255 255 
255 255 255 255 255 255 255 255 255 
255 255 255 255 255 255 255 255 255 
255 255 255 255 255 255 255 255 255 
255 255 255 255 255 255 255 255 255 
255 255 255 255 255 255 255 255 255 
255 255 255 255 255 255 255 255 255 
255 255 255 255 255 255 255 255 255 
255 255 255 255 255 255 255 255 255 
255 255 255 255 255 255 255 255 255 
255 255 255 255 255 255 255 255 255 
255 255 255 255 255 255 255 255 255 
255 255 255 255 255 255 255 255 255 
255 255 255 255 255 255 255 255 255 
255 255 255 255 255 255 255 255 255 
255 255 255 255 255 255 255 255 255 
255 255 255 255 255 255 255 255 255 
255 255 255 255 255 255 255 255 255 
255 255 255 255 255 255 255 255 255 
255 255 255 255 255 255 255 255 255 
255 255 255 255 255 255 255 255 255 
255 255 255 255 255 255 255 255 255 
255 255 255 255 255 255 255 255 255 
255 255 255 255 255 255 255 255 255 
255 255 255 255 255 255 255 255 255 
255 255 255 255 255 255 255 255 255 
255 255 255 255 255 255 255 255 255 
255 255 255 255 255 255 255 255 255 
255 255 255 255 255 255 255 255 255 
255 255 255 255 255 255 255 255 255 
255 255 255 255 255 255 255 255 255 
255 255 255 255 255 255 255 255 255 
255 255 255 255 255 255 255 255 255 
255 255 255 255 255 255 255 255 255 
255 255 255 255 255 255 255 255 255 
255 255 255 255 255 255 255 255 255 
255 255 255 255 255 255 255 255 255 
255 255 255 255 255 255 255 255 255 
255 255 255 255 255 255 255 255 255 
255 255 255 255 255 255 255 255 255 
255 255 255 255 255 255 255 255 255 
255 255 255 255 255 255 255 255 255 
255 255 255 255 255 255 255 255 255 
255 255 255 255 255 255 255 255 255 
255 255 255 255 255 255 255 255 255 
255 255 255 255 255 255 255 255 255 
255 255 255 255 255 255 255 255 255 
255 255 255 255 255 255 255 255 255 
255 255 255 255 255 255 255 255 255 
255 255 255 255 255 255 255 255 255 
255 255 255 255 255 255 255 255 255 
255 255 255 255 255 255 255 255 255 
255 255 255 255 255 255 255 255 255 
255 255 255 255 255 255 255 255 255 
255 255 255 255 255 255 255 255 255 
255 255 255 255 255 255 255 255 255 
255 255 255 255 255 255 255 255 255 
255 255 255 255 255 255 255 255 255 
255 255 255 255 255 255 255 255 255 
255 255 255 255 255 255 255 255 255 
255 255 255 255 255 255 255 255 255 
255 255 255 255 
