# vtk DataFile Version 4.2
vtk output
ASCII
DATASET POLYDATA
POINTS 760 float
0.179361 -22.0225 19.0657 0.272571 -21.6265 18.8699 0.398941 -21.9382 18.8854 
0.0270813 -21.8249 18.9081 -2.2933 -22.0414 19.0672 -2.14448 -21.7486 18.913 
-1.97905 -22.0977 18.9539 -2.42073 -21.7871 18.8061 0.211414 -22.4946 19.0984 
0.435498 -22.5102 18.8892 -0.0805939 -22.33 18.9434 -2.2519 -22.5138 19.1123 
-1.92682 -22.6672 18.9482 -2.46996 -22.3361 18.8891 0.220889 -23.1125 19.1003 
0.432724 -23.137 18.8968 -0.0871765 -22.9382 18.9352 -2.2291 -23.1268 19.1065 
-1.93535 -23.2787 18.9445 -2.45612 -22.9606 18.9026 0.224936 -23.7282 19.1093 
0.439005 -23.7544 18.8975 -0.0889618 -23.5573 18.939 -2.19979 -23.6108 19.0679 
-2.04847 -23.801 18.9072 -2.43583 -23.6373 18.8311 0.266327 -24.2021 19.0798 
0.418771 -24.3739 18.7755 -0.0458038 -24.1374 18.962 -2.29612 -24.0096 18.8721 
0.125409 -24.4963 18.9322 -2.31468 -19.6243 18.4652 -2.0969 -19.346 18.1841 
-2.00126 -19.6814 18.3438 -2.41815 -19.4866 18.2099 -2.27145 -20.0957 18.4983 
-1.94873 -20.2588 18.3357 -2.4894 -19.9237 18.2854 0.0670258 -20.8424 18.4595 
0.284967 -20.4418 18.2279 0.409955 -20.7221 18.2572 -0.0249207 -20.6013 18.2804 
-2.18939 -20.7864 18.5016 -1.85272 -20.7684 18.351 -2.47154 -20.5395 18.2776 
0.118378 -21.3142 18.6412 0.458414 -21.3032 18.3872 -0.338141 -20.9097 18.3598 
-0.472385 -21.322 18.5351 -1.19084 -21.3909 18.5024 -0.852557 -21.0346 18.2952 
-1.77519 -21.2009 18.5313 -1.44091 -20.9899 18.2846 -2.16272 -21.4103 18.6859 
-2.47172 -21.2499 18.3491 0.515799 -21.8864 18.3542 -0.388477 -21.9614 18.6854 
-1.01298 -21.8886 18.5903 -1.67593 -21.7222 18.6991 -2.54197 -21.9101 18.3526 
0.513519 -22.5006 18.3527 -0.479892 -22.6645 18.6739 -0.990793 -22.4876 18.5725 
-1.52807 -22.3104 18.6922 -2.53892 -22.5319 18.367 0.509189 -23.1173 18.3661 
-0.490448 -23.2712 18.668 -1.01196 -23.0941 18.5598 -1.52617 -22.9216 18.6751 
-2.53226 -23.1513 18.3551 0.515488 -23.7324 18.3648 -0.493854 -23.8874 18.7005 
-1.04098 -23.7133 18.5808 -1.63683 -23.644 18.6789 -2.53656 -23.6663 18.2545 
0.52403 -24.2481 18.2704 -0.3479 -24.5073 18.7299 -1.01498 -24.3392 18.6188 
-1.63146 -24.3323 18.6199 -2.15345 -24.331 18.6549 -2.4828 -24.2007 18.3892 
0.138382 -24.793 18.6771 0.437796 -24.9072 18.2549 -0.272379 -24.9261 18.5687 
-0.825384 -24.8498 18.5604 -1.47619 -24.8615 18.5549 -2.05644 -24.8976 18.522 
-2.43288 -24.7836 18.272 0.0259277 -25.1841 18.2604 -0.541891 -25.1215 18.2572 
-1.179 -25.1347 18.2598 -1.81572 -25.1839 18.2638 -2.2668 -25.1362 18.2031 
0.0934113 -19.0417 17.8752 0.291724 -18.6312 17.644 0.433548 -18.9128 17.6594 
-0.0112061 -18.7884 17.6939 0.14512 -19.5046 17.9441 0.458697 -19.47 17.6572 
-0.310382 -19.0975 17.7746 -0.457617 -19.5261 17.9262 -1.17869 -19.5738 17.907 
-0.82966 -19.1983 17.707 -1.69224 -19.4756 18.0626 -1.55338 -19.1868 17.7759 
-2.1566 -19.187 17.8183 -2.49066 -19.4626 17.723 0.13569 -20.1274 18.0337 
0.468549 -20.1116 17.7594 -0.405972 -20.1258 18.0095 -1.02925 -20.1059 17.9825 
-1.57344 -19.9261 18.0935 -2.55402 -20.1124 17.7486 0.520221 -20.6715 17.7235 
-0.429904 -20.6339 18.1404 -1.00865 -20.6518 18.0714 -1.54634 -20.5106 18.1222 
-2.53996 -20.7205 17.7357 0.516458 -21.2786 17.7181 -2.53598 -21.3265 17.7259 
0.508154 -21.8903 17.712 -2.5308 -21.9327 17.7221 0.502121 -22.4985 17.716 
-2.52436 -22.539 17.7265 0.502972 -23.1078 17.73 -2.52755 -23.1437 17.7203 
0.511047 -23.7148 17.7438 -2.53892 -23.7518 17.7268 0.518738 -24.3244 17.7523 
-2.55135 -24.3647 17.7408 0.517877 -24.8538 17.6684 -2.48185 -24.8975 17.7351 
0.274274 -25.4566 18.0142 0.445468 -25.5296 17.6477 -0.0789368 -25.5897 17.6786 
-0.457507 -25.2972 17.6867 -1.01364 -25.2008 17.7334 -1.64854 -25.2389 17.742 
-2.18698 -25.1959 17.7409 0.195584 -25.8133 17.6788 0.0489441 -18.377 17.3944 
0.243924 -17.9634 17.0418 0.441449 -18.3234 17.1655 -0.536572 -18.376 17.3301 
-0.194632 -17.975 17.122 -1.16477 -18.3701 17.3184 -0.806763 -17.9773 17.1195 
-1.79129 -18.3799 17.339 -1.45403 -17.9675 17.1284 -2.25357 -18.4268 17.2776 
-2.05415 -18.0048 17.1292 -2.45386 -18.1329 16.9574 0.52543 -18.8429 17.1138 
-0.416693 -18.8072 17.5407 -1.0074 -18.8147 17.4792 -1.64833 -18.8078 17.4989 
-2.18822 -18.8628 17.4742 -2.50699 -18.8087 17.1129 0.508374 -19.4535 17.1002 
-2.56214 -19.5002 17.1156 0.495538 -20.0612 17.0953 -2.54366 -20.1059 17.1051 
0.488342 -20.664 17.0864 -2.52622 -20.6971 17.0942 0.481146 -21.2717 17.0856 
-2.51692 -21.2964 17.0911 0.481293 -21.8797 17.0858 -2.51186 -21.8984 17.0951 
0.483774 -22.4885 17.0899 -2.51115 -22.5017 17.0997 0.486053 -23.0975 17.1012 
-2.51633 -23.1112 17.1013 0.491565 -23.7085 17.1192 -2.53369 -23.7295 17.1072 
0.501498 -24.3157 17.134 -2.54757 -24.3492 17.1184 0.509299 -24.9307 17.1439 
-2.48436 -24.9457 17.0589 0.516302 -25.4567 17.0663 -0.386563 -25.5058 17.3945 
-0.706064 -25.5471 17.0292 -1.03107 -25.3041 17.1923 -1.60034 -25.3013 17.2033 
-2.15478 -25.2901 17.1723 0.252283 -26.0782 17.4075 0.411447 -26.0398 17.0467 
-0.0556549 -26.0505 17.2918 -0.390244 -25.8217 17.1161 0.0458313 -26.3284 16.9723 
0.0368683 -17.6684 16.7796 0.139142 -17.3842 16.368 0.42215 -17.7375 16.5574 
-0.5353 -17.68 16.8254 -0.380264 -17.4659 16.4422 -1.17867 -17.6583 16.8197 
-1.01035 -17.4589 16.4246 -1.8071 -17.6483 16.8358 -1.64768 -17.4348 16.4253 
-2.26859 -17.7288 16.8281 -2.13508 -17.4938 16.5124 -2.45367 -17.731 16.466 
0.513702 -18.2731 16.5113 -2.57746 -18.2618 16.4973 0.492059 -18.871 16.4813 
-2.56307 -18.8895 16.5039 0.472559 -19.4807 16.4773 -2.53791 -19.4936 16.4811 
0.46777 -20.0828 16.4827 -2.52959 -20.0747 16.4718 0.467899 -20.6807 16.4747 
-2.52973 -20.6602 16.4717 0.464529 -21.2712 16.4713 -2.52653 -21.262 16.4696 
0.46311 -21.8613 16.4719 -2.52484 -21.8669 16.4784 0.466342 -22.4643 16.4688 
-2.52411 -22.4672 16.4806 0.467606 -23.071 16.4784 -2.5265 -23.0694 16.4808 
0.469089 -23.6752 16.4871 -2.53727 -23.6816 16.4916 0.474289 -24.2856 16.5021 
-2.55213 -24.3008 16.4954 0.491592 -24.8998 16.5238 -2.56449 -24.8109 16.4094 
0.509427 -25.5222 16.5436 -1.06183 -25.4735 16.8504 -1.46649 -25.4984 16.8089 
-2.04565 -25.5321 16.7755 -2.45778 -25.3326 16.5419 0.436844 -26.0732 16.3937 
-0.312378 -26.1999 16.8536 -0.620856 -26.0077 16.6072 -1.10935 -25.7638 16.4303 
-1.79962 -25.7505 16.4238 -2.26507 -25.6974 16.3701 0.132925 -26.3982 16.5151 
-0.310309 -26.3501 16.4589 0.116547 -17.1414 16.0601 0.132614 -16.9405 15.7694 
0.497919 -17.1743 15.9299 -0.14848 -17.0557 15.8074 0.59328 -17.847 16.0024 
-0.269614 -17.2704 16.0693 -0.848978 -17.3119 15.9943 -1.47783 -17.3049 15.972 
-2.10269 -17.4671 15.9604 -2.44448 -17.8775 15.973 0.571756 -18.452 15.9705 
-2.46939 -18.4468 15.9777 0.553134 -19.0565 15.9649 -2.44274 -19.0479 15.9696 
0.552676 -19.6573 15.9754 -2.45336 -19.6544 15.8528 0.556329 -20.2461 15.9697 
-2.5287 -20.1679 15.9586 0.539557 -20.8544 15.8541 -2.53366 -20.6731 15.8674 
0.46506 -21.3704 15.9601 -2.53541 -21.2795 15.8658 0.462167 -21.8749 15.8676 
-2.53342 -21.8809 15.8752 0.460812 -22.4804 15.8644 -2.53196 -22.4786 15.8752 
0.461655 -23.0815 15.8727 -2.53132 -23.0788 15.8789 0.460767 -23.6808 15.8737 
-2.534 -23.6881 15.8951 0.463257 -24.2858 15.8833 -2.54975 -24.3044 15.8873 
0.482913 -24.9048 15.92 -2.57152 -24.9159 15.8925 0.508392 -25.5304 15.9313 
-2.49998 -25.4496 15.8966 0.433356 -26.0615 15.7734 -0.690225 -26.1157 16.0458 
-1.11465 -25.8979 15.7245 -1.65373 -25.8243 15.8806 -2.19155 -25.7533 15.8918 
0.142676 -26.3748 15.9214 -0.297098 -26.3747 15.9135 0.718835 -16.6354 15.511 
0.772595 -16.1575 15.1276 1.01593 -16.5144 15.2562 0.474234 -16.4336 15.2242 
0.874686 -16.9925 15.5936 1.05382 -17.0775 15.2442 0.298544 -16.7226 15.4787 
-0.60043 -17.093 15.6488 -0.23855 -16.8029 15.3954 -1.19756 -17.103 15.5968 
-0.887036 -16.8092 15.2898 -1.72972 -17.2021 15.56 -1.4638 -16.8473 15.2963 
-1.83727 -16.963 15.1472 0.822034 -17.5319 15.6331 1.023 -17.7103 15.2321 
-2.01124 -17.5947 15.3256 -2.2533 -17.7304 15.6578 0.794733 -18.1489 15.6102 
1.01173 -18.3224 15.2302 -2.24362 -18.1301 15.5945 -1.99235 -18.2992 15.2312 
0.780872 -18.7508 15.5987 1.01188 -18.9203 15.2336 -2.21118 -18.7372 15.6035 
-1.9739 -18.9202 15.2347 0.781531 -19.35 15.6049 1.01489 -19.5197 15.2449 
-2.21107 -19.307 15.5557 -1.99985 -19.5532 15.1144 0.787079 -19.9417 15.6158 
1.01559 -20.1199 15.2421 -2.25542 -19.7585 15.3886 -2.41659 -20.1984 15.4228 
0.779745 -20.5045 15.558 0.992285 -20.7533 15.1135 -2.44391 -20.8483 15.352 
0.73808 -20.9574 15.3883 0.579126 -21.399 15.4231 -2.44449 -21.4566 15.3628 
0.552914 -22.0486 15.3519 -2.44239 -22.0548 15.3689 0.552209 -22.6563 15.3622 
-2.44106 -22.6535 15.3692 0.553107 -23.2536 15.367 -2.43736 -23.2526 15.3792 
0.551486 -23.8514 15.3652 -2.43736 -23.8485 15.3755 0.554343 -24.4523 15.3782 
-2.47897 -24.4811 15.2553 0.573202 -25.0627 15.4013 -2.5744 -25.0338 15.3635 
0.58201 -25.6971 15.3036 -2.49141 -25.4526 15.2724 0.43678 -26.1393 15.2281 
-0.745486 -26.1237 15.4821 -1.16958 -25.9649 15.2715 -1.68138 -25.8938 15.2392 
-2.18118 -25.7478 15.2818 0.134766 -26.3594 15.3132 -0.426334 -26.3694 15.2768 
0.846332 -15.8223 14.8965 0.78924 -15.6845 14.5203 1.02459 -15.9928 14.8385 
0.534613 -15.8293 14.7155 1.14214 -16.4674 14.7253 0.0315216 -16.4856 15.0515 
0.303223 -16.163 14.8616 -0.558847 -16.4975 14.9787 -0.246066 -16.1769 14.6869 
-1.18467 -16.4966 15.0055 -0.872671 -16.1582 14.6845 -1.6449 -16.567 15.0141 
-1.46924 -16.1888 14.716 -1.86488 -16.423 14.6329 1.13958 -17.0961 14.6875 
-1.95886 -17.0568 14.6985 1.12119 -17.7179 14.6929 -1.93109 -17.6909 14.704 
1.1142 -18.3216 14.7093 -1.89667 -18.3138 14.7227 1.10985 -18.9225 14.7177 
-1.88775 -18.9195 14.7226 1.11006 -19.5317 14.734 -1.8895 -19.4276 14.6247 
1.11257 -20.1397 14.7281 -2.16215 -20.0652 15.1028 -1.96417 -20.0555 14.7078 
1.11651 -20.6423 14.6267 -2.2048 -20.5511 15.0002 -1.98281 -20.7147 14.6262 
0.833112 -21.2641 15.1004 1.04196 -21.2566 14.7013 -2.21354 -21.1521 14.988 
-1.98053 -21.3166 14.6279 0.792279 -21.7502 14.9967 1.02644 -21.91 14.6144 
[...]
CELL_DATA 1516
SCALARS scalars float
LOOKUP_TABLE default
255 255 255 255 255 255 255 255 255 
255 255 255 255 255 255 255 255 255 
255 255 255 255 255 255 255 255 255 
255 255 255 255 255 255 255 255 255 
255 255 255 255 255 255 255 255 255 
255 255 255 255 255 255 255 255 255 
255 255 255 255 255 255 255 255 255 
255 255 255 255 255 255 255 255 255 
255 255 255 255 255 255 255 255 255 
255 255 255 255 255 255 255 255 255 
255 255 255 255 255 255 255 255 255 
255 255 255 255 255 255 255 255 255 
255 255 255 255 255 255 255 255 255 
255 255 255 255 255 255 255 255 255 
255 255 255 255 255 255 255 255 255 
255 255 255 255 255 255 255 255 255 
255 255 255 255 255 255 255 255 255 
255 255 255 255 255 255 255 255 255 
255 255 255 255 255 255 255 255 255 
255 255 255 255 255 255 255 255 255 
255 255 255 255 255 255 255 255 255 
255 255 255 255 255 255 255 255 255 
255 255 255 255 255 255 255 255 255 
255 255 255 255 255 255 255 255 255 
255 255 255 255 255 255 255 255 255 
255 255 255 255 255 255 255 255 255 
255 255 255 255 255 255 255 255 255 
255 255 255 255 255 255 255 255 255 
255 255 255 255 255 255 255 255 255 
255 255 255 255 255 255 255 255 255 
255 255 255 255 255 255 255 255 255 
255 255 255 255 255 255 255 255 255 
255 255 255 255 255 255 255 255 255 
255 255 255 255 255 255 255 255 255 
255 255 255 255 255 255 255 255 255 
255 255 255 255 255 255 255 255 255 
255 255 255 255 255 255 255 255 255 
255 255 255 255 255 255 255 255 255 
255 255 255 255 255 255 255 255 255 
255 255 255 255 255 255 255 255 255 
255 255 255 255 255 255 255 255 255 
255 255 255 255 255 255 255 255 255 
255 255 255 255 255 255 255 255 255 
255 255 255 255 255 255 255 255 255 
255 255 255 255 255 255 255 255 255 
255 255 255 255 255 255 255 255 255 
255 255 255 255 255 255 255 255 255 
255 255 255 255 255 255 255 255 255 
255 255 255 255 255 255 255 255 255 
255 255 255 255 255 255 255 255 255 
255 255 255 255 255 255 255 255 255 
255 255 255 255 255 255 255 255 255 
255 255 255 255 255 255 255 255 255 
255 255 255 255 255 255 255 255 255 
255 255 255 255 255 255 255 255 255 
255 255 255 255 255 255 255 255 255 
255 255 255 255 255 255 255 255 255 
255 255 255 255 255 255 255 255 255 
255 255 255 255 255 255 255 255 255 
255 255 255 255 255 255 255 255 255 
255 255 255 255 255 255 255 255 255 
255 255 255 255 255 255 255 255 255 
255 255 255 255 255 255 255 255 255 
255 255 255 255 255 255 255 255 255 
255 255 255 255 255 255 255 255 255 
255 255 255 255 255 255 255 255 255 
255 255 255 255 255 255 255 255 255 
255 255 255 255 255 255 255 255 255 
255 255 255 255 255 255 255 255 255 
255 255 255 255 255 255 255 255 255 
255 255 255 255 255 255 255 255 255 
255 255 255 255 255 255 255 255 255 
255 255 255 255 255 255 255 255 255 
255 255 255 255 255 255 255 255 255 
255 255 255 255 255 255 255 255 255 
255 255 255 255 255 255 255 255 255 
255 255 255 255 255 255 255 255 255 
255 255 255 255 255 255 255 255 255 
255 255 255 255 255 255 255 255 255 
255 255 255 255 255 255 255 255 255 
255 255 255 255 255 255 255 255 255 
255 255 255 255 255 255 255 255 255 
255 255 255 255 255 255 255 255 255 
255 255 255 255 255 255 255 255 255 
255 255 255 255 255 255 255 255 255 
255 255 255 255 255 255 255 255 255 
255 255 255 255 255 255 255 255 255 
255 255 255 255 255 255 255 255 255 
255 255 255 255 255 255 255 255 255 
255 255 255 255 255 255 255 255 255 
255 255 255 255 255 255 255 255 255 
255 255 255 255 255 255 255 255 255 
255 255 255 255 255 255 255 255 255 
255 255 255 255 255 255 255 255 255 
255 255 255 255 255 255 255 255 255 
255 255 255 255 255 255 255 255 255 
255 255 255 255 255 255 255 255 255 
255 255 255 255 255 255 255 255 255 
255 255 255 255 255 255 255 255 255 
255 255 255 255 255 255 255 255 255 
255 255 255 255 255 255 255 255 255 
255 255 255 255 255 255 255 255 255 
255 255 255 255 255 255 255 255 255 
255 255 255 255 255 255 255 255 255 
255 255 255 255 255 255 255 255 255 
255 255 255 255 255 255 255 255 255 
255 255 255 255 255 255 255 255 255 
255 255 255 255 255 255 255 255 255 
255 255 255 255 255 255 255 255 255 
255 255 255 255 255 255 255 255 255 
255 255 255 255 255 255 255 255 255 
255 255 255 255 255 255 255 255 255 
255 255 255 255 255 255 255 255 255 
255 255 255 255 255 255 255 255 255 
255 255 255 255 255 255 255 255 255 
255 255 255 255 255 255 255 255 255 
255 255 255 255 255 255 255 255 255 
255 255 255 255 255 255 255 255 255 
255 255 255 255 255 255 255 255 255 
255 255 255 255 255 255 255 255 255 
255 255 255 255 255 255 255 255 255 
255 255 255 255 255 255 255 255 255 
255 255 255 255 255 255 255 255 255 
255 255 255 255 255 255 255 255 255 
255 255 255 255 255 255 255 255 255 
255 255 255 255 255 255 255 255 255 
255 255 255 255 255 255 255 255 255 
255 255 255 255 255 255 255 255 255 
255 255 255 255 255 255 255 255 255 
255 255 255 255 255 255 255 255 255 
255 255 255 255 255 255 255 255 255 
255 255 255 255 255 255 255 255 255 
255 255 255 255 255 255 255 255 255 
255 255 255 255 255 255 255 255 255 
255 255 255 255 255 255 255 255 255 
255 255 255 255 255 255 255 255 255 
255 255 255 255 255 255 255 255 255 
255 255 255 255 255 255 255 255 255 
255 255 255 255 255 255 255 255 255 
255 255 255 255 255 255 255 255 255 
255 255 255 255 255 255 255 255 255 
255 255 255 255 255 255 255 255 255 
255 255 255 255 255 255 255 255 255 
255 255 255 255 255 255 255 255 255 
255 255 255 255 255 255 255 255 255 
255 255 255 255 255 255 255 255 255 
255 255 255 255 255 255 255 255 255 
255 255 255 255 255 255 255 255 255 
255 255 255 255 255 255 255 255 255 
255 255 255 255 255 255 255 255 255 
255 255 255 255 255 255 255 255 255 
255 255 255 255 255 255 255 255 255 
255 255 255 255 255 255 255 255 255 
255 255 255 255 255 255 255 255 255 
255 255 255 255 255 255 255 255 255 
255 255 255 255 255 255 255 255 255 
255 255 255 255 255 255 255 255 255 
255 255 255 255 255 255 255 255 255 
255 255 255 255 255 255 255 255 255 
255 255 255 255 255 255 255 255 255 
255 255 255 255 255 255 255 255 255 
255 255 255 255 255 255 255 255 255 
255 255 255 255 255 255 255 255 255 
255 255 255 255 255 255 255 255 255 
255 255 255 255 255 255 255 255 255 
255 255 255 255 255 255 255 255 255 
255 255 255 255 255 255 255 255 255 
255 255 255 255 255 255 255 255 255 
255 255 255 255 
