# vtk DataFile Version 4.2
vtk output
ASCII
DATASET POLYDATA
POINTS 810 float
-2.11819 22.2576 24.799 -2.31685 22.7523 24.1975 -2.65651 22.2705 24.5922 
-1.78776 22.6114 24.3754 -2.27496 21.4963 24.9526 -2.78306 21.5024 24.4593 
-1.44782 22.1834 24.6429 -1.27829 21.4781 24.9538 -0.0610376 21.3385 24.9201 
-0.58873 22.0002 24.5588 1.00309 21.3271 24.9514 0.481521 22.0023 24.553 
1.77987 21.2301 24.8441 1.47222 21.9398 24.5717 2.11006 21.6685 24.2991 
-2.40908 20.7156 24.8165 -2.70585 20.3812 24.2096 -1.65287 20.6137 24.9298 
-0.598315 20.6014 24.8982 0.48299 20.6051 24.9172 1.45399 20.5656 24.8752 
2.1232 20.604 24.3385 -2.0175 19.9807 24.5551 -1.05433 19.9374 24.5388 
-0.00153396 19.9532 24.5342 1.02666 19.9161 24.5605 1.77734 19.9024 24.4196 
-2.2734 22.8914 23.2418 -2.76619 22.3884 23.8222 -1.00792 22.5197 24.0913 
-1.43242 22.8976 23.54 -0.00226305 22.5095 23.9735 -0.299824 22.8624 23.3302 
1.03074 22.5289 24.0056 0.75276 22.8849 23.3166 1.79499 22.3711 24.0268 
1.5632 22.7714 23.4887 2.09904 22.3652 23.46 -2.8964 21.4854 23.5432 
2.30708 21.4549 23.5275 -2.87889 20.5872 23.3621 2.28995 20.5577 23.3965 
-2.23188 19.3116 24.1227 -2.76532 19.4938 23.542 -1.33083 19.2746 24.1692 
-0.287573 19.3057 24.1418 0.753777 19.2732 24.1662 1.64548 19.244 24.0615 
2.16645 19.6553 23.6055 -2.38568 18.626 23.8087 -2.6865 18.5076 23.2337 
-1.64319 18.537 23.8888 -0.589047 18.5716 23.8598 0.490898 18.5734 23.8738 
1.44237 18.5312 23.82 2.06939 18.7043 23.4112 -2.13609 18.1239 23.5412 
-1.2071 17.9079 23.4447 0.0171128 17.9232 23.5335 1.08417 17.9036 23.3631 
1.81547 18.1255 23.281 -2.36964 23.0983 22.3978 -2.76324 22.5133 22.6185 
-1.63227 23.1395 22.6199 -0.605132 23.1286 22.6192 0.474848 23.143 22.5802 
1.54874 23.0024 22.7037 2.18337 22.5307 22.4622 -2.86384 21.4784 22.4935 
2.27867 21.4128 22.5157 -2.85719 20.422 22.5335 2.25338 20.3804 22.5149 
-2.88483 19.3778 22.5411 2.26485 19.3715 22.5285 -2.74906 18.532 22.2767 
2.16368 18.5024 22.5261 -2.18386 17.8833 22.8093 -1.27772 17.3493 22.9225 
-1.77914 17.4304 22.2127 -0.453667 17.4174 23.2227 0.417828 17.243 23.0033 
1.11309 17.4646 22.6352 1.68867 17.8874 22.4306 -1.1797 16.9259 22.5346 
-0.743564 16.2538 22.2458 -0.423837 16.7361 22.851 0.213979 16.4086 22.4121 
0.709161 16.9881 22.1989 -0.215332 15.9655 22.431 -2.01783 23.4859 21.8953 
-2.23381 23.9984 21.2389 -2.68176 23.4184 21.5364 -1.03408 23.4544 21.9583 
-1.358 23.8254 21.3281 0.0239153 23.4704 21.9411 -0.304487 23.8046 21.3058 
1.04593 23.4915 21.9577 0.596348 23.8103 21.4231 1.79852 23.3575 21.9709 
1.44874 23.9516 21.3015 2.12516 23.5868 21.3628 -2.83676 22.5321 21.4512 
2.26515 22.496 21.4893 -2.81082 21.4873 21.4522 2.22489 21.4349 21.4809 
-2.83799 20.4342 21.5129 2.23378 20.4057 21.4711 -2.85896 19.431 21.5083 
2.27606 19.3942 21.4957 -2.65684 18.7003 21.3083 2.14134 18.5256 21.5025 
-2.20428 18.0493 21.5278 -1.66423 17.5445 21.4173 1.15816 17.4428 21.8318 
1.55534 17.9251 21.2041 -1.31174 17.0148 21.8391 -0.919774 16.6461 21.3235 
0.332595 16.5511 21.4911 0.640692 17.1133 21.4203 -0.360811 15.4989 22.015 
-0.641069 15.4457 21.3678 0.0590058 15.59 21.5219 -0.221579 14.9292 21.4577 
-2.22558 24.4646 20.7703 -2.31113 24.7678 20.1921 -2.66428 24.2686 20.704 
-1.77767 24.61 20.3618 1.85153 24.3809 20.8749 1.54297 24.7939 20.1979 
1.33473 24.4632 20.6293 2.10505 24.4449 20.3944 -2.8472 23.5363 20.4807 
-1.58518 24.2116 20.7602 -0.613595 24.1054 20.613 0.528958 24.1705 20.6868 
2.29153 23.5701 20.4621 -2.79487 22.5366 20.3984 2.2601 22.5301 20.4503 
-2.76281 21.5233 20.4306 2.2225 21.5087 20.4311 -2.79882 20.493 20.4728 
2.25946 20.4853 20.4302 -2.70526 19.4832 20.3856 2.2932 19.4515 20.4809 
-2.41661 18.7917 20.5775 -2.34583 18.4488 20.9812 -1.93613 18.4086 20.3119 
2.0724 18.58 20.5472 -1.48604 17.8467 20.6631 -1.22932 17.3319 21.0772 
-0.980081 17.3604 20.4178 0.863372 17.5073 21.0604 0.395809 17.1923 20.6634 
0.826578 17.7737 20.366 1.46603 18.1587 20.2739 -0.796972 16.4951 20.4797 
0.193953 16.453 20.4772 -0.802809 15.6372 20.3743 0.20001 15.6093 20.326 
-0.285779 14.2856 21.0308 -0.703501 14.5237 20.5668 0.105781 14.6719 20.6019 
-0.303267 13.3629 20.8376 -0.689509 13.4109 20.4536 0.0847001 13.6375 20.4362 
-0.298959 12.3767 20.8512 -0.685539 12.4099 20.4755 0.0859856 12.646 20.4505 
-0.295458 11.3793 20.8836 -0.684436 11.4038 20.5051 0.0900067 11.6489 20.4871 
-0.310853 10.3796 20.8949 -0.693198 10.4 20.5044 0.0881108 10.629 20.5007 
-0.379848 9.59447 20.8285 -0.648139 9.32843 20.2916 0.0463756 9.55078 20.4036 
-0.219266 8.93303 20.4898 -2.41871 24.9278 19.2344 -2.88384 24.3469 19.7326 
-1.00682 24.5036 20.0629 -1.382 24.8999 19.5236 -0.000383022 24.5145 19.9396 
-0.255494 24.8694 19.2958 0.848794 24.6219 20.1042 0.873687 24.9298 19.4119 
1.77766 24.9141 19.5894 2.17429 24.4383 19.4584 -2.93314 23.2647 19.3887 
2.28652 23.5303 19.4332 -2.76181 22.3547 19.5567 2.24278 22.5101 19.4248 
-2.76593 21.4966 19.4502 2.23455 21.496 19.415 -2.79044 20.4775 19.4481 
2.2781 20.4505 19.4317 -2.67335 19.5982 19.217 2.19244 19.3684 19.5364 
-2.31813 18.9784 19.7323 -1.80022 18.5067 19.1813 1.85342 18.5986 19.9126 
1.33643 18.4161 19.6379 1.60702 18.8852 19.1412 -1.28205 18.0033 19.6709 
-0.900968 17.3679 19.4617 0.297432 17.477 19.5463 0.777705 18.1362 19.5381 
-0.801563 16.491 19.4425 0.198298 16.4847 19.3834 -0.839923 15.4876 19.4541 
0.248396 15.4594 19.4294 -0.865065 14.4709 19.4983 0.264566 14.4532 19.4843 
-0.86409 13.4707 19.4997 0.264671 13.4479 19.4909 -0.863065 12.4599 19.5302 
0.264737 12.4406 19.5266 -0.864285 11.4443 19.5581 0.266798 11.4349 19.5467 
-0.864997 10.4286 19.5419 0.265416 10.4229 19.5332 -0.869364 9.58951 19.3775 
0.264881 9.59061 19.3698 -0.285369 8.28992 20.0793 -0.729151 8.50411 19.5908 
0.131583 8.68692 19.6419 -0.317934 7.37295 19.8748 -0.712942 7.40525 19.4776 
0.0981534 7.6524 19.4625 -0.381403 6.58919 19.8131 -0.655548 6.33148 19.2921 
0.0533068 6.56958 19.3748 -0.216329 5.92797 19.5019 -3.23456 24.5748 19.0368 
-3.13189 24.8309 18.3494 -3.64214 24.2891 18.5191 -2.14425 25.0017 18.3159 
-1.29545 25.0009 18.4732 -0.287967 25.0046 18.4517 0.585453 25.0313 18.5678 
1.55578 24.8773 18.6094 2.08149 24.195 18.5641 -3.35874 23.8763 18.9121 
-3.69437 23.4378 18.1385 2.11971 23.2363 18.5766 -3.25339 23.0837 18.5799 
-2.95449 22.3018 18.6764 2.08066 22.2141 18.5755 -2.93246 21.1999 18.6007 
2.09766 21.1925 18.5648 -2.9322 20.1648 18.4102 2.14532 20.1651 18.6116 
-2.69604 19.2744 18.2511 2.03298 19.4152 18.7123 -2.32233 18.9236 18.7969 
-1.92572 18.5039 18.5336 0.897391 18.5521 19.05 0.240142 18.2038 18.6115 
0.646354 18.8182 18.3187 1.46456 19.1496 18.2808 -1.23876 18.0241 18.3133 
-0.794517 17.2857 18.631 0.0495681 17.2958 18.5035 -0.653423 16.4089 18.2711 
0.106964 16.2647 18.2814 -0.847055 15.3369 18.5346 0.258947 15.3351 18.5307 
-0.861273 14.5058 18.3836 0.267343 14.5056 18.3848 -0.861066 13.4982 18.3749 
0.268103 13.498 18.3873 -0.863142 12.4751 18.4038 0.264778 12.4936 18.4055 
-0.866744 11.4585 18.4245 0.266225 11.4847 18.4156 -0.874818 10.4591 18.426 
0.270431 10.4749 18.4111 -0.874764 9.46819 18.4581 0.263096 9.46751 18.4447 
-0.864995 8.4558 18.4893 0.25626 8.4501 18.4708 -0.870675 7.4435 18.4981 
0.267792 7.43438 18.4806 -0.880293 6.61307 18.3739 0.278531 6.60765 18.361 
-0.299931 5.2899 19.0907 -0.740791 5.50977 18.5702 0.137934 5.68408 18.6344 
-0.387943 4.5842 18.8094 -0.677376 4.32163 18.2388 0.0729674 4.59245 18.3473 
-0.208639 3.95386 18.4404 -3.2712 24.8678 17.2434 -3.75265 24.334 17.7565 
-2.35359 24.9773 17.4715 -1.30091 24.9736 17.4672 -0.415347 24.9832 17.5998 
0.680727 25.0177 17.5252 1.61973 24.5288 17.9295 1.27996 24.5801 17.2831 
-3.88503 23.6263 17.3272 1.76246 23.7643 17.9476 1.36639 23.4835 17.3529 
-3.38493 22.543 18.1131 -3.72887 22.5468 17.4586 1.71852 22.7355 17.9687 
1.31576 22.4351 17.3547 -3.30947 21.7052 17.9897 -3.68468 21.4137 17.3578 
1.69569 21.7151 17.9566 1.3273 21.4197 17.3354 -3.30308 20.7497 17.9124 
-3.62036 20.5313 17.1682 1.74309 20.6908 17.9528 1.37161 20.3999 17.3602 
-3.25345 20.0862 17.5929 -2.97516 19.5495 17.4844 1.7695 19.7526 18.0588 
1.23601 19.5568 17.5109 -2.24017 18.5586 18.0976 -2.64205 18.6922 17.2873 
-0.308996 18.4613 17.9865 -0.727825 18.3628 17.541 -0.18371 18.8118 17.3898 
0.591103 19.1285 17.4296 -2.0361 17.9914 17.628 -1.46147 17.491 17.8358 
-1.79976 17.3042 17.4068 -0.420666 17.6214 18.1641 -0.991421 17.534 17.4914 
-1.29702 16.7691 17.7043 -1.60195 16.3652 17.2296 -0.968357 16.37 17.228 
-0.222544 16.8348 17.9651 -1.25129 16.1187 17.586 -0.287747 16.0777 17.5467 
-0.68292 15.4654 17.6325 0.0441877 15.3801 17.526 -0.688466 14.5382 17.4225 
0.0924951 14.3011 17.4313 -0.680991 13.5352 17.428 0.0904926 13.2833 17.444 
-0.686134 12.5174 17.4504 0.0871961 12.2827 17.4506 -0.690546 11.51 17.4598 
0.0869191 11.2738 17.4593 -0.699226 10.5096 17.4756 0.0871924 10.2513 17.4853 
-0.707923 9.51112 17.4844 0.102985 9.25579 17.4892 -0.685536 8.39488 17.2696 
0.132732 8.23619 17.3113 -0.880085 7.33196 17.5784 0.278231 7.31565 17.5577 
-0.876035 6.48815 17.4533 0.277049 6.48644 17.428 -0.872511 5.44751 17.4405 
0.274676 5.46484 17.4253 -0.880176 4.58926 17.2882 0.27487 4.62207 17.2631 
-0.275331 3.32605 18.0338 -0.74197 3.50468 17.5243 0.148355 3.72095 17.5617 
-0.313356 2.42572 17.8264 -0.732644 2.41594 17.4005 0.119783 2.69632 17.3921 
-0.391851 1.65953 17.7602 -0.669845 1.38197 17.1874 0.0666983 1.6252 17.2992 
-0.214299 1.02458 17.4077 0.844364 25.3545 16.8441 0.494017 25.773 16.1729 
0.332752 25.4368 16.5868 1.05277 25.406 16.3865 -3.39672 25.099 16.4103 
-3.79215 24.5015 16.6024 -2.65086 25.1392 16.6092 -1.60192 25.1048 16.6037 
-0.436313 25.1556 16.6696 1.2362 24.499 16.4877 -3.87421 23.4741 16.4699 
1.19485 23.4374 16.5111 -3.84197 22.392 16.5157 1.16397 22.4122 16.5019 
-3.84607 21.3707 16.4998 1.19428 21.387 16.4974 -3.70353 20.5465 16.2424 
1.10343 20.3266 16.5624 -3.34072 19.9072 16.787 -2.97119 19.3081 16.4834 
0.797081 19.5511 16.9466 0.353091 19.3753 16.5796 0.690548 19.8595 16.1882 
[...]
CELL_DATA 1616
SCALARS scalars float
LOOKUP_TABLE default
253 253 253 253 253 253 253 253 253 
253 253 253 253 253 253 253 253 253 
253 253 253 253 253 253 253 253 253 
253 253 253 253 253 253 253 253 253 
253 253 253 253 253 253 253 253 253 
253 253 253 253 253 253 253 253 253 
253 253 253 253 253 253 253 253 253 
253 253 253 253 253 253 253 253 253 
253 253 253 253 253 253 253 253 253 
253 253 253 253 253 253 253 253 253 
253 253 253 253 253 253 253 253 253 
253 253 253 253 253 253 253 253 253 
253 253 253 253 253 253 253 253 253 
253 253 253 253 253 253 253 253 253 
253 253 253 253 253 253 253 253 253 
253 253 253 253 253 253 253 253 253 
253 253 253 253 253 253 253 253 253 
253 253 253 253 253 253 253 253 253 
253 253 253 253 253 253 253 253 253 
253 253 253 253 253 253 253 253 253 
253 253 253 253 253 253 253 253 253 
253 253 253 253 253 253 253 253 253 
253 253 253 253 253 253 253 253 253 
253 253 253 253 253 253 253 253 253 
253 253 253 253 253 253 253 253 253 
253 253 253 253 253 253 253 253 253 
253 253 253 253 253 253 253 253 253 
253 253 253 253 253 253 253 253 253 
253 253 253 253 253 253 253 253 253 
253 253 253 253 253 253 253 253 253 
253 253 253 253 253 253 253 253 253 
253 253 253 253 253 253 253 253 253 
253 253 253 253 253 253 253 253 253 
253 253 253 253 253 253 253 253 253 
253 253 253 253 253 253 253 253 253 
253 253 253 253 253 253 253 253 253 
253 253 253 253 253 253 253 253 253 
253 253 253 253 253 253 253 253 253 
253 253 253 253 253 253 253 253 253 
253 253 253 253 253 253 253 253 253 
253 253 253 253 253 253 253 253 253 
253 253 253 253 253 253 253 253 253 
253 253 253 253 253 253 253 253 253 
253 253 253 253 253 253 253 253 253 
253 253 253 253 253 253 253 253 253 
253 253 253 253 253 253 253 253 253 
253 253 253 253 253 253 253 253 253 
253 253 253 253 253 253 253 253 253 
253 253 253 253 253 253 253 253 253 
253 253 253 253 253 253 253 253 253 
253 253 253 253 253 253 253 253 253 
253 253 253 253 253 253 253 253 253 
253 253 253 253 253 253 253 253 253 
253 253 253 253 253 253 253 253 253 
253 253 253 253 253 253 253 253 253 
253 253 253 253 253 253 253 253 253 
253 253 253 253 253 253 253 253 253 
253 253 253 253 253 253 253 253 253 
253 253 253 253 253 253 253 253 253 
253 253 253 253 253 253 253 253 253 
253 253 253 253 253 253 253 253 253 
253 253 253 253 253 253 253 253 253 
253 253 253 253 253 253 253 253 253 
253 253 253 253 253 253 253 253 253 
253 253 253 253 253 253 253 253 253 
253 253 253 253 253 253 253 253 253 
253 253 253 253 253 253 253 253 253 
253 253 253 253 253 253 253 253 253 
253 253 253 253 253 253 253 253 253 
253 253 253 253 253 253 253 253 253 
253 253 253 253 253 253 253 253 253 
253 253 253 253 253 253 253 253 253 
253 253 253 253 253 253 253 253 253 
253 253 253 253 253 253 253 253 253 
253 253 253 253 253 253 253 253 253 
253 253 253 253 253 253 253 253 253 
253 253 253 253 253 253 253 253 253 
253 253 253 253 253 253 253 253 253 
253 253 253 253 253 253 253 253 253 
253 253 253 253 253 253 253 253 253 
253 253 253 253 253 253 253 253 253 
253 253 253 253 253 253 253 253 253 
253 253 253 253 253 253 253 253 253 
253 253 253 253 253 253 253 253 253 
253 253 253 253 253 253 253 253 253 
253 253 253 253 253 253 253 253 253 
253 253 253 253 253 253 253 253 253 
253 253 253 253 253 253 253 253 253 
253 253 253 253 253 253 253 253 253 
253 253 253 253 253 253 253 253 253 
253 253 253 253 253 253 253 253 253 
253 253 253 253 253 253 253 253 253 
253 253 253 253 253 253 253 253 253 
253 253 253 253 253 253 253 253 253 
253 253 253 253 253 253 253 253 253 
253 253 253 253 253 253 253 253 253 
253 253 253 253 253 253 253 253 253 
253 253 253 253 253 253 253 253 253 
253 253 253 253 253 253 253 253 253 
253 253 253 253 253 253 253 253 253 
253 253 253 253 253 253 253 253 253 
253 253 253 253 253 253 253 253 253 
253 253 253 253 253 253 253 253 253 
253 253 253 253 253 253 253 253 253 
253 253 253 253 253 253 253 253 253 
253 253 253 253 253 253 253 253 253 
253 253 253 253 253 253 253 253 253 
253 253 253 253 253 253 253 253 253 
253 253 253 253 253 253 253 253 253 
253 253 253 253 253 253 253 253 253 
253 253 253 253 253 253 253 253 253 
253 253 253 253 253 253 253 253 253 
253 253 253 253 253 253 253 253 253 
253 253 253 253 253 253 253 253 253 
253 253 253 253 253 253 253 253 253 
253 253 253 253 253 253 253 253 253 
253 253 253 253 253 253 253 253 253 
253 253 253 253 253 253 253 253 253 
253 253 253 253 253 253 253 253 253 
253 253 253 253 253 253 253 253 253 
253 253 253 253 253 253 253 253 253 
253 253 253 253 253 253 253 253 253 
253 253 253 253 253 253 253 253 253 
253 253 253 253 253 253 253 253 253 
253 253 253 253 253 253 253 253 253 
253 253 253 253 253 253 253 253 253 
253 253 253 253 253 253 253 253 253 
253 253 253 253 253 253 253 253 253 
253 253 253 253 253 253 253 253 253 
253 253 253 253 253 253 253 253 253 
253 253 253 253 253 253 253 253 253 
253 253 253 253 253 253 253 253 253 
253 253 253 253 253 253 253 253 253 
253 253 253 253 253 253 253 253 253 
253 253 253 253 253 253 253 253 253 
253 253 253 253 253 253 253 253 253 
253 253 253 253 253 253 253 253 253 
253 253 253 253 253 253 253 253 253 
253 253 253 253 253 253 253 253 253 
253 253 253 253 253 253 253 253 253 
253 253 253 253 253 253 253 253 253 
253 253 253 253 253 253 253 253 253 
253 253 253 253 253 253 253 253 253 
253 253 253 253 253 253 253 253 253 
253 253 253 253 253 253 253 253 253 
253 253 253 253 253 253 253 253 253 
253 253 253 253 253 253 253 253 253 
253 253 253 253 253 253 253 253 253 
253 253 253 253 253 253 253 253 253 
253 253 253 253 253 253 253 253 253 
253 253 253 253 253 253 253 253 253 
253 253 253 253 253 253 253 253 253 
253 253 253 253 253 253 253 253 253 
253 253 253 253 253 253 253 253 253 
253 253 253 253 253 253 253 253 253 
253 253 253 253 253 253 253 253 253 
253 253 253 253 253 253 253 253 253 
253 253 253 253 253 253 253 253 253 
253 253 253 253 253 253 253 253 253 
253 253 253 253 253 253 253 253 253 
253 253 253 253 253 253 253 253 253 
253 253 253 253 253 253 253 253 253 
253 253 253 253 253 253 253 253 253 
253 253 253 253 253 253 253 253 253 
253 253 253 253 253 253 253 253 253 
253 253 253 253 253 253 253 253 253 
253 253 253 253 253 253 253 253 253 
253 253 253 253 253 253 253 253 253 
253 253 253 253 253 253 253 253 253 
253 253 253 253 253 253 253 253 253 
253 253 253 253 253 253 253 253 253 
253 253 253 253 253 253 253 253 253 
253 253 253 253 253 253 253 253 253 
253 253 253 253 253 253 253 253 253 
253 253 253 253 253 253 253 253 253 
253 253 253 253 253 253 253 253 253 
253 253 253 253 253 253 253 253 253 
253 253 253 253 253 253 253 253 253 
253 253 253 253 253 253 253 253 253 
253 253 253 253 253 
