# vtk DataFile Version 4.2
vtk output
ASCII
DATASET POLYDATA
POINTS 810 float
1.2805 -11.2253 6.4995 1.39968 -10.9285 6.13862 1.60347 -11.2177 6.37537 
1.08224 -11.013 6.24542 1.37447 -11.6821 6.59164 1.67926 -11.6785 6.2956 
0.878247 -11.2697 6.406 0.776468 -11.6929 6.59255 0.0460876 -11.7765 6.5725 
0.36275 -11.3795 6.35566 -0.592383 -11.7831 6.59144 -0.279401 -11.3781 6.35234 
-1.05849 -11.8412 6.52722 -0.873825 -11.4154 6.36373 -1.25662 -11.5781 6.20028 
1.4548 -12.1506 6.50996 1.63271 -12.3513 6.14581 1.00107 -12.2116 6.57807 
0.368335 -12.2188 6.55927 -0.280444 -12.2164 6.57088 -0.863058 -12.24 6.5458 
-1.26466 -12.2168 6.22392 1.21969 -12.5914 6.35323 0.641785 -12.6172 6.34355 
0.0101074 -12.6076 6.34099 -0.606812 -12.6297 6.35691 -1.05724 -12.6378 6.27252 
1.37348 -10.8451 5.56516 1.66917 -11.147 5.91335 0.614273 -11.0679 6.07511 
0.868945 -10.8412 5.74423 0.0108582 -11.0738 6.00455 0.189349 -10.8622 5.61853 
-0.608936 -11.0621 6.02396 -0.4422 -10.8485 5.61054 -1.0675 -11.1566 6.03685 
-0.928455 -10.9165 5.71392 -1.25002 -11.1601 5.69676 1.74711 -11.6887 5.74592 
-1.37498 -11.7063 5.73731 1.73643 -12.2277 5.63727 -1.36487 -12.2446 5.65873 
1.34815 -12.9929 6.09373 1.66815 -12.8837 5.74525 0.807523 -13.015 6.12179 
0.181567 -12.9961 6.10549 -0.443243 -13.0155 6.12031 -0.978287 -13.0329 6.0576 
-1.29088 -12.786 5.78408 1.44028 -13.4043 5.90527 1.62066 -13.4754 5.56026 
0.994775 -13.4576 5.95345 0.362292 -13.4367 5.93624 -0.285672 -13.4354 5.94483 
-0.856567 -13.4606 5.91271 -1.23282 -13.3566 5.66752 1.2904 -13.7056 5.74487 
0.732953 -13.835 5.68711 -0.0015564 -13.8256 5.74058 -0.641821 -13.8372 5.63848 
-1.08058 -13.7039 5.58933 1.43113 -10.721 5.05877 1.66723 -11.072 5.19109 
0.988751 -10.6961 5.19217 0.372464 -10.7025 5.19188 -0.275528 -10.6937 5.16866 
-0.919867 -10.7779 5.2429 -1.30075 -11.0608 5.09812 1.72741 -11.693 5.1161 
-1.3581 -11.7315 5.13024 1.72326 -12.3268 5.14013 -1.34309 -12.3509 5.12974 
1.73968 -12.9533 5.14467 -1.35013 -12.9563 5.1379 1.65804 -13.4608 4.98607 
-1.28957 -13.4777 5.13648 1.31891 -13.8499 5.30569 0.775159 -14.1702 5.37375 
1.07591 -14.1216 4.94779 0.280783 -14.1292 5.554 -0.242175 -14.2336 5.42248 
-0.659354 -14.1006 5.20173 -1.00467 -13.8468 5.07908 0.716217 -14.4242 5.14102 
0.454385 -14.8274 4.9678 0.26272 -14.5379 5.33098 -0.12009 -14.7344 5.06777 
-0.417142 -14.3866 4.9399 0.13743 -15.0003 5.07901 1.22002 -10.4883 4.75733 
1.34959 -10.1809 4.36344 1.61832 -10.5289 4.5419 0.629782 -10.5071 4.79526 
0.824094 -10.2845 4.41708 -0.00501709 -10.4973 4.78512 0.191977 -10.2968 4.40391 
-0.618219 -10.4845 4.79526 -0.348505 -10.2933 4.47442 -1.06979 -10.5647 4.8033 
-0.859937 -10.2084 4.4016 -1.26584 -10.4271 4.43845 1.71116 -11.0607 4.49073 
-1.34998 -11.0816 4.51439 1.69543 -11.6876 4.49131 -1.32599 -11.7183 4.50935 
1.71158 -12.3194 4.52775 -1.33149 -12.3358 4.50347 1.72401 -12.9214 4.52502 
-1.35701 -12.9427 4.51821 1.60258 -13.3598 4.40503 -1.27632 -13.4638 4.52228 
1.33098 -13.7503 4.53678 1.00686 -14.0531 4.4706 -0.686526 -14.1137 4.71971 
-0.924857 -13.8243 4.34315 0.795346 -14.3709 4.7237 0.560028 -14.592 4.41439 
-0.191382 -14.6488 4.51514 -0.376163 -14.3115 4.47272 0.224579 -15.2803 4.82939 
0.392624 -15.3122 4.44106 -0.0273743 -15.2256 4.53362 0.140863 -15.6221 4.49503 
1.34465 -9.90116 4.0823 1.39594 -9.71926 3.73533 1.60783 -10.0188 4.04241 
1.07586 -9.81381 3.83723 -1.10161 -9.95071 4.14567 -0.916516 -9.70295 3.73941 
-0.791556 -9.90139 3.99825 -1.25379 -9.91227 3.85745 1.71743 -10.4582 3.90844 
0.96037 -10.0529 4.07636 0.37738 -10.1164 3.98818 -0.30813 -10.0772 4.03263 
-1.3658 -10.4371 3.89809 1.68587 -11.0581 3.85906 -1.34711 -11.0612 3.89101 
1.66647 -11.666 3.87838 -1.32471 -11.674 3.87949 1.68793 -12.2842 3.90373 
-1.34705 -12.288 3.87894 1.63162 -12.8901 3.85142 -1.36745 -12.9083 3.90937 
1.45835 -13.3049 3.96659 1.41589 -13.5107 4.2088 1.16996 -13.5347 3.80729 
-1.23509 -13.4312 3.94913 0.899872 -13.8718 4.01807 0.745825 -14.1806 4.26661 
0.596182 -14.1635 3.87101 -0.509766 -14.075 4.25685 -0.22934 -14.2641 4.01857 
-0.487756 -13.9152 3.84018 -0.871381 -13.6841 3.78501 0.486191 -14.6826 3.90813 
-0.108371 -14.7077 3.90678 0.489542 -15.1974 3.84492 -0.112161 -15.2139 3.81607 
0.179214 -16.0082 4.23887 0.429813 -15.8654 3.96044 -0.0557281 -15.7764 3.98162 
0.189532 -16.5618 4.12299 0.421225 -16.5331 3.89254 -0.0432678 -16.3971 3.88217 
0.186795 -17.1535 4.13112 0.418689 -17.1337 3.90568 -0.0441925 -16.9919 3.89079 
0.184543 -17.752 4.15058 0.417874 -17.7374 3.92341 -0.046756 -17.5902 3.91276 
0.193625 -18.3519 4.15733 0.422974 -18.3397 3.92302 -0.0457764 -18.2021 3.92091 
0.234888 -18.8229 4.11749 0.395737 -18.9826 3.79533 -0.0209198 -18.8491 3.86261 
0.138382 -19.2198 3.91429 1.46036 -9.62322 3.16075 1.73942 -9.97188 3.45959 
0.613293 -9.87755 3.65802 0.838376 -9.6398 3.33438 0.00941162 -9.87085 3.58419 
0.162433 -9.65795 3.1979 -0.500052 -9.80628 3.68313 -0.515048 -9.62155 3.26774 
-1.05741 -9.63082 3.37438 -1.29548 -9.91622 3.29582 1.76879 -10.6212 3.25319 
-1.36296 -10.461 3.28076 1.66587 -11.1672 3.35406 -1.33688 -11.0731 3.27569 
1.66819 -11.682 3.29016 -1.3321 -11.6816 3.26984 1.68273 -12.2935 3.28888 
-1.3584 -12.3089 3.27983 1.61231 -12.821 3.15026 -1.30715 -12.9581 3.34261 
1.39916 -13.1929 3.45949 1.08825 -13.4758 3.12896 -1.10381 -13.4201 3.56833 
-0.79368 -13.5297 3.40344 -0.956039 -13.2482 3.10542 0.777347 -13.7778 3.42278 
0.548566 -14.1589 3.29732 -0.170444 -14.0933 3.34831 -0.458505 -13.6977 3.34341 
0.488782 -14.6851 3.28582 -0.111145 -14.6887 3.25055 0.511642 -15.2871 3.29279 
-0.141357 -15.3039 3.27816 0.526575 -15.8972 3.3193 -0.151208 -15.9076 3.31109 
0.525833 -16.4972 3.32016 -0.151428 -16.5108 3.31503 0.525064 -17.1037 3.33843 
-0.15162 -17.1151 3.33647 0.525641 -17.7131 3.35519 -0.153012 -17.7186 3.34851 
0.525906 -18.3225 3.34545 -0.152344 -18.3257 3.34041 0.528369 -18.826 3.24681 
-0.152179 -18.8251 3.24239 0.177878 -19.6056 3.66798 0.444104 -19.4772 3.37484 
-0.0722992 -19.3674 3.40561 0.197241 -20.1558 3.54527 0.434189 -20.1365 3.30693 
-0.0524323 -19.9881 3.29795 0.23519 -20.6261 3.50827 0.399554 -20.7808 3.19563 
-0.025708 -20.6378 3.24535 0.135992 -21.0228 3.32157 1.94978 -9.83518 3.04205 
1.88811 -9.68148 2.62961 2.19421 -10.0066 2.73137 1.29555 -9.57887 2.60968 
0.786301 -9.57919 2.70415 0.181805 -9.57686 2.69145 -0.342224 -9.56068 2.76123 
-0.924435 -9.65294 2.78637 -1.23998 -10.0622 2.75924 2.02416 -10.2543 2.96718 
2.22535 -10.5174 2.50295 -1.26306 -10.6374 2.76672 1.96078 -10.7299 2.7679 
1.78133 -11.1989 2.82583 -1.23979 -11.2508 2.76606 1.76793 -11.8601 2.78042 
-1.25015 -11.8637 2.75969 1.76758 -12.4811 2.66613 -1.2789 -12.4802 2.78773 
1.62572 -13.0153 2.5707 -1.2116 -12.9301 2.84817 1.40152 -13.2258 2.89823 
1.16345 -13.4775 2.74029 -0.530328 -13.4481 3.05059 -0.136102 -13.6572 2.78737 
-0.379779 -13.2885 2.6118 -0.870657 -13.0896 2.58915 0.751163 -13.7653 2.60823 
0.484552 -14.2082 2.79893 -0.0219177 -14.2021 2.72259 0.399701 -14.7343 2.583 
-0.0565521 -14.8207 2.58933 0.515753 -15.3775 2.74109 -0.147849 -15.3784 2.73889 
0.52413 -15.8762 2.65049 -0.15304 -15.8762 2.65136 0.523846 -16.4808 2.64527 
-0.153653 -16.4807 2.65289 0.524936 -17.0946 2.66263 -0.151813 -17.0834 2.66381 
0.526941 -17.7046 2.67505 -0.152838 -17.6887 2.66987 0.531628 -18.3042 2.67591 
-0.155521 -18.2946 2.66714 0.531445 -18.8988 2.69519 -0.151273 -18.899 2.6873 
0.52543 -19.5062 2.7139 -0.147327 -19.5094 2.70298 0.52868 -20.1136 2.71915 
-0.154404 -20.1189 2.70887 0.534302 -20.6118 2.64467 -0.160995 -20.6149 2.63711 
0.185989 -21.4057 3.07483 0.450458 -21.2738 2.76246 -0.0767395 -21.1691 2.8011 
0.238641 -21.8291 2.90607 0.41217 -21.9867 2.56364 -0.0379761 -21.8241 2.62887 
0.130902 -22.2073 2.68466 1.97153 -9.6594 1.96598 2.2604 -9.97974 2.27379 
1.42102 -9.59352 2.10297 0.789413 -9.59561 2.10059 0.258096 -9.58969 2.1803 
-0.399554 -9.5688 2.13566 -0.96297 -9.862 2.37844 -0.759201 -9.8313 1.99054 
2.33965 -10.4044 2.01617 -1.04873 -10.3207 2.3893 -0.811221 -10.4892 2.03243 
2.03954 -11.0543 2.4878 2.2458 -11.052 2.09502 -1.02252 -10.938 2.40197 
-0.781009 -11.1183 2.03346 1.99412 -11.557 2.41376 2.2191 -11.7319 2.03457 
-1.00898 -11.5502 2.39467 -0.788095 -11.7275 2.02189 1.99012 -12.1303 2.36736 
2.18034 -12.2613 1.9208 -1.03759 -12.1648 2.39243 -0.814838 -12.3394 2.03677 
1.96019 -12.5283 2.17566 1.79311 -12.8503 2.11064 -1.05356 -12.7277 2.45603 
-0.733585 -12.8453 2.12718 1.35206 -13.4447 2.47865 1.59308 -13.3647 1.99244 
0.193323 -13.5028 2.41234 0.444534 -13.562 2.14494 0.118112 -13.2925 2.05434 
-0.346719 -13.1024 2.07832 1.22945 -13.785 2.19694 0.884628 -14.0852 2.3217 
1.08751 -14.1973 2.06425 0.26022 -14.0068 2.51888 0.602554 -14.0593 2.11513 
0.785825 -14.5183 2.24283 0.968646 -14.7607 1.95797 0.588492 -14.7577 1.95713 
0.141193 -14.4787 2.39946 0.758267 -14.9085 2.17188 0.18013 -14.933 2.14842 
0.417151 -15.3004 2.19984 -0.0191437 -15.3515 2.13609 0.4203 -15.8567 2.07384 
-0.0483124 -15.9989 2.07928 0.415659 -16.4585 2.07714 -0.0472687 -16.6096 2.08689 
0.418588 -17.0692 2.0906 -0.0454468 -17.2099 2.09082 0.421079 -17.6736 2.09621 
-0.0454376 -17.8152 2.09605 0.426132 -18.2739 2.10569 -0.0457581 -18.4288 2.11165 
0.431195 -18.873 2.11097 -0.0553894 -19.0261 2.11402 0.417554 -19.5427 1.98213 
-0.0734253 -19.6378 2.00726 0.534164 -20.1805 2.16736 -0.160831 -20.1901 2.1551 
0.531583 -20.6868 2.0923 -0.160272 -20.6876 2.07732 0.529303 -21.3112 2.08464 
-0.159009 -21.3006 2.07567 0.533743 -21.8261 1.99324 -0.159283 -21.8063 1.97834 
0.170755 -22.584 2.44068 0.450687 -22.4769 2.13495 -0.0834686 -22.347 2.15753 
0.193396 -23.1242 2.31626 0.444901 -23.1301 2.06064 -0.0665131 -22.9617 2.05574 
0.240363 -23.5839 2.27655 0.407025 -23.7505 1.93281 -0.034845 -23.6044 2.00001 
0.133676 -23.9648 2.06506 -0.497791 -9.36672 1.72705 -0.287622 -9.11569 1.3243 
-0.190851 -9.31741 1.57258 -0.622897 -9.33576 1.4525 2.04675 -9.52068 1.46611 
2.28395 -9.87925 1.58128 1.59928 -9.49645 1.58557 0.9699 -9.51689 1.58242 
[...]
CELL_DATA 1616
SCALARS scalars float
LOOKUP_TABLE default
253 253 253 253 253 253 253 253 253 
253 253 253 253 253 253 253 253 253 
253 253 253 253 253 253 253 253 253 
253 253 253 253 253 253 253 253 253 
253 253 253 253 253 253 253 253 253 
253 253 253 253 253 253 253 253 253 
253 253 253 253 253 253 253 253 253 
253 253 253 253 253 253 253 253 253 
253 253 253 253 253 253 253 253 253 
253 253 253 253 253 253 253 253 253 
253 253 253 253 253 253 253 253 253 
253 253 253 253 253 253 253 253 253 
253 253 253 253 253 253 253 253 253 
253 253 253 253 253 253 253 253 253 
253 253 253 253 253 253 253 253 253 
253 253 253 253 253 253 253 253 253 
253 253 253 253 253 253 253 253 253 
253 253 253 253 253 253 253 253 253 
253 253 253 253 253 253 253 253 253 
253 253 253 253 253 253 253 253 253 
253 253 253 253 253 253 253 253 253 
253 253 253 253 253 253 253 253 253 
253 253 253 253 253 253 253 253 253 
253 253 253 253 253 253 253 253 253 
253 253 253 253 253 253 253 253 253 
253 253 253 253 253 253 253 253 253 
253 253 253 253 253 253 253 253 253 
253 253 253 253 253 253 253 253 253 
253 253 253 253 253 253 253 253 253 
253 253 253 253 253 253 253 253 253 
253 253 253 253 253 253 253 253 253 
253 253 253 253 253 253 253 253 253 
253 253 253 253 253 253 253 253 253 
253 253 253 253 253 253 253 253 253 
253 253 253 253 253 253 253 253 253 
253 253 253 253 253 253 253 253 253 
253 253 253 253 253 253 253 253 253 
253 253 253 253 253 253 253 253 253 
253 253 253 253 253 253 253 253 253 
253 253 253 253 253 253 253 253 253 
253 253 253 253 253 253 253 253 253 
253 253 253 253 253 253 253 253 253 
253 253 253 253 253 253 253 253 253 
253 253 253 253 253 253 253 253 253 
253 253 253 253 253 253 253 253 253 
253 253 253 253 253 253 253 253 253 
253 253 253 253 253 253 253 253 253 
253 253 253 253 253 253 253 253 253 
253 253 253 253 253 253 253 253 253 
253 253 253 253 253 253 253 253 253 
253 253 253 253 253 253 253 253 253 
253 253 253 253 253 253 253 253 253 
253 253 253 253 253 253 253 253 253 
253 253 253 253 253 253 253 253 253 
253 253 253 253 253 253 253 253 253 
253 253 253 253 253 253 253 253 253 
253 253 253 253 253 253 253 253 253 
253 253 253 253 253 253 253 253 253 
253 253 253 253 253 253 253 253 253 
253 253 253 253 253 253 253 253 253 
253 253 253 253 253 253 253 253 253 
253 253 253 253 253 253 253 253 253 
253 253 253 253 253 253 253 253 253 
253 253 253 253 253 253 253 253 253 
253 253 253 253 253 253 253 253 253 
253 253 253 253 253 253 253 253 253 
253 253 253 253 253 253 253 253 253 
253 253 253 253 253 253 253 253 253 
253 253 253 253 253 253 253 253 253 
253 253 253 253 253 253 253 253 253 
253 253 253 253 253 253 253 253 253 
253 253 253 253 253 253 253 253 253 
253 253 253 253 253 253 253 253 253 
253 253 253 253 253 253 253 253 253 
253 253 253 253 253 253 253 253 253 
253 253 253 253 253 253 253 253 253 
253 253 253 253 253 253 253 253 253 
253 253 253 253 253 253 253 253 253 
253 253 253 253 253 253 253 253 253 
253 253 253 253 253 253 253 253 253 
253 253 253 253 253 253 253 253 253 
253 253 253 253 253 253 253 253 253 
253 253 253 253 253 253 253 253 253 
253 253 253 253 253 253 253 253 253 
253 253 253 253 253 253 253 253 253 
253 253 253 253 253 253 253 253 253 
253 253 253 253 253 253 253 253 253 
253 253 253 253 253 253 253 253 253 
253 253 253 253 253 253 253 253 253 
253 253 253 253 253 253 253 253 253 
253 253 253 253 253 253 253 253 253 
253 253 253 253 253 253 253 253 253 
253 253 253 253 253 253 253 253 253 
253 253 253 253 253 253 253 253 253 
253 253 253 253 253 253 253 253 253 
253 253 253 253 253 253 253 253 253 
253 253 253 253 253 253 253 253 253 
253 253 253 253 253 253 253 253 253 
253 253 253 253 253 253 253 253 253 
253 253 253 253 253 253 253 253 253 
253 253 253 253 253 253 253 253 253 
253 253 253 253 253 253 253 253 253 
253 253 253 253 253 253 253 253 253 
253 253 253 253 253 253 253 253 253 
253 253 253 253 253 253 253 253 253 
253 253 253 253 253 253 253 253 253 
253 253 253 253 253 253 253 253 253 
253 253 253 253 253 253 253 253 253 
253 253 253 253 253 253 253 253 253 
253 253 253 253 253 253 253 253 253 
253 253 253 253 253 253 253 253 253 
253 253 253 253 253 253 253 253 253 
253 253 253 253 253 253 253 253 253 
253 253 253 253 253 253 253 253 253 
253 253 253 253 253 253 253 253 253 
253 253 253 253 253 253 253 253 253 
253 253 253 253 253 253 253 253 253 
253 253 253 253 253 253 253 253 253 
253 253 253 253 253 253 253 253 253 
253 253 253 253 253 253 253 253 253 
253 253 253 253 253 253 253 253 253 
253 253 253 253 253 253 253 253 253 
253 253 253 253 253 253 253 253 253 
253 253 253 253 253 253 253 253 253 
253 253 253 253 253 253 253 253 253 
253 253 253 253 253 253 253 253 253 
253 253 253 253 253 253 253 253 253 
253 253 253 253 253 253 253 253 253 
253 253 253 253 253 253 253 253 253 
253 253 253 253 253 253 253 253 253 
253 253 253 253 253 253 253 253 253 
253 253 253 253 253 253 253 253 253 
253 253 253 253 253 253 253 253 253 
253 253 253 253 253 253 253 253 253 
253 253 253 253 253 253 253 253 253 
253 253 253 253 253 253 253 253 253 
253 253 253 253 253 253 253 253 253 
253 253 253 253 253 253 253 253 253 
253 253 253 253 253 253 253 253 253 
253 253 253 253 253 253 253 253 253 
253 253 253 253 253 253 253 253 253 
253 253 253 253 253 253 253 253 253 
253 253 253 253 253 253 253 253 253 
253 253 253 253 253 253 253 253 253 
253 253 253 253 253 253 253 253 253 
253 253 253 253 253 253 253 253 253 
253 253 253 253 253 253 253 253 253 
253 253 253 253 253 253 253 253 253 
253 253 253 253 253 253 253 253 253 
253 253 253 253 253 253 253 253 253 
253 253 253 253 253 253 253 253 253 
253 253 253 253 253 253 253 253 253 
253 253 253 253 253 253 253 253 253 
253 253 253 253 253 253 253 253 253 
253 253 253 253 253 253 253 253 253 
253 253 253 253 253 253 253 253 253 
253 253 253 253 253 253 253 253 253 
253 253 253 253 253 253 253 253 253 
253 253 253 253 253 253 253 253 253 
253 253 253 253 253 253 253 253 253 
253 253 253 253 253 253 253 253 253 
253 253 253 253 253 253 253 253 253 
253 253 253 253 253 253 253 253 253 
253 253 253 253 253 253 253 253 253 
253 253 253 253 253 253 253 253 253 
253 253 253 253 253 253 253 253 253 
253 253 253 253 253 253 253 253 253 
253 253 253 253 253 253 253 253 253 
253 253 253 253 253 253 253 253 253 
253 253 253 253 253 253 253 253 253 
253 253 253 253 253 253 253 253 253 
253 253 253 253 253 253 253 253 253 
253 253 253 253 253 253 253 253 253 
253 253 253 253 253 253 253 253 253 
253 253 253 253 253 253 253 253 253 
253 253 253 253 253 253 253 253 253 
253 253 253 253 253 253 253 253 253 
253 253 253 253 253 253 253 253 253 
253 253 253 253 253 253 253 253 253 
253 253 253 253 253 
