# vtk DataFile Version 4.2
vtk output
ASCII
DATASET POLYDATA
POINTS 810 float
2.11819 24.799 22.2576 2.31685 24.1975 22.7523 2.65651 24.5922 22.2705 
1.78776 24.3754 22.6114 2.27496 24.9526 21.4963 2.78306 24.4593 21.5024 
1.44782 24.6429 22.1834 1.27829 24.9538 21.4781 0.0610376 24.9201 21.3385 
0.58873 24.5588 22.0002 -1.00309 24.9514 21.3271 -0.481521 24.553 22.0023 
-1.77987 24.8441 21.2301 -1.47222 24.5717 21.9398 -2.11006 24.2991 21.6685 
2.40908 24.8165 20.7156 2.70585 24.2096 20.3812 1.65287 24.9298 20.6137 
0.598315 24.8982 20.6014 -0.48299 24.9172 20.6051 -1.45399 24.8752 20.5656 
-2.1232 24.3385 20.604 2.0175 24.5551 19.9807 1.05433 24.5388 19.9374 
0.00153396 24.5342 19.9532 -1.02666 24.5605 19.9161 -1.77734 24.4196 19.9024 
2.2734 23.2418 22.8914 2.76619 23.8222 22.3884 1.00792 24.0913 22.5197 
1.43242 23.54 22.8976 0.00226305 23.9735 22.5095 0.299824 23.3302 22.8624 
-1.03074 24.0056 22.5289 -0.75276 23.3166 22.8849 -1.79499 24.0268 22.3711 
-1.5632 23.4887 22.7714 -2.09904 23.46 22.3652 2.8964 23.5432 21.4854 
-2.30708 23.5275 21.4549 2.87889 23.3621 20.5872 -2.28995 23.3965 20.5577 
2.23188 24.1227 19.3116 2.76532 23.542 19.4938 1.33083 24.1692 19.2746 
0.287573 24.1418 19.3057 -0.753777 24.1662 19.2732 -1.64548 24.0615 19.244 
-2.16645 23.6055 19.6553 2.38568 23.8087 18.626 2.6865 23.2337 18.5076 
1.64319 23.8888 18.537 0.589047 23.8598 18.5716 -0.490898 23.8738 18.5734 
-1.44237 23.82 18.5312 -2.06939 23.4112 18.7043 2.13609 23.5412 18.1239 
1.2071 23.4447 17.9079 -0.0171128 23.5335 17.9232 -1.08417 23.3631 17.9036 
-1.81547 23.281 18.1255 2.36964 22.3978 23.0983 2.76324 22.6185 22.5133 
1.63227 22.6199 23.1395 0.605132 22.6192 23.1286 -0.474848 22.5802 23.143 
-1.54874 22.7037 23.0024 -2.18337 22.4622 22.5307 2.86384 22.4935 21.4784 
-2.27867 22.5157 21.4128 2.85719 22.5335 20.422 -2.25338 22.5149 20.3804 
2.88483 22.5411 19.3778 -2.26485 22.5285 19.3715 2.74906 22.2767 18.532 
-2.16368 22.5261 18.5024 2.18386 22.8093 17.8833 1.27772 22.9225 17.3493 
1.77914 22.2127 17.4304 0.453667 23.2227 17.4174 -0.417828 23.0033 17.243 
-1.11309 22.6352 17.4646 -1.68867 22.4306 17.8874 1.1797 22.5346 16.9259 
0.743564 22.2458 16.2538 0.423837 22.851 16.7361 -0.213979 22.4121 16.4086 
-0.709161 22.1989 16.9881 0.215332 22.431 15.9655 2.01783 21.8953 23.4859 
2.23381 21.2389 23.9984 2.68176 21.5364 23.4184 1.03408 21.9583 23.4544 
1.358 21.3281 23.8254 -0.0239153 21.9411 23.4704 0.304487 21.3058 23.8046 
-1.04593 21.9577 23.4915 -0.596348 21.4231 23.8103 -1.79852 21.9709 23.3575 
-1.44874 21.3015 23.9516 -2.12516 21.3628 23.5868 2.83676 21.4512 22.5321 
-2.26515 21.4893 22.496 2.81082 21.4522 21.4873 -2.22489 21.4809 21.4349 
2.83799 21.5129 20.4342 -2.23378 21.4711 20.4057 2.85896 21.5083 19.431 
-2.27606 21.4957 19.3942 2.65684 21.3083 18.7003 -2.14134 21.5025 18.5256 
2.20428 21.5278 18.0493 1.66423 21.4173 17.5445 -1.15816 21.8318 17.4428 
-1.55534 21.2041 17.9251 1.31174 21.8391 17.0148 0.919774 21.3235 16.6461 
-0.332595 21.4911 16.5511 -0.640692 21.4203 17.1133 0.360811 22.015 15.4989 
0.641069 21.3678 15.4457 -0.0590058 21.5219 15.59 0.221579 21.4577 14.9292 
2.22558 20.7703 24.4646 2.31113 20.1921 24.7678 2.66428 20.704 24.2686 
1.77767 20.3618 24.61 -1.85153 20.8749 24.3809 -1.54297 20.1979 24.7939 
-1.33473 20.6293 24.4632 -2.10505 20.3944 24.4449 2.8472 20.4807 23.5363 
1.58518 20.7602 24.2116 0.613595 20.613 24.1054 -0.528958 20.6868 24.1705 
-2.29153 20.4621 23.5701 2.79487 20.3984 22.5366 -2.2601 20.4503 22.5301 
2.76281 20.4306 21.5233 -2.2225 20.4311 21.5087 2.79882 20.4728 20.493 
-2.25946 20.4302 20.4853 2.70526 20.3856 19.4832 -2.2932 20.4809 19.4515 
2.41661 20.5775 18.7917 2.34583 20.9812 18.4488 1.93613 20.3119 18.4086 
-2.0724 20.5472 18.58 1.48604 20.6631 17.8467 1.22932 21.0772 17.3319 
0.980081 20.4178 17.3604 -0.863372 21.0604 17.5073 -0.395809 20.6634 17.1923 
-0.826578 20.366 17.7737 -1.46603 20.2739 18.1587 0.796972 20.4797 16.4951 
-0.193953 20.4772 16.453 0.802809 20.3743 15.6372 -0.20001 20.326 15.6093 
0.285779 21.0308 14.2856 0.703501 20.5668 14.5237 -0.105781 20.6019 14.6719 
0.303267 20.8376 13.3629 0.689509 20.4536 13.4109 -0.0847001 20.4362 13.6375 
0.298959 20.8512 12.3767 0.685539 20.4755 12.4099 -0.0859856 20.4505 12.646 
0.295458 20.8836 11.3793 0.684436 20.5051 11.4038 -0.0900067 20.4871 11.6489 
0.310853 20.8949 10.3796 0.693198 20.5044 10.4 -0.0881108 20.5007 10.629 
0.379848 20.8285 9.59447 0.648139 20.2916 9.32843 -0.0463756 20.4036 9.55078 
0.219266 20.4898 8.93303 2.41871 19.2344 24.9278 2.88384 19.7326 24.3469 
1.00682 20.0629 24.5036 1.382 19.5236 24.8999 0.000383022 19.9396 24.5145 
0.255494 19.2958 24.8694 -0.848794 20.1042 24.6219 -0.873687 19.4119 24.9298 
-1.77766 19.5894 24.9141 -2.17429 19.4584 24.4383 2.93314 19.3887 23.2647 
-2.28652 19.4332 23.5303 2.76181 19.5567 22.3547 -2.24278 19.4248 22.5101 
2.76593 19.4502 21.4966 -2.23455 19.415 21.496 2.79044 19.4481 20.4775 
-2.2781 19.4317 20.4505 2.67335 19.217 19.5982 -2.19244 19.5364 19.3684 
2.31813 19.7323 18.9784 1.80022 19.1813 18.5067 -1.85342 19.9126 18.5986 
-1.33643 19.6379 18.4161 -1.60702 19.1412 18.8852 1.28205 19.6709 18.0033 
0.900968 19.4617 17.3679 -0.297432 19.5463 17.477 -0.777705 19.5381 18.1362 
0.801563 19.4425 16.491 -0.198298 19.3834 16.4847 0.839923 19.4541 15.4876 
-0.248396 19.4294 15.4594 0.865065 19.4983 14.4709 -0.264566 19.4843 14.4532 
0.86409 19.4997 13.4707 -0.264671 19.4909 13.4479 0.863065 19.5302 12.4599 
-0.264737 19.5266 12.4406 0.864285 19.5581 11.4443 -0.266798 19.5467 11.4349 
0.864997 19.5419 10.4286 -0.265416 19.5332 10.4229 0.869364 19.3775 9.58951 
-0.264881 19.3698 9.59061 0.285369 20.0793 8.28992 0.729151 19.5908 8.50411 
-0.131583 19.6419 8.68692 0.317934 19.8748 7.37295 0.712942 19.4776 7.40525 
-0.0981534 19.4625 7.6524 0.381403 19.8131 6.58919 0.655548 19.2921 6.33148 
-0.0533068 19.3748 6.56958 0.216329 19.5019 5.92797 3.23456 19.0368 24.5748 
3.13189 18.3494 24.8309 3.64214 18.5191 24.2891 2.14425 18.3159 25.0017 
1.29545 18.4732 25.0009 0.287967 18.4517 25.0046 -0.585453 18.5678 25.0313 
-1.55578 18.6094 24.8773 -2.08149 18.5641 24.195 3.35874 18.9121 23.8763 
3.69437 18.1385 23.4378 -2.11971 18.5766 23.2363 3.25339 18.5799 23.0837 
2.95449 18.6764 22.3018 -2.08066 18.5755 22.2141 2.93246 18.6007 21.1999 
-2.09766 18.5648 21.1925 2.9322 18.4102 20.1648 -2.14532 18.6116 20.1651 
2.69604 18.2511 19.2744 -2.03298 18.7123 19.4152 2.32233 18.7969 18.9236 
1.92572 18.5336 18.5039 -0.897391 19.05 18.5521 -0.240142 18.6115 18.2038 
-0.646354 18.3187 18.8182 -1.46456 18.2808 19.1496 1.23876 18.3133 18.0241 
0.794517 18.631 17.2857 -0.0495681 18.5035 17.2958 0.653423 18.2711 16.4089 
-0.106964 18.2814 16.2647 0.847055 18.5346 15.3369 -0.258947 18.5307 15.3351 
0.861273 18.3836 14.5058 -0.267343 18.3848 14.5056 0.861066 18.3749 13.4982 
-0.268103 18.3873 13.498 0.863142 18.4038 12.4751 -0.264778 18.4055 12.4936 
0.866744 18.4245 11.4585 -0.266225 18.4156 11.4847 0.874818 18.426 10.4591 
-0.270431 18.4111 10.4749 0.874764 18.4581 9.46819 -0.263096 18.4447 9.46751 
0.864995 18.4893 8.4558 -0.25626 18.4708 8.4501 0.870675 18.4981 7.4435 
-0.267792 18.4806 7.43438 0.880293 18.3739 6.61307 -0.278531 18.361 6.60765 
0.299931 19.0907 5.2899 0.740791 18.5702 5.50977 -0.137934 18.6344 5.68408 
0.387943 18.8094 4.5842 0.677376 18.2388 4.32163 -0.0729674 18.3473 4.59245 
0.208639 18.4404 3.95386 3.2712 17.2434 24.8678 3.75265 17.7565 24.334 
2.35359 17.4715 24.9773 1.30091 17.4672 24.9736 0.415347 17.5998 24.9832 
-0.680727 17.5252 25.0177 -1.61973 17.9295 24.5288 -1.27996 17.2831 24.5801 
3.88503 17.3272 23.6263 -1.76246 17.9476 23.7643 -1.36639 17.3529 23.4835 
3.38493 18.1131 22.543 3.72887 17.4586 22.5468 -1.71852 17.9687 22.7355 
-1.31576 17.3547 22.4351 3.30947 17.9897 21.7052 3.68468 17.3578 21.4137 
-1.69569 17.9566 21.7151 -1.3273 17.3354 21.4197 3.30308 17.9124 20.7497 
3.62036 17.1682 20.5313 -1.74309 17.9528 20.6908 -1.37161 17.3602 20.3999 
3.25345 17.5929 20.0862 2.97516 17.4844 19.5495 -1.7695 18.0588 19.7526 
-1.23601 17.5109 19.5568 2.24017 18.0976 18.5586 2.64205 17.2873 18.6922 
0.308996 17.9865 18.4613 0.727825 17.541 18.3628 0.18371 17.3898 18.8118 
-0.591103 17.4296 19.1285 2.0361 17.628 17.9914 1.46147 17.8358 17.491 
1.79976 17.4068 17.3042 0.420666 18.1641 17.6214 0.991421 17.4914 17.534 
1.29702 17.7043 16.7691 1.60195 17.2296 16.3652 0.968357 17.228 16.37 
0.222544 17.9651 16.8348 1.25129 17.586 16.1187 0.287747 17.5467 16.0777 
0.68292 17.6325 15.4654 -0.0441877 17.526 15.3801 0.688466 17.4225 14.5382 
-0.0924951 17.4313 14.3011 0.680991 17.428 13.5352 -0.0904926 17.444 13.2833 
0.686134 17.4504 12.5174 -0.0871961 17.4506 12.2827 0.690546 17.4598 11.51 
-0.0869191 17.4593 11.2738 0.699226 17.4756 10.5096 -0.0871924 17.4853 10.2513 
0.707923 17.4844 9.51112 -0.102985 17.4892 9.25579 0.685536 17.2696 8.39488 
-0.132732 17.3113 8.23619 0.880085 17.5784 7.33196 -0.278231 17.5577 7.31565 
0.876035 17.4533 6.48815 -0.277049 17.428 6.48644 0.872511 17.4405 5.44751 
-0.274676 17.4253 5.46484 0.880176 17.2882 4.58926 -0.27487 17.2631 4.62207 
0.275331 18.0338 3.32605 0.74197 17.5243 3.50468 -0.148355 17.5617 3.72095 
0.313356 17.8264 2.42572 0.732644 17.4005 2.41594 -0.119783 17.3921 2.69632 
0.391851 17.7602 1.65953 0.669845 17.1874 1.38197 -0.0666983 17.2992 1.6252 
0.214299 17.4077 1.02458 -0.844364 16.8441 25.3545 -0.494017 16.1729 25.773 
-0.332752 16.5868 25.4368 -1.05277 16.3865 25.406 3.39672 16.4103 25.099 
3.79215 16.6024 24.5015 2.65086 16.6092 25.1392 1.60192 16.6037 25.1048 
0.436313 16.6696 25.1556 -1.2362 16.4877 24.499 3.87421 16.4699 23.4741 
-1.19485 16.5111 23.4374 3.84197 16.5157 22.392 -1.16397 16.5019 22.4122 
3.84607 16.4998 21.3707 -1.19428 16.4974 21.387 3.70353 16.2424 20.5465 
-1.10343 16.5624 20.3266 3.34072 16.787 19.9072 2.97119 16.4834 19.3081 
-0.797081 16.9466 19.5511 -0.353091 16.5796 19.3753 -0.690548 16.1882 19.8595 
2.69829 16.1847 18.4056 0.688998 16.7569 18.363 0.220931 16.3646 19.0009 
[...]
CELL_DATA 1616
SCALARS scalars float
LOOKUP_TABLE default
253 253 253 253 253 253 253 253 253 
253 253 253 253 253 253 253 253 253 
253 253 253 253 253 253 253 253 253 
253 253 253 253 253 253 253 253 253 
253 253 253 253 253 253 253 253 253 
253 253 253 253 253 253 253 253 253 
253 253 253 253 253 253 253 253 253 
253 253 253 253 253 253 253 253 253 
253 253 253 253 253 253 253 253 253 
253 253 253 253 253 253 253 253 253 
253 253 253 253 253 253 253 253 253 
253 253 253 253 253 253 253 253 253 
253 253 253 253 253 253 253 253 253 
253 253 253 253 253 253 253 253 253 
253 253 253 253 253 253 253 253 253 
253 253 253 253 253 253 253 253 253 
253 253 253 253 253 253 253 253 253 
253 253 253 253 253 253 253 253 253 
253 253 253 253 253 253 253 253 253 
253 253 253 253 253 253 253 253 253 
253 253 253 253 253 253 253 253 253 
253 253 253 253 253 253 253 253 253 
253 253 253 253 253 253 253 253 253 
253 253 253 253 253 253 253 253 253 
253 253 253 253 253 253 253 253 253 
253 253 253 253 253 253 253 253 253 
253 253 253 253 253 253 253 253 253 
253 253 253 253 253 253 253 253 253 
253 253 253 253 253 253 253 253 253 
253 253 253 253 253 253 253 253 253 
253 253 253 253 253 253 253 253 253 
253 253 253 253 253 253 253 253 253 
253 253 253 253 253 253 253 253 253 
253 253 253 253 253 253 253 253 253 
253 253 253 253 253 253 253 253 253 
253 253 253 253 253 253 253 253 253 
253 253 253 253 253 253 253 253 253 
253 253 253 253 253 253 253 253 253 
253 253 253 253 253 253 253 253 253 
253 253 253 253 253 253 253 253 253 
253 253 253 253 253 253 253 253 253 
253 253 253 253 253 253 253 253 253 
253 253 253 253 253 253 253 253 253 
253 253 253 253 253 253 253 253 253 
253 253 253 253 253 253 253 253 253 
253 253 253 253 253 253 253 253 253 
253 253 253 253 253 253 253 253 253 
253 253 253 253 253 253 253 253 253 
253 253 253 253 253 253 253 253 253 
253 253 253 253 253 253 253 253 253 
253 253 253 253 253 253 253 253 253 
253 253 253 253 253 253 253 253 253 
253 253 253 253 253 253 253 253 253 
253 253 253 253 253 253 253 253 253 
253 253 253 253 253 253 253 253 253 
253 253 253 253 253 253 253 253 253 
253 253 253 253 253 253 253 253 253 
253 253 253 253 253 253 253 253 253 
253 253 253 253 253 253 253 253 253 
253 253 253 253 253 253 253 253 253 
253 253 253 253 253 253 253 253 253 
253 253 253 253 253 253 253 253 253 
253 253 253 253 253 253 253 253 253 
253 253 253 253 253 253 253 253 253 
253 253 253 253 253 253 253 253 253 
253 253 253 253 253 253 253 253 253 
253 253 253 253 253 253 253 253 253 
253 253 253 253 253 253 253 253 253 
253 253 253 253 253 253 253 253 253 
253 253 253 253 253 253 253 253 253 
253 253 253 253 253 253 253 253 253 
253 253 253 253 253 253 253 253 253 
253 253 253 253 253 253 253 253 253 
253 253 253 253 253 253 253 253 253 
253 253 253 253 253 253 253 253 253 
253 253 253 253 253 253 253 253 253 
253 253 253 253 253 253 253 253 253 
253 253 253 253 253 253 253 253 253 
253 253 253 253 253 253 253 253 253 
253 253 253 253 253 253 253 253 253 
253 253 253 253 253 253 253 253 253 
253 253 253 253 253 253 253 253 253 
253 253 253 253 253 253 253 253 253 
253 253 253 253 253 253 253 253 253 
253 253 253 253 253 253 253 253 253 
253 253 253 253 253 253 253 253 253 
253 253 253 253 253 253 253 253 253 
253 253 253 253 253 253 253 253 253 
253 253 253 253 253 253 253 253 253 
253 253 253 253 253 253 253 253 253 
253 253 253 253 253 253 253 253 253 
253 253 253 253 253 253 253 253 253 
253 253 253 253 253 253 253 253 253 
253 253 253 253 253 253 253 253 253 
253 253 253 253 253 253 253 253 253 
253 253 253 253 253 253 253 253 253 
253 253 253 253 253 253 253 253 253 
253 253 253 253 253 253 253 253 253 
253 253 253 253 253 253 253 253 253 
253 253 253 253 253 253 253 253 253 
253 253 253 253 253 253 253 253 253 
253 253 253 253 253 253 253 253 253 
253 253 253 253 253 253 253 253 253 
253 253 253 253 253 253 253 253 253 
253 253 253 253 253 253 253 253 253 
253 253 253 253 253 253 253 253 253 
253 253 253 253 253 253 253 253 253 
253 253 253 253 253 253 253 253 253 
253 253 253 253 253 253 253 253 253 
253 253 253 253 253 253 253 253 253 
253 253 253 253 253 253 253 253 253 
253 253 253 253 253 253 253 253 253 
253 253 253 253 253 253 253 253 253 
253 253 253 253 253 253 253 253 253 
253 253 253 253 253 253 253 253 253 
253 253 253 253 253 253 253 253 253 
253 253 253 253 253 253 253 253 253 
253 253 253 253 253 253 253 253 253 
253 253 253 253 253 253 253 253 253 
253 253 253 253 253 253 253 253 253 
253 253 253 253 253 253 253 253 253 
253 253 253 253 253 253 253 253 253 
253 253 253 253 253 253 253 253 253 
253 253 253 253 253 253 253 253 253 
253 253 253 253 253 253 253 253 253 
253 253 253 253 253 253 253 253 253 
253 253 253 253 253 253 253 253 253 
253 253 253 253 253 253 253 253 253 
253 253 253 253 253 253 253 253 253 
253 253 253 253 253 253 253 253 253 
253 253 253 253 253 253 253 253 253 
253 253 253 253 253 253 253 253 253 
253 253 253 253 253 253 253 253 253 
253 253 253 253 253 253 253 253 253 
253 253 253 253 253 253 253 253 253 
253 253 253 253 253 253 253 253 253 
253 253 253 253 253 253 253 253 253 
253 253 253 253 253 253 253 253 253 
253 253 253 253 253 253 253 253 253 
253 253 253 253 253 253 253 253 253 
253 253 253 253 253 253 253 253 253 
253 253 253 253 253 253 253 253 253 
253 253 253 253 253 253 253 253 253 
253 253 253 253 253 253 253 253 253 
253 253 253 253 253 253 253 253 253 
253 253 253 253 253 253 253 253 253 
253 253 253 253 253 253 253 253 253 
253 253 253 253 253 253 253 253 253 
253 253 253 253 253 253 253 253 253 
253 253 253 253 253 253 253 253 253 
253 253 253 253 253 253 253 253 253 
253 253 253 253 253 253 253 253 253 
253 253 253 253 253 253 253 253 253 
253 253 253 253 253 253 253 253 253 
253 253 253 253 253 253 253 253 253 
253 253 253 253 253 253 253 253 253 
253 253 253 253 253 253 253 253 253 
253 253 253 253 253 253 253 253 253 
253 253 253 253 253 253 253 253 253 
253 253 253 253 253 253 253 253 253 
253 253 253 253 253 253 253 253 253 
253 253 253 253 253 253 253 253 253 
253 253 253 253 253 253 253 253 253 
253 253 253 253 253 253 253 253 253 
253 253 253 253 253 253 253 253 253 
253 253 253 253 253 253 253 253 253 
253 253 253 253 253 253 253 253 253 
253 253 253 253 253 253 253 253 253 
253 253 253 253 253 253 253 253 253 
253 253 253 253 253 253 253 253 253 
253 253 253 253 253 253 253 253 253 
253 253 253 253 253 253 253 253 253 
253 253 253 253 253 253 253 253 253 
253 253 253 253 253 253 253 253 253 
253 253 253 253 253 253 253 253 253 
253 253 253 253 253 253 253 253 253 
253 253 253 253 253 253 253 253 253 
253 253 253 253 253 253 253 253 253 
253 253 253 253 253 253 253 253 253 
253 253 253 253 253 
