# vtk DataFile Version 4.2
vtk output
ASCII
DATASET POLYDATA
POINTS 564 float
-3.06564 26.3968 11.8822 -3.29411 26.8645 11.2252 -3.67947 26.2944 11.5894 
-2.08636 26.3967 11.9478 -2.39165 26.9237 11.406 -1.00481 26.3951 11.9385 
-1.34026 26.912 11.4018 0.0468718 26.3588 11.9653 -0.285692 26.9086 11.4196 
0.802233 26.2471 11.8645 0.52893 26.7716 11.5615 1.03352 26.5137 11.3394 
-3.29724 25.5032 11.9567 -3.80135 25.4975 11.4366 -2.40118 25.4953 12.0845 
-1.3475 25.4967 12.0825 -0.282409 25.4854 12.0946 0.645896 25.4578 11.9711 
1.1734 25.7237 11.4538 -3.41548 24.7067 11.7977 -3.72736 24.3972 11.19 
-2.66824 24.6084 11.919 -1.63715 24.605 11.8952 -0.56986 24.6011 11.9083 
0.408648 24.5539 11.8651 1.09843 24.5797 11.3446 -3.0445 23.9975 11.5299 
-2.07505 23.9508 11.5003 -1.00692 23.9555 11.4908 0.028215 23.9042 11.5221 
0.771888 23.8791 11.3919 -3.2739 26.9323 10.2549 -3.80267 26.4114 10.8261 
-2.39378 27.0433 10.5083 -1.35421 27.0323 10.5182 -0.478329 27.0464 10.6632 
0.497628 27.0443 10.5654 1.17679 26.6027 10.4716 -3.92089 25.5082 10.5238 
1.30336 25.4619 10.5424 -3.89742 24.6268 10.326 1.27111 24.5595 10.3715 
-3.22675 23.3325 11.1248 -3.76083 23.534 10.5311 -2.31969 23.2914 11.1626 
-1.26652 23.3098 11.1262 -0.216632 23.2701 11.147 0.656883 23.2421 11.0384 
1.15506 23.6641 10.5811 -3.24097 22.4875 10.869 -3.65521 22.5549 10.2358 
-2.38584 22.435 11.0312 -1.33542 22.4442 11.0052 -0.277559 22.4206 11.0107 
0.624044 22.3838 10.8979 1.14718 22.6434 10.4026 -3.21878 21.9134 10.5508 
-2.79316 21.2809 10.2017 -2.56416 21.7001 10.8289 -1.59124 21.6009 10.8912 
-0.525512 21.5639 10.8837 0.447321 21.5332 10.8314 1.0828 21.7203 10.4141 
-1.99056 21.0111 10.5351 -1.00224 20.9261 10.5437 0.0306979 20.9112 10.3582 
0.776426 21.1408 10.3073 0.841532 27.4088 9.85732 0.700256 27.7624 9.1732 
0.4252 27.482 9.50666 1.07833 27.4389 9.34324 -3.22486 26.9191 9.2201 
-3.76084 26.4193 9.78165 -2.35541 27.0222 9.48433 -1.29961 27.009 9.45965 
-0.258708 27.1546 9.56693 1.28827 26.5278 9.46802 -3.87249 25.5308 9.48297 
1.2926 25.4712 9.47409 -3.85128 24.4931 9.47767 1.26602 24.4517 9.46381 
-3.83292 23.4638 9.49359 1.2822 23.4325 9.48519 -3.688 22.6095 9.22303 
1.29938 22.4229 9.51714 -3.35223 21.9325 9.78985 -3.00542 21.4699 9.34222 
1.14444 21.5617 9.52645 -2.16132 20.3711 10.123 -2.70406 20.5969 9.48741 
-1.27143 20.2877 10.2039 -0.404407 20.3078 10.025 0.14307 20.4604 9.60687 
0.651076 20.9376 9.40593 -2.22183 19.4667 9.94038 -2.6991 19.4965 9.39905 
-1.3388 19.4256 10.0652 -0.448647 19.4513 9.87468 0.0797532 19.7365 9.36816 
-2.36934 18.6814 9.81563 -2.68303 18.398 9.21802 -1.58964 18.5775 9.94032 
-0.604336 18.5542 9.82358 0.0743772 18.6187 9.24273 -1.98466 17.971 9.59347 
-0.97819 17.8765 9.57527 -0.207275 17.8965 9.3605 0.823251 27.7663 8.61897 
0.342788 27.573 8.71787 1.09608 27.229 8.34216 -3.22637 26.9053 8.22161 
-3.71022 26.412 8.7376 -2.33053 27.0226 8.46905 -1.2941 26.989 8.43503 
-0.198092 27.1465 8.32289 1.28358 26.3759 8.57448 -3.8255 25.5052 8.46196 
1.26235 25.4895 8.42945 -3.81705 24.457 8.46284 1.25228 24.4483 8.42771 
-3.81132 23.4526 8.44345 1.27079 23.4257 8.46838 -3.63786 22.6049 8.16298 
1.27007 22.4252 8.48165 -3.30454 21.9942 8.73134 -2.91475 21.3669 8.46374 
1.15022 21.4873 8.3332 -2.77436 20.4981 8.46032 0.427927 20.3209 8.83574 
0.828868 20.8185 8.4003 -2.79705 19.5024 8.47532 0.364479 19.3223 8.48762 
-2.82763 18.6564 8.34131 0.277246 18.4358 8.50618 -2.2283 17.3049 9.15663 
-2.76917 17.5228 8.51341 -1.27033 17.2099 9.22271 -0.334133 17.2331 9.04499 
0.179212 17.6818 8.57171 -2.37594 16.5841 8.79987 -2.69931 16.4888 8.16365 
-1.57779 16.4608 8.92023 -0.596355 16.4738 8.81539 0.0292601 16.7139 8.41846 
-2.02653 16.0187 8.39674 -1.132 15.9868 8.49907 -0.477689 16.1156 8.23592 
0.613465 27.4971 8.10145 -3.41071 26.9187 7.21044 -3.86139 26.3185 7.70162 
-2.32757 27.0296 7.4648 -1.27377 26.9954 7.45639 -0.398441 26.997 7.53588 
0.531864 27.0336 7.46707 1.08957 26.3671 7.60999 -3.96168 25.2456 7.58227 
1.1055 25.2428 7.55947 -3.95381 24.1917 7.60212 1.0802 24.2012 7.59137 
-3.92689 23.1846 7.57113 1.08775 23.2021 7.60007 -3.69379 22.3933 7.43126 
1.13594 22.1759 7.40192 -3.25956 21.9165 7.75847 -2.97471 21.164 7.55665 
1.26331 21.4892 7.42689 -2.87196 20.2134 7.37273 0.753521 20.1515 8.02218 
1.15441 20.7741 7.48577 -2.78588 19.353 7.6046 0.673489 19.3751 7.75243 
1.04712 19.8033 7.27055 -2.83359 18.4676 7.49401 0.395935 18.4601 7.74523 
0.769872 19.0238 7.0848 -2.87471 17.407 7.46308 0.185087 17.3256 7.53093 
-2.71252 16.6261 7.24985 -0.101464 16.512 7.8531 -0.653794 16.264 7.60729 
-0.42877 16.8014 7.07966 -2.37257 16.063 7.716 -1.45194 15.987 7.7483 
-4.22994 26.541 6.99399 -4.13548 26.8267 6.32369 -4.64541 26.2878 6.50096 
-3.15959 26.9911 6.32868 -2.28794 27.0046 6.45853 -1.24435 26.9948 6.4502 
-0.176102 26.8789 6.67279 0.621438 26.5345 6.87555 0.27745 26.3532 6.26514 
-4.36839 25.7966 6.97248 -4.747 25.504 6.33835 0.757507 25.7794 6.89979 
0.376168 25.4786 6.30027 -4.34088 24.7658 6.94048 -4.71645 24.4748 6.32027 
0.720403 24.749 6.95916 0.329866 24.4507 6.36955 -4.31893 23.7136 6.97379 
-4.69393 23.4435 6.35767 0.68525 23.7358 6.99341 0.302791 23.4365 6.36782 
-4.19118 22.5553 6.97582 -4.69306 22.4124 6.39341 0.703685 22.7857 6.90279 
0.348677 22.3831 6.15018 -4.20213 21.4633 6.86887 -4.72691 21.3973 6.41231 
-3.54383 21.6698 7.15336 0.787578 22.016 6.62264 1.08484 21.2837 6.6833 
-4.31716 20.6637 6.75976 -4.68891 20.355 6.20165 -3.50771 20.7043 6.94056 
1.11317 20.2076 6.58257 -3.98672 20.0203 6.48466 -3.27365 19.9869 6.59268 
-2.96605 19.3045 6.66794 1.02295 19.4447 6.65276 -2.92438 18.2893 6.69349 
0.321775 18.3073 6.60576 0.76957 19.0129 6.52636 -2.7512 17.5166 6.44368 
-0.0129874 17.3819 6.65814 -2.36327 16.8791 6.58404 -2.07408 16.3539 7.04544 
-1.43512 16.8863 6.5176 -1.22637 16.406 7.10403 -0.549167 17.1643 6.40394 
-4.26998 26.8775 5.22312 -4.75337 26.3441 5.7492 -3.35824 26.9793 5.48599 
-2.30456 26.9777 5.47538 -1.26987 26.9856 5.44191 -0.365978 26.8368 5.68211 
0.104104 26.3388 5.43903 -4.88499 25.4713 5.48576 0.214433 25.4496 5.4835 
-4.8561 24.4401 5.47837 0.170322 24.4129 5.53684 -4.84459 23.4377 5.51373 
0.150719 23.4046 5.51344 -4.85449 22.4355 5.55364 0.158238 22.5715 5.34069 
-4.87071 21.4184 5.55964 0.636897 21.5171 6.129 0.304975 21.547 5.46704 
-4.88792 20.5752 5.40348 0.730889 20.6819 5.962 0.351594 20.4502 5.35071 
-4.22061 19.4164 6.01657 -4.72224 19.625 5.38845 -3.54034 19.4625 6.21339 
0.606038 19.468 6.05647 0.163037 19.5069 5.34692 -4.23194 18.9012 5.51934 
-3.80518 18.4046 5.14869 -3.35243 18.5496 5.90515 -0.19191 18.4947 5.84372 
-0.758808 18.283 5.45957 -0.279641 18.8576 5.15749 -3.13593 18.068 5.19732 
-2.40287 17.8669 5.41259 -2.00008 17.3941 5.9915 -1.42944 17.9272 5.32915 
-1.001 17.6081 5.92727 -0.259005 17.6772 6.18594 -4.39653 27.105 4.39594 
-4.7861 26.5123 4.58382 -3.6494 27.1415 4.6167 -2.60706 27.1092 4.63364 
-1.52653 27.1232 4.57559 -0.466893 27.0095 4.65961 0.140696 26.5753 4.3937 
-4.86982 25.4971 4.45325 0.218899 25.4858 4.49696 -4.82999 24.4645 4.47567 
0.171392 24.4416 4.52482 -4.82096 23.4642 4.49819 0.154296 23.4385 4.51558 
-4.82737 22.4564 4.52052 0.163447 22.4382 4.50466 -4.85026 21.439 4.54513 
0.194692 21.427 4.50535 -4.87313 20.4263 4.55007 0.215081 20.4328 4.52222 
-4.73524 19.5289 4.28667 0.105242 19.4327 4.39103 -4.27358 18.883 4.63522 
-3.71559 18.4652 4.42475 -0.870217 18.4484 4.81164 -0.460855 18.7052 4.19941 
-3.35553 18.1502 4.69131 -2.5979 18.0631 4.58874 -1.66075 18.1605 4.60301 
-4.05819 27.5146 3.92439 -4.26182 27.8099 3.17336 -4.68976 27.266 3.67895 
-3.08764 27.4927 4.00364 -3.36806 27.8791 3.36531 -2.01012 27.4958 3.94656 
-2.30734 27.8774 3.32894 -0.966173 27.5214 3.92532 -1.2459 27.9049 3.29954 
-0.21798 27.3863 3.92116 -0.455686 27.8086 3.42338 0.0788041 27.4223 3.36205 
-4.87649 26.515 3.47211 0.273964 26.5357 3.43386 -4.83395 25.4914 3.42836 
0.233464 25.4868 3.47638 -4.79472 24.4664 3.45921 0.190227 24.4547 3.48572 
-4.79118 23.4679 3.46824 0.179755 23.4453 3.48539 -4.79747 22.462 3.48013 
0.177266 22.4465 3.48549 -4.82586 21.4331 3.52351 0.195183 21.4481 3.50637 
-4.85217 20.4017 3.53398 0.236257 20.4406 3.51063 -4.7126 19.5033 3.26458 
0.240614 19.5754 3.35837 -4.24884 19.0014 3.53171 -3.43385 18.7827 3.54762 
-3.00276 18.4131 4.02858 -2.30092 18.7896 3.31166 -2.02053 18.4482 3.93791 
-1.19493 18.7378 3.44083 -1.19058 18.5347 4.14143 -0.275454 18.3813 3.7913 
-0.48378 18.4796 3.46769 -0.00453888 18.7194 3.61076 -0.238473 18.2808 3.51801 
-4.26186 27.8971 2.24355 -4.76484 27.3863 2.73946 -3.39165 28.0068 2.50783 
-2.34072 28.0311 2.48513 -1.27366 28.057 2.44636 -0.382052 27.9318 2.69763 
0.157982 27.4238 2.42698 -4.86223 26.5199 2.45809 0.273393 26.5241 2.42653 
-4.81063 25.4751 2.44005 0.22383 25.4861 2.46485 -4.78682 24.4609 2.46401 
0.192664 24.4593 2.4722 -4.78639 23.4668 2.46415 0.187534 23.4584 2.4686 
-4.7915 22.4672 2.4713 0.188358 22.4635 2.47122 -4.82114 21.4408 2.51818 
0.208101 21.4549 2.48399 -4.8486 20.3908 2.52683 0.249591 20.4185 2.47318 
-4.70902 19.4763 2.2312 0.135429 19.3256 2.53505 -4.34585 19.0212 2.66205 
-3.62741 19.0137 2.43597 -2.5867 19.068 2.60337 -1.38641 19.0284 2.4761 
-0.418507 18.8726 2.53478 -0.172934 18.537 3.09802 -4.22487 28.1024 1.33967 
-4.76128 27.5454 1.59412 -3.35992 28.0057 1.53397 -2.3052 28.0103 1.48293 
-1.24554 28.0483 1.42588 -0.350517 27.932 1.68651 0.151789 27.4117 1.3976 
-4.84798 26.5188 1.4244 0.259427 26.527 1.41653 -4.80452 25.4684 1.44423 
0.220778 25.4947 1.46397 -4.79121 24.4613 1.46708 0.193672 24.4703 1.47266 
-4.78805 23.4699 1.46577 0.187641 23.4684 1.46868 -4.79338 22.4707 1.47614 
0.187837 22.4685 1.46868 -4.83724 21.4363 1.52582 0.213465 21.4541 1.46625 
-4.86837 20.38 1.49427 0.252951 20.4057 1.44852 -4.72121 19.4955 1.15762 
-2.99472 19.4719 1.89779 -3.70649 19.4649 1.35549 -3.31531 19.9837 1.29658 
-2.55151 20.0264 1.51617 -2.02501 19.4536 2.01912 -1.59039 19.9033 1.52207 
-1.16291 19.3443 1.82657 -0.799416 19.5932 1.1578 0.112668 19.4967 1.44966 
[...]
CELL_DATA 1124
SCALARS scalars float
LOOKUP_TABLE default
252 252 252 252 252 252 252 252 252 
252 252 252 252 252 252 252 252 252 
252 252 252 252 252 252 252 252 252 
252 252 252 252 252 252 252 252 252 
252 252 252 252 252 252 252 252 252 
252 252 252 252 252 252 252 252 252 
252 252 252 252 252 252 252 252 252 
252 252 252 252 252 252 252 252 252 
252 252 252 252 252 252 252 252 252 
252 252 252 252 252 252 252 252 252 
252 252 252 252 252 252 252 252 252 
252 252 252 252 252 252 252 252 252 
252 252 252 252 252 252 252 252 252 
252 252 252 252 252 252 252 252 252 
252 252 252 252 252 252 252 252 252 
252 252 252 252 252 252 252 252 252 
252 252 252 252 252 252 252 252 252 
252 252 252 252 252 252 252 252 252 
252 252 252 252 252 252 252 252 252 
252 252 252 252 252 252 252 252 252 
252 252 252 252 252 252 252 252 252 
252 252 252 252 252 252 252 252 252 
252 252 252 252 252 252 252 252 252 
252 252 252 252 252 252 252 252 252 
252 252 252 252 252 252 252 252 252 
252 252 252 252 252 252 252 252 252 
252 252 252 252 252 252 252 252 252 
252 252 252 252 252 252 252 252 252 
252 252 252 252 252 252 252 252 252 
252 252 252 252 252 252 252 252 252 
252 252 252 252 252 252 252 252 252 
252 252 252 252 252 252 252 252 252 
252 252 252 252 252 252 252 252 252 
252 252 252 252 252 252 252 252 252 
252 252 252 252 252 252 252 252 252 
252 252 252 252 252 252 252 252 252 
252 252 252 252 252 252 252 252 252 
252 252 252 252 252 252 252 252 252 
252 252 252 252 252 252 252 252 252 
252 252 252 252 252 252 252 252 252 
252 252 252 252 252 252 252 252 252 
252 252 252 252 252 252 252 252 252 
252 252 252 252 252 252 252 252 252 
252 252 252 252 252 252 252 252 252 
252 252 252 252 252 252 252 252 252 
252 252 252 252 252 252 252 252 252 
252 252 252 252 252 252 252 252 252 
252 252 252 252 252 252 252 252 252 
252 252 252 252 252 252 252 252 252 
252 252 252 252 252 252 252 252 252 
252 252 252 252 252 252 252 252 252 
252 252 252 252 252 252 252 252 252 
252 252 252 252 252 252 252 252 252 
252 252 252 252 252 252 252 252 252 
252 252 252 252 252 252 252 252 252 
252 252 252 252 252 252 252 252 252 
252 252 252 252 252 252 252 252 252 
252 252 252 252 252 252 252 252 252 
252 252 252 252 252 252 252 252 252 
252 252 252 252 252 252 252 252 252 
252 252 252 252 252 252 252 252 252 
252 252 252 252 252 252 252 252 252 
252 252 252 252 252 252 252 252 252 
252 252 252 252 252 252 252 252 252 
252 252 252 252 252 252 252 252 252 
252 252 252 252 252 252 252 252 252 
252 252 252 252 252 252 252 252 252 
252 252 252 252 252 252 252 252 252 
252 252 252 252 252 252 252 252 252 
252 252 252 252 252 252 252 252 252 
252 252 252 252 252 252 252 252 252 
252 252 252 252 252 252 252 252 252 
252 252 252 252 252 252 252 252 252 
252 252 252 252 252 252 252 252 252 
252 252 252 252 252 252 252 252 252 
252 252 252 252 252 252 252 252 252 
252 252 252 252 252 252 252 252 252 
252 252 252 252 252 252 252 252 252 
252 252 252 252 252 252 252 252 252 
252 252 252 252 252 252 252 252 252 
252 252 252 252 252 252 252 252 252 
252 252 252 252 252 252 252 252 252 
252 252 252 252 252 252 252 252 252 
252 252 252 252 252 252 252 252 252 
252 252 252 252 252 252 252 252 252 
252 252 252 252 252 252 252 252 252 
252 252 252 252 252 252 252 252 252 
252 252 252 252 252 252 252 252 252 
252 252 252 252 252 252 252 252 252 
252 252 252 252 252 252 252 252 252 
252 252 252 252 252 252 252 252 252 
252 252 252 252 252 252 252 252 252 
252 252 252 252 252 252 252 252 252 
252 252 252 252 252 252 252 252 252 
252 252 252 252 252 252 252 252 252 
252 252 252 252 252 252 252 252 252 
252 252 252 252 252 252 252 252 252 
252 252 252 252 252 252 252 252 252 
252 252 252 252 252 252 252 252 252 
252 252 252 252 252 252 252 252 252 
252 252 252 252 252 252 252 252 252 
252 252 252 252 252 252 252 252 252 
252 252 252 252 252 252 252 252 252 
252 252 252 252 252 252 252 252 252 
252 252 252 252 252 252 252 252 252 
252 252 252 252 252 252 252 252 252 
252 252 252 252 252 252 252 252 252 
252 252 252 252 252 252 252 252 252 
252 252 252 252 252 252 252 252 252 
252 252 252 252 252 252 252 252 252 
252 252 252 252 252 252 252 252 252 
252 252 252 252 252 252 252 252 252 
252 252 252 252 252 252 252 252 252 
252 252 252 252 252 252 252 252 252 
252 252 252 252 252 252 252 252 252 
252 252 252 252 252 252 252 252 252 
252 252 252 252 252 252 252 252 252 
252 252 252 252 252 252 252 252 252 
252 252 252 252 252 252 252 252 252 
252 252 252 252 252 252 252 252 252 
252 252 252 252 252 252 252 252 252 
252 252 252 252 252 252 252 252 252 
252 252 252 252 252 252 252 252 252 
252 252 252 252 252 252 252 252 252 
252 252 252 252 252 252 252 252 
