# vtk DataFile Version 4.2
vtk output
ASCII
DATASET POLYDATA
POINTS 488 float
1.1277 36.8091 15.2234 1.34087 36.2288 15.7369 1.66385 36.5707 15.2371 
0.763423 36.3885 15.556 -2.72007 36.8012 15.1436 -2.53082 36.2924 15.7294 
-2.20686 36.6371 15.3296 -3.0661 36.3185 15.487 1.4029 36.8385 14.7208 
1.7369 36.2329 14.4449 0.412123 36.6359 15.1208 0.506846 36.8278 14.5928 
-0.645615 36.7435 14.4822 -0.411548 36.5195 14.9501 -1.80421 36.8328 14.6544 
-1.41161 36.5287 15.0528 -2.54731 36.8425 14.4657 -3.1226 36.3501 14.6322 
1.07664 36.5452 14.053 0.0937299 36.5173 13.968 -0.982982 36.5227 13.9851 
-2.0085 36.5671 13.955 -2.75124 36.4356 13.9363 1.41016 35.4612 16.1141 
1.79816 35.6509 15.5036 0.00358788 36.091 15.476 0.657303 35.6654 16.0262 
-0.992694 35.9944 15.4731 -0.434315 35.4824 15.9921 -1.85695 36.1801 15.5738 
-1.65316 35.5935 16.0237 -2.66336 35.6514 16.0316 -3.20217 35.4802 15.5534 
1.90501 35.3508 14.6578 -3.30396 35.3961 14.6077 1.22894 36.1147 13.3672 
1.75695 35.5336 13.5529 0.341826 36.166 13.3151 -0.692504 36.1474 13.3261 
-1.73678 36.1722 13.2954 -2.62411 36.0624 13.2772 -3.1546 35.6109 13.6941 
1.24796 35.9278 12.4312 1.73299 35.4293 12.4131 0.37443 36.0151 12.433 
-0.670751 35.9855 12.4605 -1.71911 36.0002 12.4477 -2.6206 35.8833 12.4065 
-3.13798 35.4013 12.6485 1.3787 35.8098 11.6545 1.70993 35.2186 11.3611 
0.629857 35.8911 11.583 -0.416917 35.8424 11.5968 -1.50084 35.8515 11.5963 
-2.48078 35.8047 11.5471 -3.14075 35.2809 11.5793 1.04152 35.5499 10.9908 
0.05383 35.514 10.9402 -1.02065 35.4947 10.9543 -2.05837 35.5074 10.9072 
-2.81678 35.3633 10.892 1.02546 34.9188 16.5105 1.24626 34.1512 16.797 
1.66732 34.7044 16.2559 0.0760631 34.9693 16.4965 0.356301 34.3341 16.858 
-0.993556 34.9334 16.5081 -0.6825 34.3218 16.8621 -2.04725 34.9684 16.53 
-1.73055 34.3127 16.8878 -2.80182 34.9978 16.3596 -2.53244 34.451 16.7742 
-3.07836 34.4225 16.3681 1.88542 34.5181 15.4963 -3.30045 34.4934 15.4517 
1.86592 34.4896 14.4713 -3.26904 34.5208 14.404 1.83946 34.5424 13.4323 
-3.25011 34.5239 13.3941 1.86084 34.5482 12.4057 -3.2967 34.4925 12.3914 
1.89651 34.3941 11.5547 -3.31084 34.3538 11.5746 1.24321 35.0613 10.4055 
1.72124 34.3749 10.6436 0.316326 35.1828 10.2825 -0.755169 35.1365 10.2998 
-1.63495 35.1544 10.412 -2.48641 34.9484 10.2326 -3.08097 34.6209 10.7399 
1.23666 34.5566 9.90306 0.879004 34.4072 9.27205 0.438467 34.9404 9.44079 
-0.705185 35.0086 9.39423 -1.766 34.8787 9.50438 -2.30511 34.4375 9.43729 
-2.7909 34.5034 10.0853 0.37587 34.8229 8.64592 0.589554 34.2943 8.64809 
-0.425583 34.9088 8.50191 -1.44803 34.8083 8.49098 -1.99203 34.598 8.61238 
0.0894039 34.6455 8.17131 -0.80486 34.3069 7.83925 -1.67482 34.5288 8.12238 
1.39095 33.4154 17.086 1.7638 33.5911 16.4869 0.649125 33.6256 17.1288 
-0.380038 33.6364 17.1302 -1.45442 33.602 17.1593 -2.53005 33.6833 17.0342 
-3.1749 33.4113 16.5587 1.84816 33.4635 15.4787 -3.26225 33.4824 15.4484 
1.8124 33.4727 14.4505 -3.21762 33.4837 14.4116 1.81749 33.5118 13.4382 
-3.24119 33.4852 13.4097 1.86652 33.5441 12.4109 -3.28718 33.4886 12.4133 
1.88125 33.5351 11.4196 -3.11375 33.6166 11.3669 1.66868 33.3209 10.6885 
-2.68412 34.0059 10.3127 -2.2253 33.4955 10.4582 -2.74463 33.5058 10.8975 
1.23362 33.5891 10.0222 0.736295 33.5962 9.35832 -1.94284 33.8638 9.59495 
-1.41286 33.3287 9.33762 -1.63905 33.3393 10.0527 0.234922 33.3486 8.905 
0.115708 34.0265 8.15744 -0.1617 33.3187 8.35337 -1.61991 34.051 8.44868 
-1.13677 33.2689 8.34274 -0.419255 33.5747 7.63591 -0.692096 33.7426 7.28926 
-0.990799 33.6481 7.54695 -0.681049 33.4726 7.20952 1.02804 32.9302 17.4818 
1.2323 32.2462 17.9712 1.69159 32.5472 17.4041 0.0493344 32.9932 17.4633 
0.352159 32.3501 17.8182 -1.02073 32.952 17.4964 -0.702653 32.3033 17.8173 
-2.05544 32.9512 17.5244 -1.76007 32.3038 17.8606 -2.80146 32.9494 17.3705 
-2.55578 32.4372 17.7647 -3.07912 32.3889 17.3854 1.84451 32.4587 16.5086 
-3.27194 32.4546 16.5027 1.80154 32.4407 15.4834 -3.22541 32.4697 15.4684 
1.78417 32.4617 14.4714 -3.20566 32.4563 14.4693 1.81869 32.4904 13.4497 
-3.25652 32.4572 13.4625 1.84791 32.5162 12.4301 -3.14945 32.524 12.3806 
1.68435 32.4652 11.5376 -2.6174 32.9951 11.3268 -2.10306 32.5622 11.3316 
-2.54242 32.1522 11.9068 1.23128 32.3472 10.9317 1.35046 32.9898 10.4398 
0.83219 32.4959 10.4248 -1.86166 32.944 10.7443 -1.35717 32.4978 10.3662 
-1.61581 32.3452 11.0958 0.534 32.7555 9.88545 0.35974 32.98 9.44317 
-0.115457 32.2089 9.5453 -1.0873 32.4633 9.33152 -0.553942 32.4691 8.96772 
-0.687928 33.0077 8.30762 -0.76963 33.2833 7.58777 1.21585 31.7517 18.4235 
1.25218 31.1729 18.995 1.68 31.5406 18.3866 0.772152 31.3487 18.5495 
1.82976 31.4545 17.5441 0.56521 31.7524 18.1557 -0.407861 31.6036 18.0793 
-1.47521 31.5726 18.1138 -2.54641 31.6814 18.0042 -3.18902 31.3961 17.5916 
1.78728 31.4074 16.5416 -3.27245 31.4476 16.5216 1.76055 31.4363 15.5171 
-3.23062 31.4345 15.5143 1.79175 31.4632 14.5017 -3.25931 31.4153 14.5149 
1.82987 31.4703 13.4809 -3.28717 31.4509 13.4769 1.67447 31.4375 12.5657 
-3.06359 31.5426 12.5906 1.43591 31.6616 11.8743 1.36397 31.9898 11.4307 
0.941824 31.2486 11.5551 -1.84756 32.0459 11.5736 -1.37274 31.4996 11.3713 
-1.8891 31.4734 11.9879 -2.53781 31.4809 12.2202 0.363483 31.4628 10.828 
0.215904 32.0033 10.2693 -0.251824 31.3397 10.2921 -1.10547 31.382 10.3252 
-0.530534 31.3383 9.68604 -0.970718 31.6391 9.43707 -0.668195 31.6193 9.27173 
1.34155 30.8012 19.5045 1.28539 30.2489 19.9067 1.78562 30.5161 19.1792 
0.834344 30.5193 19.5065 1.8304 30.6298 18.3586 0.0186984 31.0588 18.4505 
0.475231 30.7527 18.9706 -0.978951 30.9267 18.4633 -0.434766 30.4507 18.9568 
-2.02877 30.9556 18.4953 -1.48427 30.423 19.0069 -2.80908 30.9549 18.3781 
-2.48421 30.444 18.9796 -3.14126 30.3394 18.5803 1.79163 30.4113 17.5255 
-3.28911 30.4436 17.511 1.75374 30.4202 16.4997 -3.25357 30.4341 16.491 
1.78401 30.4476 15.4837 -3.25168 30.4057 15.5003 1.83366 30.4631 14.4695 
-3.27691 30.421 14.4732 1.72244 30.3382 13.4944 -3.11294 30.5609 13.3994 
1.28935 30.4008 12.8268 1.28446 31.0443 12.2972 0.841519 30.4126 12.3102 
-2.07802 30.8982 12.4502 -1.28962 30.5963 12.1546 -1.49411 30.1747 12.7573 
-2.42111 30.2829 12.9964 -2.76655 30.9968 12.6182 0.539519 30.3733 11.7013 
-0.981237 30.6252 11.2876 0.306152 30.6185 11.2173 -0.353689 30.5386 11.0262 
-0.745182 30.8925 10.3724 -0.851793 31.1687 9.68086 2.11758 29.8517 20.5637 
2.20905 29.237 20.8082 2.60416 29.5511 20.303 1.58108 29.9813 20.4044 
1.58377 29.5592 20.7831 0.939081 29.3566 20.4332 2.16506 29.9853 19.8775 
2.69979 29.1815 19.4418 -0.00124746 30.045 19.4744 0.325641 29.5297 19.9334 
-0.980671 29.9194 19.5104 -0.703399 29.3155 19.8668 -2.02382 29.9476 19.5487 
-1.60341 29.4385 19.8727 -2.80639 29.9524 19.3933 -2.46248 29.4073 19.7721 
-3.03928 29.53 19.1948 2.27252 29.6567 19.0802 1.99118 29.6909 18.3122 
-3.15123 29.6057 18.236 1.91098 29.5628 17.2176 -3.11023 29.5966 17.2064 
1.92806 29.5908 16.1995 -3.09326 29.5658 16.2188 1.93145 29.4211 15.1803 
-3.09967 29.5616 15.204 1.83577 29.6111 14.3176 -3.06965 29.6879 14.2384 
1.62732 29.273 13.7246 -2.84891 29.8483 13.5791 -2.38241 29.5264 13.5203 
-2.78086 29.4358 13.9265 1.21316 29.5159 13.1573 0.565008 29.6462 12.8116 
0.0758916 29.8909 12.2578 -0.530303 29.4037 12.9537 -0.76513 29.9615 12.49 
-1.63546 29.6065 13.1479 0.0425692 30.1043 11.5087 -0.57117 30.0814 11.8251 
2.25584 28.2552 20.8956 2.74903 28.769 20.3501 1.35154 28.6148 20.888 
0.616072 28.3967 20.5586 2.88851 28.3356 19.6267 0.300225 28.6939 20.2257 
-0.44548 28.5867 20.1303 -1.68007 28.6905 20.0213 -2.61674 28.9715 19.538 
-2.28091 28.3051 19.5729 2.41779 29.1142 18.5501 2.72937 28.4426 18.5548 
-2.78527 28.9747 18.7669 -2.37412 28.3535 18.4744 2.30579 28.9585 17.7137 
2.67099 28.3562 17.4179 -2.73741 28.9838 17.7293 -2.31599 28.3584 17.4332 
2.29797 28.9767 16.701 2.71088 28.3876 16.3998 -2.70186 28.9639 16.7256 
-2.32519 28.3415 16.4429 2.32264 28.9086 15.76 2.64608 28.1785 15.5639 
-2.71191 28.9465 15.719 -2.3517 28.3322 15.4268 2.13137 28.4089 15.0833 
1.7082 28.6529 14.4952 -2.59287 29.0546 14.4793 -2.16134 28.3619 14.4797 
1.37414 28.5919 13.8537 1.17066 28.8506 13.3682 0.866976 28.0727 13.5819 
-1.07463 28.9181 13.4334 -0.380737 28.5502 13.3437 -0.844994 28.1242 13.6827 
-1.60229 28.3548 13.9149 -1.87958 29.0141 13.6976 0.400562 28.6227 13.1409 
2.3969 27.4062 21.1229 2.79629 27.5972 20.5152 1.63123 27.6347 21.1698 
-0.0624628 27.981 20.4773 0.462167 27.5248 20.9846 -1.01805 27.9227 20.4816 
-0.719457 27.3015 20.8514 -1.77352 27.9478 20.3436 -1.5098 27.4212 20.7457 
-2.04866 27.3917 20.3881 2.8838 27.448 19.4917 -2.2531 27.471 19.5017 
2.83198 27.4703 18.4273 -2.19601 27.5041 18.4458 2.85193 27.5285 17.3823 
-2.16063 27.4989 17.4309 2.88225 27.5428 16.3808 -2.20719 27.4854 16.4291 
2.6727 27.3206 15.6626 -2.23521 27.4981 15.4189 2.21343 27.57 15.1378 
1.58842 27.7034 14.7418 1.25158 28.0327 14.2458 1.02548 27.3336 14.2863 
-2.02693 27.5764 14.5547 0.589902 27.1865 13.67 -0.129121 27.8041 13.395 
-0.480486 27.2414 13.7259 -1.37101 27.3937 14.0762 0.379443 27.6847 13.2642 
2.06173 26.8949 21.5702 2.25483 26.1003 21.9048 2.7064 26.6463 21.3073 
1.09524 26.9774 21.525 1.35423 26.3056 21.9521 0.248495 26.7914 21.4363 
0.373108 26.2987 21.8364 -0.318782 26.2584 21.6251 2.89804 26.4417 20.5438 
-0.521385 26.6967 21.2312 -1.53523 26.6599 21.0513 -2.17685 26.3721 20.5998 
2.87154 26.4015 19.502 -2.26094 26.4606 19.5228 2.85868 26.4552 18.4683 
-2.20914 26.475 18.517 2.89374 26.5119 17.4341 -2.2104 26.4577 17.5174 
2.77208 26.4202 16.4465 -2.24375 26.4794 16.4809 2.28749 26.4307 15.8116 
2.18779 26.9228 15.3864 1.75831 26.327 15.5292 -2.10203 26.6114 15.3816 
1.51687 26.8091 15.0038 0.824169 26.2609 14.4837 -1.84901 26.9326 14.5929 
-1.40269 26.527 14.5141 -1.8056 26.4931 14.9133 0.178091 26.6035 13.8125 
0.133106 27.1991 13.4569 -0.567462 26.3839 14.0618 2.13018 25.4354 21.8665 
2.69574 25.7387 21.447 1.34531 25.5646 21.9663 0.295771 25.5938 21.9193 
-1.12139 25.9874 21.5776 -0.723643 25.5817 21.8341 -1.8315 25.8977 21.4117 
[...]
CELL_DATA 972
SCALARS scalars float
LOOKUP_TABLE default
254 254 254 254 254 254 254 254 254 
254 254 254 254 254 254 254 254 254 
254 254 254 254 254 254 254 254 254 
254 254 254 254 254 254 254 254 254 
254 254 254 254 254 254 254 254 254 
254 254 254 254 254 254 254 254 254 
254 254 254 254 254 254 254 254 254 
254 254 254 254 254 254 254 254 254 
254 254 254 254 254 254 254 254 254 
254 254 254 254 254 254 254 254 254 
254 254 254 254 254 254 254 254 254 
254 254 254 254 254 254 254 254 254 
254 254 254 254 254 254 254 254 254 
254 254 254 254 254 254 254 254 254 
254 254 254 254 254 254 254 254 254 
254 254 254 254 254 254 254 254 254 
254 254 254 254 254 254 254 254 254 
254 254 254 254 254 254 254 254 254 
254 254 254 254 254 254 254 254 254 
254 254 254 254 254 254 254 254 254 
254 254 254 254 254 254 254 254 254 
254 254 254 254 254 254 254 254 254 
254 254 254 254 254 254 254 254 254 
254 254 254 254 254 254 254 254 254 
254 254 254 254 254 254 254 254 254 
254 254 254 254 254 254 254 254 254 
254 254 254 254 254 254 254 254 254 
254 254 254 254 254 254 254 254 254 
254 254 254 254 254 254 254 254 254 
254 254 254 254 254 254 254 254 254 
254 254 254 254 254 254 254 254 254 
254 254 254 254 254 254 254 254 254 
254 254 254 254 254 254 254 254 254 
254 254 254 254 254 254 254 254 254 
254 254 254 254 254 254 254 254 254 
254 254 254 254 254 254 254 254 254 
254 254 254 254 254 254 254 254 254 
254 254 254 254 254 254 254 254 254 
254 254 254 254 254 254 254 254 254 
254 254 254 254 254 254 254 254 254 
254 254 254 254 254 254 254 254 254 
254 254 254 254 254 254 254 254 254 
254 254 254 254 254 254 254 254 254 
254 254 254 254 254 254 254 254 254 
254 254 254 254 254 254 254 254 254 
254 254 254 254 254 254 254 254 254 
254 254 254 254 254 254 254 254 254 
254 254 254 254 254 254 254 254 254 
254 254 254 254 254 254 254 254 254 
254 254 254 254 254 254 254 254 254 
254 254 254 254 254 254 254 254 254 
254 254 254 254 254 254 254 254 254 
254 254 254 254 254 254 254 254 254 
254 254 254 254 254 254 254 254 254 
254 254 254 254 254 254 254 254 254 
254 254 254 254 254 254 254 254 254 
254 254 254 254 254 254 254 254 254 
254 254 254 254 254 254 254 254 254 
254 254 254 254 254 254 254 254 254 
254 254 254 254 254 254 254 254 254 
254 254 254 254 254 254 254 254 254 
254 254 254 254 254 254 254 254 254 
254 254 254 254 254 254 254 254 254 
254 254 254 254 254 254 254 254 254 
254 254 254 254 254 254 254 254 254 
254 254 254 254 254 254 254 254 254 
254 254 254 254 254 254 254 254 254 
254 254 254 254 254 254 254 254 254 
254 254 254 254 254 254 254 254 254 
254 254 254 254 254 254 254 254 254 
254 254 254 254 254 254 254 254 254 
254 254 254 254 254 254 254 254 254 
254 254 254 254 254 254 254 254 254 
254 254 254 254 254 254 254 254 254 
254 254 254 254 254 254 254 254 254 
254 254 254 254 254 254 254 254 254 
254 254 254 254 254 254 254 254 254 
254 254 254 254 254 254 254 254 254 
254 254 254 254 254 254 254 254 254 
254 254 254 254 254 254 254 254 254 
254 254 254 254 254 254 254 254 254 
254 254 254 254 254 254 254 254 254 
254 254 254 254 254 254 254 254 254 
254 254 254 254 254 254 254 254 254 
254 254 254 254 254 254 254 254 254 
254 254 254 254 254 254 254 254 254 
254 254 254 254 254 254 254 254 254 
254 254 254 254 254 254 254 254 254 
254 254 254 254 254 254 254 254 254 
254 254 254 254 254 254 254 254 254 
254 254 254 254 254 254 254 254 254 
254 254 254 254 254 254 254 254 254 
254 254 254 254 254 254 254 254 254 
254 254 254 254 254 254 254 254 254 
254 254 254 254 254 254 254 254 254 
254 254 254 254 254 254 254 254 254 
254 254 254 254 254 254 254 254 254 
254 254 254 254 254 254 254 254 254 
254 254 254 254 254 254 254 254 254 
254 254 254 254 254 254 254 254 254 
254 254 254 254 254 254 254 254 254 
254 254 254 254 254 254 254 254 254 
254 254 254 254 254 254 254 254 254 
254 254 254 254 254 254 254 254 254 
254 254 254 254 254 254 254 254 254 
254 254 254 254 254 254 254 254 254 
254 254 254 254 254 254 254 254 254 
254 254 254 254 254 254 254 254 254 

