# vtk DataFile Version 4.2
vtk output
ASCII
DATASET POLYDATA
POINTS 488 float
0.686993 -15.4457 13.7058 0.814883 -15.1376 13.3575 1.00865 -15.4375 13.5626 
0.468411 -15.2461 13.4534 -1.62168 -15.493 13.7016 -1.50812 -15.1415 13.3963 
-1.31375 -15.3815 13.6031 -1.82932 -15.2869 13.412 0.852036 -15.7473 13.7234 
1.0523 -15.9129 13.3599 0.257602 -15.5072 13.6019 0.314383 -15.8239 13.7171 
-0.377124 -15.8901 13.6666 -0.236646 -15.6094 13.5322 -1.07224 -15.7866 13.7204 
-0.836664 -15.5476 13.5379 -1.51813 -15.8997 13.7264 -1.86335 -15.7997 13.431 
0.656131 -16.1479 13.5474 0.0663666 -16.1988 13.5308 -0.579657 -16.1883 13.5342 
-1.19496 -16.2062 13.561 -1.64063 -16.2173 13.4822 0.856393 -14.9113 12.8969 
1.08913 -15.2776 13.0107 0.0124512 -15.2939 13.2751 0.4047 -14.9639 13.0196 
-0.585333 -15.2955 13.2172 -0.250305 -14.9842 12.9099 -1.10384 -15.235 13.3288 
-0.981592 -14.9651 12.9768 -1.5877 -14.9602 13.0117 -1.91109 -15.247 12.9091 
1.15306 -15.7852 12.8306 -1.97232 -15.8144 12.8586 0.747336 -16.5594 13.2891 
1.06408 -16.4481 12.9403 0.215067 -16.5905 13.32 -0.405533 -16.5838 13.309 
-1.0321 -16.602 13.324 -1.56452 -16.6128 13.2583 -1.88282 -16.3626 12.9875 
0.758569 -17.121 13.1769 1.04951 -17.132 12.8777 0.234467 -17.1198 13.2295 
-0.392642 -17.1031 13.2119 -1.02166 -17.1106 13.2209 -1.56258 -17.1352 13.1509 
-1.87304 -16.9899 12.8617 0.836874 -17.587 13.1061 1.03547 -17.7632 12.7513 
0.38757 -17.6298 13.155 -0.2405 -17.6214 13.126 -0.890854 -17.6215 13.1316 
-1.47883 -17.6509 13.1036 -1.87489 -17.6315 12.7895 0.634424 -17.9853 12.9502 
0.0417938 -18.0155 12.9288 -0.602893 -18.0068 12.9175 -1.22553 -18.0349 12.9252 
-1.68061 -18.0439 12.8389 0.625552 -14.6734 12.5716 0.757956 -14.5015 12.111 
1.0106 -14.8263 12.4428 0.0559204 -14.6817 12.602 0.22402 -14.4648 12.2209 
-0.585855 -14.6746 12.5806 -0.399261 -14.4622 12.2136 -1.21806 -14.6612 12.6018 
-1.02809 -14.4466 12.2083 -1.67083 -14.7633 12.6196 -1.50922 -14.5146 12.2915 
-1.83684 -14.7582 12.2744 1.14131 -15.2821 12.331 -1.97022 -15.308 12.317 
1.12944 -15.8971 12.3139 -1.95154 -15.9366 12.3335 1.11341 -16.5205 12.3456 
-1.94034 -16.5426 12.3353 1.12608 -17.1364 12.3491 -1.96846 -17.1442 12.3165 
1.14732 -17.647 12.2566 -1.97709 -17.6343 12.2332 0.755264 -18.3365 12.657 
1.04202 -18.1936 12.2451 0.199136 -18.4101 12.7301 -0.443765 -18.3995 12.7025 
-0.971613 -18.3321 12.7134 -1.48255 -18.4396 12.5899 -1.83926 -18.1351 12.3935 
0.751181 -18.6379 12.3542 0.536462 -19.0165 12.2646 0.27225 -18.9151 12.5846 
-0.413937 -18.9429 12.6257 -1.05043 -18.8766 12.5479 -1.37398 -18.9168 12.2833 
-1.66534 -18.5279 12.323 0.234549 -19.3921 12.5141 0.362677 -19.3908 12.197 
-0.246332 -19.4783 12.5658 -0.859818 -19.4847 12.5057 -1.18623 -19.4118 12.3796 
0.0625671 -19.6768 12.4078 -0.474097 -19.8759 12.2047 -0.995993 -19.7059 12.338 
0.844702 -14.3281 11.6695 1.06835 -14.6877 11.7749 0.399646 -14.3024 11.7957 
-0.21785 -14.3014 11.8023 -0.862482 -14.2837 11.7819 -1.50786 -14.3586 11.8308 
-1.89489 -14.6438 11.6677 1.11878 -15.2926 11.6983 -1.94746 -15.31 11.7104 
1.09717 -15.9095 11.7038 -1.92085 -15.9321 11.7112 1.10007 -16.5169 11.7273 
-1.93515 -16.5332 11.7121 1.12933 -17.1333 11.7466 -1.9629 -17.131 11.7141 
1.13801 -17.7281 11.7412 -1.85899 -17.7589 11.7909 1.01032 -18.1667 11.6127 
-1.60131 -18.3915 12.0244 -1.32608 -18.3043 11.7181 -1.6376 -18.0406 11.7243 
0.749222 -18.5664 11.7737 0.450723 -18.9647 11.7781 -1.15668 -18.8223 11.939 
-0.838815 -18.9768 11.6179 -0.974414 -18.5476 11.6243 0.149789 -19.2366 11.6296 
0.0782501 -19.6851 12.0364 -0.0882751 -19.5675 11.6117 -0.963071 -19.5101 12.0513 
-0.673325 -19.5737 11.582 -0.24288 -19.9979 11.7653 -0.406613 -20.2059 11.8661 
-0.585809 -20.0512 11.8095 -0.40004 -20.2537 11.7041 0.626944 -14.0906 11.3784 
0.749469 -13.797 10.968 1.025 -14.1373 11.1485 0.0397247 -14.1016 11.4164 
0.221375 -13.8887 11.0305 -0.602316 -14.0816 11.3918 -0.41152 -13.8891 11.0025 
-1.22314 -14.0646 11.3915 -1.04596 -13.8629 11.003 -1.67077 -14.1568 11.3905 
-1.52338 -13.9204 11.0832 -1.83745 -14.1478 11.0543 1.1166 -14.6747 11.0954 
-1.95328 -14.6774 11.0937 1.09065 -15.2898 11.0846 -1.92552 -15.298 11.1028 
1.08008 -15.897 11.0972 -1.91383 -15.8975 11.0948 1.10063 -16.51 11.1144 
-1.9445 -16.5015 11.0953 1.11801 -17.1218 11.1299 -1.88042 -17.1507 11.1354 
1.01972 -17.6572 11.0993 -1.56128 -17.7831 11.4179 -1.25274 -17.7803 11.1581 
-1.51633 -17.4351 10.9122 0.747766 -18.0207 11.0286 0.819296 -18.3159 11.4141 
0.508255 -18.3248 11.1179 -1.10793 -18.1327 11.3872 -0.805371 -18.3596 11.1193 
-0.960461 -17.9218 11.0278 0.329297 -18.6484 11.2737 0.224707 -18.9137 11.4084 
-0.0605164 -18.8524 10.9458 -0.643616 -18.9805 11.0986 -0.323657 -19.1988 11.102 
-0.404068 -19.5949 11.4252 -0.453159 -20.0268 11.5905 0.73959 -13.5257 10.6713 
0.761389 -13.1828 10.324 1.01804 -13.5478 10.5445 0.473328 -13.45 10.4296 
1.10775 -14.0534 10.4929 0.349164 -13.6862 10.6718 -0.234714 -13.7319 10.5827 
-0.875125 -13.711 10.5643 -1.51784 -13.7766 10.6297 -1.90352 -14.0241 10.4586 
1.0821 -14.6549 10.4646 -1.95374 -14.6661 10.4895 1.0659 -15.2695 10.4819 
-1.9288 -15.2705 10.4817 1.08447 -15.8788 10.4981 -1.94617 -15.8701 10.4702 
1.10718 -16.4913 10.5023 -1.96305 -16.4929 10.4915 1.01379 -17.0404 10.4827 
-1.82902 -17.0247 10.5465 0.870584 -17.4552 10.6172 0.827399 -17.7213 10.8141 
0.574017 -17.6467 10.3695 -1.09948 -17.6351 10.8483 -0.814709 -17.7566 10.5204 
-1.12443 -17.3865 10.5048 -1.51362 -17.247 10.5094 0.226932 -18.0828 10.4981 
0.138382 -18.418 10.8224 -0.142355 -18.4043 10.4243 -0.654529 -18.3843 10.4499 
-0.309677 -18.7678 10.4235 -0.573779 -18.9172 10.6041 -0.392294 -19.0164 10.5921 
0.81503 -12.877 10.101 0.781311 -12.6357 9.7696 1.08138 -13.0723 9.92981 
0.510663 -12.8758 9.93192 1.10814 -13.5647 9.99806 0.0211945 -13.5092 10.2557 
0.295148 -13.1973 10.072 -0.577414 -13.5014 10.1766 -0.2509 -13.2054 9.89093 
-1.2073 -13.4821 10.1941 -0.8806 -13.1752 9.87447 -1.6755 -13.5522 10.1938 
-1.48056 -13.1914 9.88726 -1.87487 -13.4309 9.82456 1.08471 -14.0645 9.86698 
-1.96373 -14.0725 9.88713 1.06181 -14.68 9.87232 -1.94258 -14.6844 9.88142 
1.07982 -15.2896 9.88876 -1.9416 -15.2789 9.86437 1.10945 -15.8982 9.89804 
-1.95689 -15.8951 9.87355 1.04255 -16.4832 9.82313 -1.85866 -16.5394 9.9575 
0.782602 -16.8837 9.86071 0.779681 -17.2014 10.2469 0.513821 -17.1935 9.8679 
-1.2378 -17.1091 10.1597 -0.764859 -17.2866 9.97846 -0.887521 -16.9249 9.7255 
-1.44367 -16.7813 9.79061 -1.65088 -17.0082 10.219 0.33252 -17.5588 9.84434 
-0.579959 -17.8068 9.99571 0.192462 -17.8492 9.99154 -0.203485 -17.9637 9.9437 
-0.438428 -18.356 10.1561 -0.50246 -18.7709 10.3218 1.28067 -12.2417 9.53112 
1.33549 -12.0949 9.16228 1.57253 -12.3982 9.35072 0.958759 -12.3372 9.609 
0.96037 -12.11 9.35574 0.573468 -12.3198 9.23426 1.30907 -12.6534 9.61128 
1.62971 -12.9149 9.12896 0.00922852 -12.8949 9.64743 0.205353 -12.6196 9.33823 
-0.578439 -12.8731 9.57224 -0.412115 -12.6594 9.20985 -1.20432 -12.85 9.58935 
-0.952103 -12.6557 9.2838 -1.67389 -12.9431 9.59232 -1.46756 -12.7159 9.26522 
-1.81371 -13.0622 9.33893 1.37336 -13.1318 9.41411 1.20445 -13.5925 9.43469 
-1.88102 -13.6374 9.3844 1.15614 -14.2493 9.35785 -1.85659 -14.2552 9.37888 
1.16623 -14.8602 9.37465 -1.84656 -14.8478 9.36041 1.16808 -15.4717 9.27279 
-1.85057 -15.4567 9.35787 1.11056 -15.9893 9.38682 -1.83269 -16.036 9.43367 
0.985345 -16.3451 9.18399 -1.70033 -16.4316 9.52987 -1.42049 -16.467 9.33669 
-1.6595 -16.2232 9.28239 0.736798 -16.6853 9.32982 0.347873 -16.8927 9.40806 
0.0543549 -17.2249 9.55498 -0.309329 -16.8073 9.26277 -0.450211 -17.0855 9.59748 
-0.972363 -16.6906 9.38462 0.0342773 -17.6743 9.68306 -0.33392 -17.4844 9.66942 
1.36342 -12.0425 8.57323 1.65933 -12.3699 8.88142 0.820898 -12.0469 8.78911 
0.379532 -12.2445 8.65841 1.74284 -12.804 8.62134 0.190018 -12.4442 8.83674 
-0.257437 -12.5013 8.77255 -0.99819 -12.5665 8.83502 -1.56022 -12.8563 9.00378 
-1.35883 -12.8354 8.60388 1.46036 -13.4498 9.08861 1.6472 -13.4471 8.68557 
-1.66146 -13.3189 9.00571 -1.41492 -13.4946 8.63295 1.39301 -13.9517 8.9952 
1.61198 -14.1292 8.63378 -1.63291 -13.9415 9.01116 -1.3802 -14.1193 8.63586 
1.38815 -14.5593 9.00614 1.63576 -14.7401 8.65257 -1.61174 -14.5437 8.99925 
-1.38588 -14.7134 8.62571 1.4028 -15.1239 8.96524 1.59672 -15.2416 8.52716 
-1.61793 -15.1477 8.98876 -1.40195 -15.3231 8.62014 1.28785 -15.5299 8.66545 
1.0339 -15.8827 8.81194 -1.54668 -15.8916 9.05365 -1.28787 -15.8914 8.63791 
0.83335 -16.2675 8.77538 0.711227 -16.5588 8.93061 0.528928 -16.4306 8.46397 
-0.635925 -16.5194 8.97151 -0.219662 -16.5733 8.75066 -0.49823 -16.3698 8.49512 
-0.952533 -16.2303 8.6336 -1.11884 -16.3607 9.02922 0.249097 -16.6951 8.79401 
1.44796 -11.9062 8.0638 1.68753 -12.2709 8.17832 0.988605 -11.8779 8.20101 
-0.0276672 -12.2931 8.40905 0.287119 -11.9889 8.13525 -0.601025 -12.2904 8.37424 
-0.421912 -12.0686 8.00148 -1.05433 -12.3731 8.38942 -0.896118 -12.1319 8.07341 
-1.21949 -12.3464 8.05583 1.73985 -12.885 8.08881 -1.34228 -12.8782 8.10339 
1.70859 -13.5236 8.10217 -1.30819 -13.5117 8.12325 1.72041 -14.1506 8.1371 
-1.28712 -14.1207 8.12015 1.73845 -14.7515 8.14571 -1.31522 -14.7218 8.11203 
1.61257 -15.1824 8.01239 -1.33218 -15.3279 8.1197 1.33696 -15.4972 8.16209 
0.961917 -15.7347 8.24227 0.759787 -16.0322 8.43987 0.624023 -16.0079 8.02049 
-1.20734 -15.8464 8.16661 0.362558 -16.3777 7.93227 -0.0688019 -16.5425 8.30293 
-0.279657 -16.344 7.96536 -0.813895 -16.1336 8.0569 0.236298 -16.6211 8.2312 
1.24685 -11.6378 7.75709 1.36263 -11.437 7.28031 1.63357 -11.7956 7.60782 
0.666962 -11.6647 7.80674 0.822317 -11.4085 7.40358 0.158871 -11.7178 7.69528 
0.233624 -11.4778 7.39963 -0.181549 -11.6044 7.37557 1.7484 -12.2537 7.48503 
-0.303104 -11.8407 7.63854 -0.911444 -11.9485 7.61663 -1.29653 -12.2193 7.44404 
1.73233 -12.8788 7.46088 -1.34714 -12.8655 7.49717 1.72446 -13.499 7.49311 
-1.31622 -13.469 7.50583 1.74534 -14.1196 7.52712 -1.31713 -14.0688 7.49541 
1.67218 -14.7121 7.47217 -1.3373 -14.6906 7.50847 1.38133 -15.093 7.47853 
[...]
CELL_DATA 972
SCALARS scalars float
LOOKUP_TABLE default
254 254 254 254 254 254 254 254 254 
254 254 254 254 254 254 254 254 254 
254 254 254 254 254 254 254 254 254 
254 254 254 254 254 254 254 254 254 
254 254 254 254 254 254 254 254 254 
254 254 254 254 254 254 254 254 254 
254 254 254 254 254 254 254 254 254 
254 254 254 254 254 254 254 254 254 
254 254 254 254 254 254 254 254 254 
254 254 254 254 254 254 254 254 254 
254 254 254 254 254 254 254 254 254 
254 254 254 254 254 254 254 254 254 
254 254 254 254 254 254 254 254 254 
254 254 254 254 254 254 254 254 254 
254 254 254 254 254 254 254 254 254 
254 254 254 254 254 254 254 254 254 
254 254 254 254 254 254 254 254 254 
254 254 254 254 254 254 254 254 254 
254 254 254 254 254 254 254 254 254 
254 254 254 254 254 254 254 254 254 
254 254 254 254 254 254 254 254 254 
254 254 254 254 254 254 254 254 254 
254 254 254 254 254 254 254 254 254 
254 254 254 254 254 254 254 254 254 
254 254 254 254 254 254 254 254 254 
254 254 254 254 254 254 254 254 254 
254 254 254 254 254 254 254 254 254 
254 254 254 254 254 254 254 254 254 
254 254 254 254 254 254 254 254 254 
254 254 254 254 254 254 254 254 254 
254 254 254 254 254 254 254 254 254 
254 254 254 254 254 254 254 254 254 
254 254 254 254 254 254 254 254 254 
254 254 254 254 254 254 254 254 254 
254 254 254 254 254 254 254 254 254 
254 254 254 254 254 254 254 254 254 
254 254 254 254 254 254 254 254 254 
254 254 254 254 254 254 254 254 254 
254 254 254 254 254 254 254 254 254 
254 254 254 254 254 254 254 254 254 
254 254 254 254 254 254 254 254 254 
254 254 254 254 254 254 254 254 254 
254 254 254 254 254 254 254 254 254 
254 254 254 254 254 254 254 254 254 
254 254 254 254 254 254 254 254 254 
254 254 254 254 254 254 254 254 254 
254 254 254 254 254 254 254 254 254 
254 254 254 254 254 254 254 254 254 
254 254 254 254 254 254 254 254 254 
254 254 254 254 254 254 254 254 254 
254 254 254 254 254 254 254 254 254 
254 254 254 254 254 254 254 254 254 
254 254 254 254 254 254 254 254 254 
254 254 254 254 254 254 254 254 254 
254 254 254 254 254 254 254 254 254 
254 254 254 254 254 254 254 254 254 
254 254 254 254 254 254 254 254 254 
254 254 254 254 254 254 254 254 254 
254 254 254 254 254 254 254 254 254 
254 254 254 254 254 254 254 254 254 
254 254 254 254 254 254 254 254 254 
254 254 254 254 254 254 254 254 254 
254 254 254 254 254 254 254 254 254 
254 254 254 254 254 254 254 254 254 
254 254 254 254 254 254 254 254 254 
254 254 254 254 254 254 254 254 254 
254 254 254 254 254 254 254 254 254 
254 254 254 254 254 254 254 254 254 
254 254 254 254 254 254 254 254 254 
254 254 254 254 254 254 254 254 254 
254 254 254 254 254 254 254 254 254 
254 254 254 254 254 254 254 254 254 
254 254 254 254 254 254 254 254 254 
254 254 254 254 254 254 254 254 254 
254 254 254 254 254 254 254 254 254 
254 254 254 254 254 254 254 254 254 
254 254 254 254 254 254 254 254 254 
254 254 254 254 254 254 254 254 254 
254 254 254 254 254 254 254 254 254 
254 254 254 254 254 254 254 254 254 
254 254 254 254 254 254 254 254 254 
254 254 254 254 254 254 254 254 254 
254 254 254 254 254 254 254 254 254 
254 254 254 254 254 254 254 254 254 
254 254 254 254 254 254 254 254 254 
254 254 254 254 254 254 254 254 254 
254 254 254 254 254 254 254 254 254 
254 254 254 254 254 254 254 254 254 
254 254 254 254 254 254 254 254 254 
254 254 254 254 254 254 254 254 254 
254 254 254 254 254 254 254 254 254 
254 254 254 254 254 254 254 254 254 
254 254 254 254 254 254 254 254 254 
254 254 254 254 254 254 254 254 254 
254 254 254 254 254 254 254 254 254 
254 254 254 254 254 254 254 254 254 
254 254 254 254 254 254 254 254 254 
254 254 254 254 254 254 254 254 254 
254 254 254 254 254 254 254 254 254 
254 254 254 254 254 254 254 254 254 
254 254 254 254 254 254 254 254 254 
254 254 254 254 254 254 254 254 254 
254 254 254 254 254 254 254 254 254 
254 254 254 254 254 254 254 254 254 
254 254 254 254 254 254 254 254 254 
254 254 254 254 254 254 254 254 254 
254 254 254 254 254 254 254 254 254 
254 254 254 254 254 254 254 254 254 

