# vtk DataFile Version 4.2
vtk output
ASCII
DATASET POLYDATA
POINTS 488 float
-1.1277 15.2234 36.8091 -1.34087 15.7369 36.2288 -1.66385 15.2371 36.5707 
-0.763423 15.556 36.3885 2.72007 15.1436 36.8012 2.53082 15.7294 36.2924 
2.20686 15.3296 36.6371 3.0661 15.487 36.3185 -1.4029 14.7208 36.8385 
-1.7369 14.4449 36.2329 -0.412123 15.1208 36.6359 -0.506846 14.5928 36.8278 
0.645615 14.4822 36.7435 0.411548 14.9501 36.5195 1.80421 14.6544 36.8328 
1.41161 15.0528 36.5287 2.54731 14.4657 36.8425 3.1226 14.6322 36.3501 
-1.07664 14.053 36.5452 -0.0937299 13.968 36.5173 0.982982 13.9851 36.5227 
2.0085 13.955 36.5671 2.75124 13.9363 36.4356 -1.41016 16.1141 35.4612 
-1.79816 15.5036 35.6509 -0.00358788 15.476 36.091 -0.657303 16.0262 35.6654 
0.992694 15.4731 35.9944 0.434315 15.9921 35.4824 1.85695 15.5738 36.1801 
1.65316 16.0237 35.5935 2.66336 16.0316 35.6514 3.20217 15.5534 35.4802 
-1.90501 14.6578 35.3508 3.30396 14.6077 35.3961 -1.22894 13.3672 36.1147 
-1.75695 13.5529 35.5336 -0.341826 13.3151 36.166 0.692504 13.3261 36.1474 
1.73678 13.2954 36.1722 2.62411 13.2772 36.0624 3.1546 13.6941 35.6109 
-1.24796 12.4312 35.9278 -1.73299 12.4131 35.4293 -0.37443 12.433 36.0151 
0.670751 12.4605 35.9855 1.71911 12.4477 36.0002 2.6206 12.4065 35.8833 
3.13798 12.6485 35.4013 -1.3787 11.6545 35.8098 -1.70993 11.3611 35.2186 
-0.629857 11.583 35.8911 0.416917 11.5968 35.8424 1.50084 11.5963 35.8515 
2.48078 11.5471 35.8047 3.14075 11.5793 35.2809 -1.04152 10.9908 35.5499 
-0.05383 10.9402 35.514 1.02065 10.9543 35.4947 2.05837 10.9072 35.5074 
2.81678 10.892 35.3633 -1.02546 16.5105 34.9188 -1.24626 16.797 34.1512 
-1.66732 16.2559 34.7044 -0.0760631 16.4965 34.9693 -0.356301 16.858 34.3341 
0.993556 16.5081 34.9334 0.6825 16.8621 34.3218 2.04725 16.53 34.9684 
1.73055 16.8878 34.3127 2.80182 16.3596 34.9978 2.53244 16.7742 34.451 
3.07836 16.3681 34.4225 -1.88542 15.4963 34.5181 3.30045 15.4517 34.4934 
-1.86592 14.4713 34.4896 3.26904 14.404 34.5208 -1.83946 13.4323 34.5424 
3.25011 13.3941 34.5239 -1.86084 12.4057 34.5482 3.2967 12.3914 34.4925 
-1.89651 11.5547 34.3941 3.31084 11.5746 34.3538 -1.24321 10.4055 35.0613 
-1.72124 10.6436 34.3749 -0.316326 10.2825 35.1828 0.755169 10.2998 35.1365 
1.63495 10.412 35.1544 2.48641 10.2326 34.9484 3.08097 10.7399 34.6209 
-1.23666 9.90306 34.5566 -0.879004 9.27205 34.4072 -0.438467 9.44079 34.9404 
0.705185 9.39423 35.0086 1.766 9.50438 34.8787 2.30511 9.43729 34.4375 
2.7909 10.0853 34.5034 -0.37587 8.64592 34.8229 -0.589554 8.64809 34.2943 
0.425583 8.50191 34.9088 1.44803 8.49098 34.8083 1.99203 8.61238 34.598 
-0.0894039 8.17131 34.6455 0.80486 7.83925 34.3069 1.67482 8.12238 34.5288 
-1.39095 17.086 33.4154 -1.7638 16.4869 33.5911 -0.649125 17.1288 33.6256 
0.380038 17.1302 33.6364 1.45442 17.1593 33.602 2.53005 17.0342 33.6833 
3.1749 16.5587 33.4113 -1.84816 15.4787 33.4635 3.26225 15.4484 33.4824 
-1.8124 14.4505 33.4727 3.21762 14.4116 33.4837 -1.81749 13.4382 33.5118 
3.24119 13.4097 33.4852 -1.86652 12.4109 33.5441 3.28718 12.4133 33.4886 
-1.88125 11.4196 33.5351 3.11375 11.3669 33.6166 -1.66868 10.6885 33.3209 
2.68412 10.3127 34.0059 2.2253 10.4582 33.4955 2.74463 10.8975 33.5058 
-1.23362 10.0222 33.5891 -0.736295 9.35832 33.5962 1.94284 9.59495 33.8638 
1.41286 9.33762 33.3287 1.63905 10.0527 33.3393 -0.234922 8.905 33.3486 
-0.115708 8.15744 34.0265 0.1617 8.35337 33.3187 1.61991 8.44868 34.051 
1.13677 8.34274 33.2689 0.419255 7.63591 33.5747 0.692096 7.28926 33.7426 
0.990799 7.54695 33.6481 0.681049 7.20952 33.4726 -1.02804 17.4818 32.9302 
-1.2323 17.9712 32.2462 -1.69159 17.4041 32.5472 -0.0493344 17.4633 32.9932 
-0.352159 17.8182 32.3501 1.02073 17.4964 32.952 0.702653 17.8173 32.3033 
2.05544 17.5244 32.9512 1.76007 17.8606 32.3038 2.80146 17.3705 32.9494 
2.55578 17.7647 32.4372 3.07912 17.3854 32.3889 -1.84451 16.5086 32.4587 
3.27194 16.5027 32.4546 -1.80154 15.4834 32.4407 3.22541 15.4684 32.4697 
-1.78417 14.4714 32.4617 3.20566 14.4693 32.4563 -1.81869 13.4497 32.4904 
3.25652 13.4625 32.4572 -1.84791 12.4301 32.5162 3.14945 12.3806 32.524 
-1.68435 11.5376 32.4652 2.6174 11.3268 32.9951 2.10306 11.3316 32.5622 
2.54242 11.9068 32.1522 -1.23128 10.9317 32.3472 -1.35046 10.4398 32.9898 
-0.83219 10.4248 32.4959 1.86166 10.7443 32.944 1.35717 10.3662 32.4978 
1.61581 11.0958 32.3452 -0.534 9.88545 32.7555 -0.35974 9.44317 32.98 
0.115457 9.5453 32.2089 1.0873 9.33152 32.4633 0.553942 8.96772 32.4691 
0.687928 8.30762 33.0077 0.76963 7.58777 33.2833 -1.21585 18.4235 31.7517 
-1.25218 18.995 31.1729 -1.68 18.3866 31.5406 -0.772152 18.5495 31.3487 
-1.82976 17.5441 31.4545 -0.56521 18.1557 31.7524 0.407861 18.0793 31.6036 
1.47521 18.1138 31.5726 2.54641 18.0042 31.6814 3.18902 17.5916 31.3961 
-1.78728 16.5416 31.4074 3.27245 16.5216 31.4476 -1.76055 15.5171 31.4363 
3.23062 15.5143 31.4345 -1.79175 14.5017 31.4632 3.25931 14.5149 31.4153 
-1.82987 13.4809 31.4703 3.28717 13.4769 31.4509 -1.67447 12.5657 31.4375 
3.06359 12.5906 31.5426 -1.43591 11.8743 31.6616 -1.36397 11.4307 31.9898 
-0.941824 11.5551 31.2486 1.84756 11.5736 32.0459 1.37274 11.3713 31.4996 
1.8891 11.9879 31.4734 2.53781 12.2202 31.4809 -0.363483 10.828 31.4628 
-0.215904 10.2693 32.0033 0.251824 10.2921 31.3397 1.10547 10.3252 31.382 
0.530534 9.68604 31.3383 0.970718 9.43707 31.6391 0.668195 9.27173 31.6193 
-1.34155 19.5045 30.8012 -1.28539 19.9067 30.2489 -1.78562 19.1792 30.5161 
-0.834344 19.5065 30.5193 -1.8304 18.3586 30.6298 -0.0186984 18.4505 31.0588 
-0.475231 18.9706 30.7527 0.978951 18.4633 30.9267 0.434766 18.9568 30.4507 
2.02877 18.4953 30.9556 1.48427 19.0069 30.423 2.80908 18.3781 30.9549 
2.48421 18.9796 30.444 3.14126 18.5803 30.3394 -1.79163 17.5255 30.4113 
3.28911 17.511 30.4436 -1.75374 16.4997 30.4202 3.25357 16.491 30.4341 
-1.78401 15.4837 30.4476 3.25168 15.5003 30.4057 -1.83366 14.4695 30.4631 
3.27691 14.4732 30.421 -1.72244 13.4944 30.3382 3.11294 13.3994 30.5609 
-1.28935 12.8268 30.4008 -1.28446 12.2972 31.0443 -0.841519 12.3102 30.4126 
2.07802 12.4502 30.8982 1.28962 12.1546 30.5963 1.49411 12.7573 30.1747 
2.42111 12.9964 30.2829 2.76655 12.6182 30.9968 -0.539519 11.7013 30.3733 
0.981237 11.2876 30.6252 -0.306152 11.2173 30.6185 0.353689 11.0262 30.5386 
0.745182 10.3724 30.8925 0.851793 9.68086 31.1687 -2.11758 20.5637 29.8517 
-2.20905 20.8082 29.237 -2.60416 20.303 29.5511 -1.58108 20.4044 29.9813 
-1.58377 20.7831 29.5592 -0.939081 20.4332 29.3566 -2.16506 19.8775 29.9853 
-2.69979 19.4418 29.1815 0.00124746 19.4744 30.045 -0.325641 19.9334 29.5297 
0.980671 19.5104 29.9194 0.703399 19.8668 29.3155 2.02382 19.5487 29.9476 
1.60341 19.8727 29.4385 2.80639 19.3933 29.9524 2.46248 19.7721 29.4073 
3.03928 19.1948 29.53 -2.27252 19.0802 29.6567 -1.99118 18.3122 29.6909 
3.15123 18.236 29.6057 -1.91098 17.2176 29.5628 3.11023 17.2064 29.5966 
-1.92806 16.1995 29.5908 3.09326 16.2188 29.5658 -1.93145 15.1803 29.4211 
3.09967 15.204 29.5616 -1.83577 14.3176 29.6111 3.06965 14.2384 29.6879 
-1.62732 13.7246 29.273 2.84891 13.5791 29.8483 2.38241 13.5203 29.5264 
2.78086 13.9265 29.4358 -1.21316 13.1573 29.5159 -0.565008 12.8116 29.6462 
-0.0758916 12.2578 29.8909 0.530303 12.9537 29.4037 0.76513 12.49 29.9615 
1.63546 13.1479 29.6065 -0.0425692 11.5087 30.1043 0.57117 11.8251 30.0814 
-2.25584 20.8956 28.2552 -2.74903 20.3501 28.769 -1.35154 20.888 28.6148 
-0.616072 20.5586 28.3967 -2.88851 19.6267 28.3356 -0.300225 20.2257 28.6939 
0.44548 20.1303 28.5867 1.68007 20.0213 28.6905 2.61674 19.538 28.9715 
2.28091 19.5729 28.3051 -2.41779 18.5501 29.1142 -2.72937 18.5548 28.4426 
2.78527 18.7669 28.9747 2.37412 18.4744 28.3535 -2.30579 17.7137 28.9585 
-2.67099 17.4179 28.3562 2.73741 17.7293 28.9838 2.31599 17.4332 28.3584 
-2.29797 16.701 28.9767 -2.71088 16.3998 28.3876 2.70186 16.7256 28.9639 
2.32519 16.4429 28.3415 -2.32264 15.76 28.9086 -2.64608 15.5639 28.1785 
2.71191 15.719 28.9465 2.3517 15.4268 28.3322 -2.13137 15.0833 28.4089 
-1.7082 14.4952 28.6529 2.59287 14.4793 29.0546 2.16134 14.4797 28.3619 
-1.37414 13.8537 28.5919 -1.17066 13.3682 28.8506 -0.866976 13.5819 28.0727 
1.07463 13.4334 28.9181 0.380737 13.3437 28.5502 0.844994 13.6827 28.1242 
1.60229 13.9149 28.3548 1.87958 13.6976 29.0141 -0.400562 13.1409 28.6227 
-2.3969 21.1229 27.4062 -2.79629 20.5152 27.5972 -1.63123 21.1698 27.6347 
0.0624628 20.4773 27.981 -0.462167 20.9846 27.5248 1.01805 20.4816 27.9227 
0.719457 20.8514 27.3015 1.77352 20.3436 27.9478 1.5098 20.7457 27.4212 
2.04866 20.3881 27.3917 -2.8838 19.4917 27.448 2.2531 19.5017 27.471 
-2.83198 18.4273 27.4703 2.19601 18.4458 27.5041 -2.85193 17.3823 27.5285 
2.16063 17.4309 27.4989 -2.88225 16.3808 27.5428 2.20719 16.4291 27.4854 
-2.6727 15.6626 27.3206 2.23521 15.4189 27.4981 -2.21343 15.1378 27.57 
-1.58842 14.7418 27.7034 -1.25158 14.2458 28.0327 -1.02548 14.2863 27.3336 
2.02693 14.5547 27.5764 -0.589902 13.67 27.1865 0.129121 13.395 27.8041 
0.480486 13.7259 27.2414 1.37101 14.0762 27.3937 -0.379443 13.2642 27.6847 
-2.06173 21.5702 26.8949 -2.25483 21.9048 26.1003 -2.7064 21.3073 26.6463 
-1.09524 21.525 26.9774 -1.35423 21.9521 26.3056 -0.248495 21.4363 26.7914 
-0.373108 21.8364 26.2987 0.318782 21.6251 26.2584 -2.89804 20.5438 26.4417 
0.521385 21.2312 26.6967 1.53523 21.0513 26.6599 2.17685 20.5998 26.3721 
-2.87154 19.502 26.4015 2.26094 19.5228 26.4606 -2.85868 18.4683 26.4552 
2.20914 18.517 26.475 -2.89374 17.4341 26.5119 2.2104 17.5174 26.4577 
-2.77208 16.4465 26.4202 2.24375 16.4809 26.4794 -2.28749 15.8116 26.4307 
-2.18779 15.3864 26.9228 -1.75831 15.5292 26.327 2.10203 15.3816 26.6114 
-1.51687 15.0038 26.8091 -0.824169 14.4837 26.2609 1.84901 14.5929 26.9326 
1.40269 14.5141 26.527 1.8056 14.9133 26.4931 -0.178091 13.8125 26.6035 
-0.133106 13.4569 27.1991 0.567462 14.0618 26.3839 -2.13018 21.8665 25.4354 
-2.69574 21.447 25.7387 -1.34531 21.9663 25.5646 -0.295771 21.9193 25.5938 
1.12139 21.5776 25.9874 0.723643 21.8341 25.5817 1.8315 21.4117 25.8977 
[...]
CELL_DATA 972
SCALARS scalars float
LOOKUP_TABLE default
254 254 254 254 254 254 254 254 254 
254 254 254 254 254 254 254 254 254 
254 254 254 254 254 254 254 254 254 
254 254 254 254 254 254 254 254 254 
254 254 254 254 254 254 254 254 254 
254 254 254 254 254 254 254 254 254 
254 254 254 254 254 254 254 254 254 
254 254 254 254 254 254 254 254 254 
254 254 254 254 254 254 254 254 254 
254 254 254 254 254 254 254 254 254 
254 254 254 254 254 254 254 254 254 
254 254 254 254 254 254 254 254 254 
254 254 254 254 254 254 254 254 254 
254 254 254 254 254 254 254 254 254 
254 254 254 254 254 254 254 254 254 
254 254 254 254 254 254 254 254 254 
254 254 254 254 254 254 254 254 254 
254 254 254 254 254 254 254 254 254 
254 254 254 254 254 254 254 254 254 
254 254 254 254 254 254 254 254 254 
254 254 254 254 254 254 254 254 254 
254 254 254 254 254 254 254 254 254 
254 254 254 254 254 254 254 254 254 
254 254 254 254 254 254 254 254 254 
254 254 254 254 254 254 254 254 254 
254 254 254 254 254 254 254 254 254 
254 254 254 254 254 254 254 254 254 
254 254 254 254 254 254 254 254 254 
254 254 254 254 254 254 254 254 254 
254 254 254 254 254 254 254 254 254 
254 254 254 254 254 254 254 254 254 
254 254 254 254 254 254 254 254 254 
254 254 254 254 254 254 254 254 254 
254 254 254 254 254 254 254 254 254 
254 254 254 254 254 254 254 254 254 
254 254 254 254 254 254 254 254 254 
254 254 254 254 254 254 254 254 254 
254 254 254 254 254 254 254 254 254 
254 254 254 254 254 254 254 254 254 
254 254 254 254 254 254 254 254 254 
254 254 254 254 254 254 254 254 254 
254 254 254 254 254 254 254 254 254 
254 254 254 254 254 254 254 254 254 
254 254 254 254 254 254 254 254 254 
254 254 254 254 254 254 254 254 254 
254 254 254 254 254 254 254 254 254 
254 254 254 254 254 254 254 254 254 
254 254 254 254 254 254 254 254 254 
254 254 254 254 254 254 254 254 254 
254 254 254 254 254 254 254 254 254 
254 254 254 254 254 254 254 254 254 
254 254 254 254 254 254 254 254 254 
254 254 254 254 254 254 254 254 254 
254 254 254 254 254 254 254 254 254 
254 254 254 254 254 254 254 254 254 
254 254 254 254 254 254 254 254 254 
254 254 254 254 254 254 254 254 254 
254 254 254 254 254 254 254 254 254 
254 254 254 254 254 254 254 254 254 
254 254 254 254 254 254 254 254 254 
254 254 254 254 254 254 254 254 254 
254 254 254 254 254 254 254 254 254 
254 254 254 254 254 254 254 254 254 
254 254 254 254 254 254 254 254 254 
254 254 254 254 254 254 254 254 254 
254 254 254 254 254 254 254 254 254 
254 254 254 254 254 254 254 254 254 
254 254 254 254 254 254 254 254 254 
254 254 254 254 254 254 254 254 254 
254 254 254 254 254 254 254 254 254 
254 254 254 254 254 254 254 254 254 
254 254 254 254 254 254 254 254 254 
254 254 254 254 254 254 254 254 254 
254 254 254 254 254 254 254 254 254 
254 254 254 254 254 254 254 254 254 
254 254 254 254 254 254 254 254 254 
254 254 254 254 254 254 254 254 254 
254 254 254 254 254 254 254 254 254 
254 254 254 254 254 254 254 254 254 
254 254 254 254 254 254 254 254 254 
254 254 254 254 254 254 254 254 254 
254 254 254 254 254 254 254 254 254 
254 254 254 254 254 254 254 254 254 
254 254 254 254 254 254 254 254 254 
254 254 254 254 254 254 254 254 254 
254 254 254 254 254 254 254 254 254 
254 254 254 254 254 254 254 254 254 
254 254 254 254 254 254 254 254 254 
254 254 254 254 254 254 254 254 254 
254 254 254 254 254 254 254 254 254 
254 254 254 254 254 254 254 254 254 
254 254 254 254 254 254 254 254 254 
254 254 254 254 254 254 254 254 254 
254 254 254 254 254 254 254 254 254 
254 254 254 254 254 254 254 254 254 
254 254 254 254 254 254 254 254 254 
254 254 254 254 254 254 254 254 254 
254 254 254 254 254 254 254 254 254 
254 254 254 254 254 254 254 254 254 
254 254 254 254 254 254 254 254 254 
254 254 254 254 254 254 254 254 254 
254 254 254 254 254 254 254 254 254 
254 254 254 254 254 254 254 254 254 
254 254 254 254 254 254 254 254 254 
254 254 254 254 254 254 254 254 254 
254 254 254 254 254 254 254 254 254 
254 254 254 254 254 254 254 254 254 
254 254 254 254 254 254 254 254 254 

