# vtk DataFile Version 4.2
vtk output
ASCII
DATASET POLYDATA
POINTS 564 float
1.84759 -8.74195 -1.25071 1.98465 -8.46134 -1.64493 2.21583 -8.80349 -1.42647 
1.26004 -8.74184 -1.2112 1.44321 -8.42573 -1.53631 0.611105 -8.74265 -1.21658 
0.812375 -8.43257 -1.53864 -0.0199036 -8.76427 -1.20034 0.179636 -8.43441 -1.5278 
-0.473154 -8.83119 -1.26075 -0.309137 -8.51651 -1.44257 -0.611966 -8.67118 -1.57577 
1.98643 -9.27816 -1.20605 2.28881 -9.28162 -1.51818 1.44881 -9.28272 -1.12924 
0.816605 -9.28174 -1.13023 0.177548 -9.28835 -1.12284 -0.379459 -9.30476 -1.19678 
-0.696002 -9.14515 -1.5071 2.05722 -9.75604 -1.30147 2.2442 -9.94184 -1.66613 
1.60888 -9.8149 -1.22854 0.990225 -9.81678 -1.24269 0.34985 -9.81897 -1.23463 
-0.237268 -9.84714 -1.26041 -0.651215 -9.83154 -1.57259 1.83448 -10.1815 -1.46208 
1.2528 -10.2094 -1.47971 0.61192 -10.2064 -1.48521 -0.00916443 -10.237 -1.46626 
-0.455392 -10.252 -1.54426 1.97238 -8.42066 -2.22714 2.28965 -8.73327 -1.88449 
1.44436 -8.35394 -2.07496 0.820624 -8.36037 -2.06882 0.29512 -8.35181 -1.98171 
-0.290469 -8.3529 -2.04022 -0.698053 -8.61774 -2.09642 2.36039 -9.27525 -2.06586 
-0.774161 -9.30221 -2.0539 2.34614 -9.8041 -2.18456 -0.75498 -9.84368 -2.15646 
1.94366 -10.5805 -1.70518 2.26405 -10.4598 -2.06146 1.39942 -10.6051 -1.68236 
0.767523 -10.5939 -1.70403 0.137585 -10.6175 -1.69136 -0.386545 -10.6342 -1.7564 
-0.685455 -10.3809 -2.03068 1.95202 -11.0876 -1.85865 2.20048 -11.0472 -2.23861 
1.43896 -11.1189 -1.76121 0.808704 -11.1132 -1.77663 0.173987 -11.1272 -1.77317 
-0.366998 -11.1492 -1.84068 -0.680914 -10.9933 -2.13778 1.93857 -11.432 -2.04957 
1.68304 -11.8114 -2.25893 1.54581 -11.5599 -1.88263 0.962045 -11.6193 -1.84509 
0.322604 -11.6413 -1.8494 -0.261108 -11.6595 -1.88064 -0.642435 -11.5472 -2.13089 
1.20149 -11.9732 -2.05879 0.608487 -12.024 -2.05345 -0.0113068 -12.0328 -2.16462 
-0.458716 -11.895 -2.19502 -0.496866 -8.13416 -2.46502 -0.412152 -7.922 -2.87551 
-0.24711 -8.0903 -2.67548 -0.63902 -8.11604 -2.77343 1.94279 -8.42856 -2.84799 
2.26439 -8.72858 -2.51115 1.42118 -8.3666 -2.68932 0.787692 -8.37433 -2.70396 
0.163193 -8.28685 -2.63942 -0.765106 -8.66266 -2.69853 2.33119 -9.26166 -2.69037 
-0.767871 -9.29662 -2.69488 2.3183 -9.8843 -2.69355 -0.752087 -9.90835 -2.70106 
2.30713 -10.5019 -2.68399 -0.761948 -10.5198 -2.68823 2.22 -11.0144 -2.8463 
-0.772412 -11.1256 -2.66906 2.01852 -11.4206 -2.50616 1.81029 -11.6981 -2.77468 
-0.679578 -11.6424 -2.66349 1.30378 -12.3572 -2.30609 1.62936 -12.2218 -2.68752 
0.769849 -12.4071 -2.25743 0.249609 -12.3949 -2.36463 -0.0789185 -12.3033 -2.6154 
-0.383679 -12.0169 -2.73588 1.33992 -12.8999 -2.41566 1.6262 -12.8821 -2.74054 
0.810114 -12.9244 -2.34061 0.275995 -12.9088 -2.4548 -0.0410797 -12.7376 -2.75864 
1.42828 -13.3711 -2.49054 1.61636 -13.5412 -2.84915 0.960461 -13.4333 -2.4156 
0.36926 -13.4471 -2.48549 -0.0380493 -13.4083 -2.83389 1.19733 -13.7973 -2.62377 
0.593427 -13.8538 -2.63454 0.130847 -13.8417 -2.76328 -0.486035 -7.91962 -3.20803 
-0.197772 -8.03571 -3.14877 -0.64986 -8.24199 -3.37408 1.94354 -8.43686 -3.44708 
2.23385 -8.73296 -3.13757 1.40609 -8.36633 -3.29848 0.784222 -8.38637 -3.31873 
0.126627 -8.29167 -3.38584 -0.76246 -8.7538 -3.23465 2.30283 -9.277 -3.30297 
-0.749881 -9.28563 -3.32168 2.2976 -9.90595 -3.30244 -0.744003 -9.91036 -3.32272 
2.294 -10.5086 -3.31407 -0.755264 -10.5239 -3.29832 2.18975 -11.0172 -3.48232 
-0.75499 -11.1242 -3.29035 1.98975 -11.3836 -3.14126 1.75574 -11.7599 -3.30175 
-0.683249 -11.687 -3.37944 1.67136 -12.2811 -3.30379 -0.249976 -12.3869 -3.07803 
-0.49053 -12.0883 -3.33923 1.68483 -12.8785 -3.29479 -0.212119 -12.9861 -3.28691 
1.70302 -13.3862 -3.3752 -0.159915 -13.518 -3.27579 1.34333 -14.1969 -2.88591 
1.66779 -14.0663 -3.27193 0.768549 -14.2538 -2.84611 0.206808 -14.2398 -2.9526 
-0.101202 -13.9704 -3.23649 1.43175 -14.6295 -3.09999 1.62566 -14.6867 -3.48178 
0.952863 -14.7033 -3.02765 0.363986 -14.6954 -3.0904 -0.0114075 -14.5512 -3.32846 
1.22195 -14.9686 -3.34182 0.685245 -14.9877 -3.28027 0.292639 -14.9103 -3.43807 
-0.360287 -8.08119 -3.51857 2.05399 -8.42889 -4.05381 2.32438 -8.78905 -3.75918 
1.40416 -8.36215 -3.90103 0.771872 -8.38253 -3.90591 0.246689 -8.38141 -3.85808 
-0.311499 -8.35933 -3.89922 -0.646207 -8.75914 -3.81338 2.38437 -9.43282 -3.8308 
-0.655948 -9.43367 -3.84369 2.37948 -10.0652 -3.81889 -0.640924 -10.0586 -3.82455 
2.36316 -10.6694 -3.83748 -0.645612 -10.6581 -3.81933 2.22316 -11.1441 -3.92136 
-0.674716 -11.2738 -3.93821 1.9626 -11.4301 -3.72497 1.79154 -11.8816 -3.84602 
-0.751245 -11.6858 -3.92321 1.72971 -12.4519 -3.95636 -0.445486 -12.4885 -3.56612 
-0.686005 -12.1149 -3.8879 1.67796 -12.9682 -3.81722 -0.397632 -12.9544 -3.72798 
-0.621817 -12.6974 -4.01705 1.70643 -13.4994 -3.88358 -0.231244 -13.5034 -3.73234 
-0.455621 -13.1652 -4.12854 1.73093 -14.1358 -3.90214 -0.104947 -14.1841 -3.86095 
1.63346 -14.6043 -4.03006 0.0669067 -14.6723 -3.6677 0.398227 -14.8213 -3.81527 
0.263214 -14.4988 -4.13181 1.42948 -14.9421 -3.75031 0.877093 -14.9876 -3.73079 
2.54543 -8.65561 -4.18381 2.4887 -8.48415 -4.58598 2.7946 -8.80757 -4.4797 
1.90319 -8.38535 -4.58283 1.38022 -8.37713 -4.50478 0.754065 -8.38284 -4.50962 
0.113132 -8.45224 -4.3759 -0.365414 -8.65875 -4.25411 -0.159146 -8.76758 -4.62041 
2.62838 -9.1023 -4.19674 2.8554 -9.27788 -4.57728 -0.447171 -9.1118 -4.23955 
-0.218509 -9.29233 -4.59932 2.61171 -9.72076 -4.21593 2.83691 -9.89539 -4.58812 
-0.425061 -9.73001 -4.20393 -0.190878 -9.9091 -4.55776 2.59838 -10.3521 -4.19595 
2.82324 -10.5142 -4.56568 -0.404123 -10.338 -4.18339 -0.174792 -10.5176 -4.5588 
2.52155 -11.047 -4.19471 2.82256 -11.1328 -4.54423 -0.415347 -10.908 -4.23776 
-0.202524 -11.1496 -4.68938 2.52793 -11.7022 -4.25888 2.84272 -11.7419 -4.5329 
2.13303 -11.5782 -4.08808 -0.465848 -11.3698 -4.40583 -0.644312 -11.8091 -4.36939 
2.59681 -12.182 -4.32436 2.81972 -12.3673 -4.65929 2.11117 -12.1575 -4.21576 
-0.661496 -12.4548 -4.42982 2.3984 -12.568 -4.48937 1.97057 -12.5879 -4.42445 
1.78591 -12.9973 -4.37924 -0.607471 -12.9125 -4.38772 1.76076 -13.6064 -4.36391 
-0.186951 -13.5951 -4.41603 -0.45553 -13.1717 -4.4636 1.65668 -14.07 -4.51376 
0.0137695 -14.1504 -4.38466 1.42385 -14.4525 -4.42949 1.25033 -14.7676 -4.1526 
0.866949 -14.448 -4.46921 0.741714 -14.7361 -4.11732 0.335403 -14.2811 -4.53726 
2.56923 -8.45374 -5.24634 2.85926 -8.77383 -4.93077 2.02224 -8.39247 -5.08847 
1.39003 -8.3933 -5.09468 0.769217 -8.38839 -5.1146 0.226895 -8.47749 -4.97033 
-0.0552704 -8.77623 -5.11611 2.93806 -9.29753 -5.08885 -0.1216 -9.30978 -5.08941 
2.92056 -9.91626 -5.09328 -0.0952881 -9.93179 -5.05741 2.9135 -10.5177 -5.07206 
-0.0836884 -10.5368 -5.07145 2.91929 -11.119 -5.04812 -0.0883575 -11.0366 -5.17511 
2.92886 -11.7293 -5.04452 -0.375595 -11.6692 -4.70204 -0.176541 -11.6513 -5.09927 
2.93903 -12.2352 -5.13822 -0.432147 -12.1703 -4.80223 -0.204703 -12.3093 -5.16906 
2.53856 -12.9303 -4.77026 2.83948 -12.8053 -5.14721 2.13044 -12.9026 -4.65206 
-0.357413 -12.8987 -4.74557 -0.0917175 -12.8754 -5.17137 2.5452 -13.2395 -5.0686 
2.28901 -13.5374 -5.29092 2.0175 -13.4503 -4.83698 0.12117 -13.4828 -4.87334 
0.461215 -13.6098 -5.10392 0.173758 -13.265 -5.28509 1.88741 -13.7392 -5.26164 
1.44758 -13.8598 -5.13236 1.20592 -14.1434 -4.78496 0.863516 -13.8235 -5.18227 
0.6065 -14.0149 -4.82334 0.161353 -13.9733 -4.66802 2.64507 -8.31726 -5.74267 
2.87874 -8.6729 -5.63 2.19683 -8.29522 -5.6101 1.57142 -8.31443 -5.59977 
0.923099 -8.30585 -5.63443 0.287311 -8.37394 -5.58385 -0.0773529 -8.63434 -5.7433 
2.92879 -9.28206 -5.70835 -0.124429 -9.28804 -5.68133 2.90474 -9.90161 -5.6949 
-0.0960846 -9.91458 -5.66462 2.89917 -10.5018 -5.68138 -0.0859863 -10.5164 -5.67017 
2.90286 -11.1065 -5.66799 -0.0916351 -11.1166 -5.67672 2.91644 -11.7169 -5.65323 
-0.110541 -11.7233 -5.6763 2.93 -12.3245 -5.65026 -0.122928 -12.3199 -5.66618 
2.84708 -12.863 -5.80828 -0.0572021 -12.9199 -5.74491 2.57005 -13.2504 -5.59908 
2.23515 -13.501 -5.72528 0.527985 -13.5106 -5.4927 0.282312 -13.3565 -5.85997 
2.01911 -13.6899 -5.56528 1.5645 -13.7421 -5.6267 1.00223 -13.6835 -5.618 
2.44205 -8.07142 -6.02554 2.56416 -7.89427 -6.47619 2.82092 -8.22069 -6.17291 
1.85973 -8.08442 -5.97784 2.02794 -7.85262 -6.36088 1.21321 -8.0824 -6.01192 
1.39151 -7.85349 -6.38254 0.586844 -8.06688 -6.0245 0.754642 -7.83683 -6.40001 
0.137906 -8.14779 -6.02688 0.280518 -7.89448 -6.32558 -0.0402466 -8.12615 -6.3623 
2.9328 -8.67129 -6.29704 -0.157471 -8.65807 -6.31918 2.90712 -9.28545 -6.32328 
-0.133328 -9.28744 -6.29368 2.88342 -9.90046 -6.30477 -0.107547 -9.90672 -6.28808 
2.88114 -10.4996 -6.29935 -0.101422 -10.5123 -6.28828 2.88476 -11.1031 -6.29222 
-0.100085 -11.1116 -6.28822 2.90164 -11.7204 -6.26619 -0.110989 -11.7107 -6.27569 
2.91726 -12.3393 -6.25991 -0.135791 -12.3151 -6.27312 2.83334 -12.8783 -6.42154 
-0.138565 -12.8343 -6.36448 2.55504 -13.1794 -6.26118 2.06602 -13.3105 -6.25151 
1.80738 -13.5322 -5.96287 1.38623 -13.3061 -6.39291 1.21804 -13.511 -6.01712 
0.722644 -13.3371 -6.31523 0.720108 -13.4589 -5.89487 0.170956 -13.5508 -6.1048 
0.295917 -13.4919 -6.299 0.00843201 -13.3479 -6.21309 0.148709 -13.6111 -6.26877 
2.56405 -7.84195 -7.03408 2.86584 -8.14849 -6.73662 2.04198 -7.77601 -6.87538 
1.41143 -7.76124 -6.88883 0.771185 -7.74556 -6.91192 0.236243 -7.82054 -6.76102 
-0.0878998 -8.12521 -6.92333 2.92409 -8.66834 -6.90545 -0.157288 -8.66505 -6.92358 
2.89297 -9.29527 -6.91627 -0.127707 -9.28786 -6.9006 2.87852 -9.90374 -6.90189 
-0.109167 -9.90396 -6.89619 2.87811 -10.5002 -6.9018 -0.106247 -10.5045 -6.89835 
2.88102 -11.1 -6.89751 -0.106897 -11.1014 -6.89678 2.89865 -11.7158 -6.86939 
-0.1189 -11.7066 -6.88911 2.91496 -12.3458 -6.86421 -0.143958 -12.3284 -6.89559 
2.83102 -12.8945 -7.04156 -0.0756226 -12.9842 -6.85849 2.61312 -13.1675 -6.783 
2.18202 -13.1719 -6.91853 1.55762 -13.1391 -6.81792 0.837424 -13.1627 -6.8941 
0.256668 -13.2561 -6.85874 0.10936 -13.4574 -6.52076 2.54175 -7.71879 -7.5764 
[...]
CELL_DATA 1124
SCALARS scalars float
LOOKUP_TABLE default
252 252 252 252 252 252 252 252 252 
252 252 252 252 252 252 252 252 252 
252 252 252 252 252 252 252 252 252 
252 252 252 252 252 252 252 252 252 
252 252 252 252 252 252 252 252 252 
252 252 252 252 252 252 252 252 252 
252 252 252 252 252 252 252 252 252 
252 252 252 252 252 252 252 252 252 
252 252 252 252 252 252 252 252 252 
252 252 252 252 252 252 252 252 252 
252 252 252 252 252 252 252 252 252 
252 252 252 252 252 252 252 252 252 
252 252 252 252 252 252 252 252 252 
252 252 252 252 252 252 252 252 252 
252 252 252 252 252 252 252 252 252 
252 252 252 252 252 252 252 252 252 
252 252 252 252 252 252 252 252 252 
252 252 252 252 252 252 252 252 252 
252 252 252 252 252 252 252 252 252 
252 252 252 252 252 252 252 252 252 
252 252 252 252 252 252 252 252 252 
252 252 252 252 252 252 252 252 252 
252 252 252 252 252 252 252 252 252 
252 252 252 252 252 252 252 252 252 
252 252 252 252 252 252 252 252 252 
252 252 252 252 252 252 252 252 252 
252 252 252 252 252 252 252 252 252 
252 252 252 252 252 252 252 252 252 
252 252 252 252 252 252 252 252 252 
252 252 252 252 252 252 252 252 252 
252 252 252 252 252 252 252 252 252 
252 252 252 252 252 252 252 252 252 
252 252 252 252 252 252 252 252 252 
252 252 252 252 252 252 252 252 252 
252 252 252 252 252 252 252 252 252 
252 252 252 252 252 252 252 252 252 
252 252 252 252 252 252 252 252 252 
252 252 252 252 252 252 252 252 252 
252 252 252 252 252 252 252 252 252 
252 252 252 252 252 252 252 252 252 
252 252 252 252 252 252 252 252 252 
252 252 252 252 252 252 252 252 252 
252 252 252 252 252 252 252 252 252 
252 252 252 252 252 252 252 252 252 
252 252 252 252 252 252 252 252 252 
252 252 252 252 252 252 252 252 252 
252 252 252 252 252 252 252 252 252 
252 252 252 252 252 252 252 252 252 
252 252 252 252 252 252 252 252 252 
252 252 252 252 252 252 252 252 252 
252 252 252 252 252 252 252 252 252 
252 252 252 252 252 252 252 252 252 
252 252 252 252 252 252 252 252 252 
252 252 252 252 252 252 252 252 252 
252 252 252 252 252 252 252 252 252 
252 252 252 252 252 252 252 252 252 
252 252 252 252 252 252 252 252 252 
252 252 252 252 252 252 252 252 252 
252 252 252 252 252 252 252 252 252 
252 252 252 252 252 252 252 252 252 
252 252 252 252 252 252 252 252 252 
252 252 252 252 252 252 252 252 252 
252 252 252 252 252 252 252 252 252 
252 252 252 252 252 252 252 252 252 
252 252 252 252 252 252 252 252 252 
252 252 252 252 252 252 252 252 252 
252 252 252 252 252 252 252 252 252 
252 252 252 252 252 252 252 252 252 
252 252 252 252 252 252 252 252 252 
252 252 252 252 252 252 252 252 252 
252 252 252 252 252 252 252 252 252 
252 252 252 252 252 252 252 252 252 
252 252 252 252 252 252 252 252 252 
252 252 252 252 252 252 252 252 252 
252 252 252 252 252 252 252 252 252 
252 252 252 252 252 252 252 252 252 
252 252 252 252 252 252 252 252 252 
252 252 252 252 252 252 252 252 252 
252 252 252 252 252 252 252 252 252 
252 252 252 252 252 252 252 252 252 
252 252 252 252 252 252 252 252 252 
252 252 252 252 252 252 252 252 252 
252 252 252 252 252 252 252 252 252 
252 252 252 252 252 252 252 252 252 
252 252 252 252 252 252 252 252 252 
252 252 252 252 252 252 252 252 252 
252 252 252 252 252 252 252 252 252 
252 252 252 252 252 252 252 252 252 
252 252 252 252 252 252 252 252 252 
252 252 252 252 252 252 252 252 252 
252 252 252 252 252 252 252 252 252 
252 252 252 252 252 252 252 252 252 
252 252 252 252 252 252 252 252 252 
252 252 252 252 252 252 252 252 252 
252 252 252 252 252 252 252 252 252 
252 252 252 252 252 252 252 252 252 
252 252 252 252 252 252 252 252 252 
252 252 252 252 252 252 252 252 252 
252 252 252 252 252 252 252 252 252 
252 252 252 252 252 252 252 252 252 
252 252 252 252 252 252 252 252 252 
252 252 252 252 252 252 252 252 252 
252 252 252 252 252 252 252 252 252 
252 252 252 252 252 252 252 252 252 
252 252 252 252 252 252 252 252 252 
252 252 252 252 252 252 252 252 252 
252 252 252 252 252 252 252 252 252 
252 252 252 252 252 252 252 252 252 
252 252 252 252 252 252 252 252 252 
252 252 252 252 252 252 252 252 252 
252 252 252 252 252 252 252 252 252 
252 252 252 252 252 252 252 252 252 
252 252 252 252 252 252 252 252 252 
252 252 252 252 252 252 252 252 252 
252 252 252 252 252 252 252 252 252 
252 252 252 252 252 252 252 252 252 
252 252 252 252 252 252 252 252 252 
252 252 252 252 252 252 252 252 252 
252 252 252 252 252 252 252 252 252 
252 252 252 252 252 252 252 252 252 
252 252 252 252 252 252 252 252 252 
252 252 252 252 252 252 252 252 252 
252 252 252 252 252 252 252 252 252 
252 252 252 252 252 252 252 252 252 
252 252 252 252 252 252 252 252 
