# vtk DataFile Version 4.2
vtk output
ASCII
DATASET POLYDATA
POINTS 564 float
3.06564 11.8822 26.3968 3.29411 11.2252 26.8645 3.67947 11.5894 26.2944 
2.08636 11.9478 26.3967 2.39165 11.406 26.9237 1.00481 11.9385 26.3951 
1.34026 11.4018 26.912 -0.0468718 11.9653 26.3588 0.285692 11.4196 26.9086 
-0.802233 11.8645 26.2471 -0.52893 11.5615 26.7716 -1.03352 11.3394 26.5137 
3.29724 11.9567 25.5032 3.80135 11.4366 25.4975 2.40118 12.0845 25.4953 
1.3475 12.0825 25.4967 0.282409 12.0946 25.4854 -0.645896 11.9711 25.4578 
-1.1734 11.4538 25.7237 3.41548 11.7977 24.7067 3.72736 11.19 24.3972 
2.66824 11.919 24.6084 1.63715 11.8952 24.605 0.56986 11.9083 24.6011 
-0.408648 11.8651 24.5539 -1.09843 11.3446 24.5797 3.0445 11.5299 23.9975 
2.07505 11.5003 23.9508 1.00692 11.4908 23.9555 -0.028215 11.5221 23.9042 
-0.771888 11.3919 23.8791 3.2739 10.2549 26.9323 3.80267 10.8261 26.4114 
2.39378 10.5083 27.0433 1.35421 10.5182 27.0323 0.478329 10.6632 27.0464 
-0.497628 10.5654 27.0443 -1.17679 10.4716 26.6027 3.92089 10.5238 25.5082 
-1.30336 10.5424 25.4619 3.89742 10.326 24.6268 -1.27111 10.3715 24.5595 
3.22675 11.1248 23.3325 3.76083 10.5311 23.534 2.31969 11.1626 23.2914 
1.26652 11.1262 23.3098 0.216632 11.147 23.2701 -0.656883 11.0384 23.2421 
-1.15506 10.5811 23.6641 3.24097 10.869 22.4875 3.65521 10.2358 22.5549 
2.38584 11.0312 22.435 1.33542 11.0052 22.4442 0.277559 11.0107 22.4206 
-0.624044 10.8979 22.3838 -1.14718 10.4026 22.6434 3.21878 10.5508 21.9134 
2.79316 10.2017 21.2809 2.56416 10.8289 21.7001 1.59124 10.8912 21.6009 
0.525512 10.8837 21.5639 -0.447321 10.8314 21.5332 -1.0828 10.4141 21.7203 
1.99056 10.5351 21.0111 1.00224 10.5437 20.9261 -0.0306979 10.3582 20.9112 
-0.776426 10.3073 21.1408 -0.841532 9.85732 27.4088 -0.700256 9.1732 27.7624 
-0.4252 9.50666 27.482 -1.07833 9.34324 27.4389 3.22486 9.2201 26.9191 
3.76084 9.78165 26.4193 2.35541 9.48433 27.0222 1.29961 9.45965 27.009 
0.258708 9.56693 27.1546 -1.28827 9.46802 26.5278 3.87249 9.48297 25.5308 
-1.2926 9.47409 25.4712 3.85128 9.47767 24.4931 -1.26602 9.46381 24.4517 
3.83292 9.49359 23.4638 -1.2822 9.48519 23.4325 3.688 9.22303 22.6095 
-1.29938 9.51714 22.4229 3.35223 9.78985 21.9325 3.00542 9.34222 21.4699 
-1.14444 9.52645 21.5617 2.16132 10.123 20.3711 2.70406 9.48741 20.5969 
1.27143 10.2039 20.2877 0.404407 10.025 20.3078 -0.14307 9.60687 20.4604 
-0.651076 9.40593 20.9376 2.22183 9.94038 19.4667 2.6991 9.39905 19.4965 
1.3388 10.0652 19.4256 0.448647 9.87468 19.4513 -0.0797532 9.36816 19.7365 
2.36934 9.81563 18.6814 2.68303 9.21802 18.398 1.58964 9.94032 18.5775 
0.604336 9.82358 18.5542 -0.0743772 9.24273 18.6187 1.98466 9.59347 17.971 
0.97819 9.57527 17.8765 0.207275 9.3605 17.8965 -0.823251 8.61897 27.7663 
-0.342788 8.71787 27.573 -1.09608 8.34216 27.229 3.22637 8.22161 26.9053 
3.71022 8.7376 26.412 2.33053 8.46905 27.0226 1.2941 8.43503 26.989 
0.198092 8.32289 27.1465 -1.28358 8.57448 26.3759 3.8255 8.46196 25.5052 
-1.26235 8.42945 25.4895 3.81705 8.46284 24.457 -1.25228 8.42771 24.4483 
3.81132 8.44345 23.4526 -1.27079 8.46838 23.4257 3.63786 8.16298 22.6049 
-1.27007 8.48165 22.4252 3.30454 8.73134 21.9942 2.91475 8.46374 21.3669 
-1.15022 8.3332 21.4873 2.77436 8.46032 20.4981 -0.427927 8.83574 20.3209 
-0.828868 8.4003 20.8185 2.79705 8.47532 19.5024 -0.364479 8.48762 19.3223 
2.82763 8.34131 18.6564 -0.277246 8.50618 18.4358 2.2283 9.15663 17.3049 
2.76917 8.51341 17.5228 1.27033 9.22271 17.2099 0.334133 9.04499 17.2331 
-0.179212 8.57171 17.6818 2.37594 8.79987 16.5841 2.69931 8.16365 16.4888 
1.57779 8.92023 16.4608 0.596355 8.81539 16.4738 -0.0292601 8.41846 16.7139 
2.02653 8.39674 16.0187 1.132 8.49907 15.9868 0.477689 8.23592 16.1156 
-0.613465 8.10145 27.4971 3.41071 7.21044 26.9187 3.86139 7.70162 26.3185 
2.32757 7.4648 27.0296 1.27377 7.45639 26.9954 0.398441 7.53588 26.997 
-0.531864 7.46707 27.0336 -1.08957 7.60999 26.3671 3.96168 7.58227 25.2456 
-1.1055 7.55947 25.2428 3.95381 7.60212 24.1917 -1.0802 7.59137 24.2012 
3.92689 7.57113 23.1846 -1.08775 7.60007 23.2021 3.69379 7.43126 22.3933 
-1.13594 7.40192 22.1759 3.25956 7.75847 21.9165 2.97471 7.55665 21.164 
-1.26331 7.42689 21.4892 2.87196 7.37273 20.2134 -0.753521 8.02218 20.1515 
-1.15441 7.48577 20.7741 2.78588 7.6046 19.353 -0.673489 7.75243 19.3751 
-1.04712 7.27055 19.8033 2.83359 7.49401 18.4676 -0.395935 7.74523 18.4601 
-0.769872 7.0848 19.0238 2.87471 7.46308 17.407 -0.185087 7.53093 17.3256 
2.71252 7.24985 16.6261 0.101464 7.8531 16.512 0.653794 7.60729 16.264 
0.42877 7.07966 16.8014 2.37257 7.716 16.063 1.45194 7.7483 15.987 
4.22994 6.99399 26.541 4.13548 6.32369 26.8267 4.64541 6.50096 26.2878 
3.15959 6.32868 26.9911 2.28794 6.45853 27.0046 1.24435 6.4502 26.9948 
0.176102 6.67279 26.8789 -0.621438 6.87555 26.5345 -0.27745 6.26514 26.3532 
4.36839 6.97248 25.7966 4.747 6.33835 25.504 -0.757507 6.89979 25.7794 
-0.376168 6.30027 25.4786 4.34088 6.94048 24.7658 4.71645 6.32027 24.4748 
-0.720403 6.95916 24.749 -0.329866 6.36955 24.4507 4.31893 6.97379 23.7136 
4.69393 6.35767 23.4435 -0.68525 6.99341 23.7358 -0.302791 6.36782 23.4365 
4.19118 6.97582 22.5553 4.69306 6.39341 22.4124 -0.703685 6.90279 22.7857 
-0.348677 6.15018 22.3831 4.20213 6.86887 21.4633 4.72691 6.41231 21.3973 
3.54383 7.15336 21.6698 -0.787578 6.62264 22.016 -1.08484 6.6833 21.2837 
4.31716 6.75976 20.6637 4.68891 6.20165 20.355 3.50771 6.94056 20.7043 
-1.11317 6.58257 20.2076 3.98672 6.48466 20.0203 3.27365 6.59268 19.9869 
2.96605 6.66794 19.3045 -1.02295 6.65276 19.4447 2.92438 6.69349 18.2893 
-0.321775 6.60576 18.3073 -0.76957 6.52636 19.0129 2.7512 6.44368 17.5166 
0.0129874 6.65814 17.3819 2.36327 6.58404 16.8791 2.07408 7.04544 16.3539 
1.43512 6.5176 16.8863 1.22637 7.10403 16.406 0.549167 6.40394 17.1643 
4.26998 5.22312 26.8775 4.75337 5.7492 26.3441 3.35824 5.48599 26.9793 
2.30456 5.47538 26.9777 1.26987 5.44191 26.9856 0.365978 5.68211 26.8368 
-0.104104 5.43903 26.3388 4.88499 5.48576 25.4713 -0.214433 5.4835 25.4496 
4.8561 5.47837 24.4401 -0.170322 5.53684 24.4129 4.84459 5.51373 23.4377 
-0.150719 5.51344 23.4046 4.85449 5.55364 22.4355 -0.158238 5.34069 22.5715 
4.87071 5.55964 21.4184 -0.636897 6.129 21.5171 -0.304975 5.46704 21.547 
4.88792 5.40348 20.5752 -0.730889 5.962 20.6819 -0.351594 5.35071 20.4502 
4.22061 6.01657 19.4164 4.72224 5.38845 19.625 3.54034 6.21339 19.4625 
-0.606038 6.05647 19.468 -0.163037 5.34692 19.5069 4.23194 5.51934 18.9012 
3.80518 5.14869 18.4046 3.35243 5.90515 18.5496 0.19191 5.84372 18.4947 
0.758808 5.45957 18.283 0.279641 5.15749 18.8576 3.13593 5.19732 18.068 
2.40287 5.41259 17.8669 2.00008 5.9915 17.3941 1.42944 5.32915 17.9272 
1.001 5.92727 17.6081 0.259005 6.18594 17.6772 4.39653 4.39594 27.105 
4.7861 4.58382 26.5123 3.6494 4.6167 27.1415 2.60706 4.63364 27.1092 
1.52653 4.57559 27.1232 0.466893 4.65961 27.0095 -0.140696 4.3937 26.5753 
4.86982 4.45325 25.4971 -0.218899 4.49696 25.4858 4.82999 4.47567 24.4645 
-0.171392 4.52482 24.4416 4.82096 4.49819 23.4642 -0.154296 4.51558 23.4385 
4.82737 4.52052 22.4564 -0.163447 4.50466 22.4382 4.85026 4.54513 21.439 
-0.194692 4.50535 21.427 4.87313 4.55007 20.4263 -0.215081 4.52222 20.4328 
4.73524 4.28667 19.5289 -0.105242 4.39103 19.4327 4.27358 4.63522 18.883 
3.71559 4.42475 18.4652 0.870217 4.81164 18.4484 0.460855 4.19941 18.7052 
3.35553 4.69131 18.1502 2.5979 4.58874 18.0631 1.66075 4.60301 18.1605 
4.05819 3.92439 27.5146 4.26182 3.17336 27.8099 4.68976 3.67895 27.266 
3.08764 4.00364 27.4927 3.36806 3.36531 27.8791 2.01012 3.94656 27.4958 
2.30734 3.32894 27.8774 0.966173 3.92532 27.5214 1.2459 3.29954 27.9049 
0.21798 3.92116 27.3863 0.455686 3.42338 27.8086 -0.0788041 3.36205 27.4223 
4.87649 3.47211 26.515 -0.273964 3.43386 26.5357 4.83395 3.42836 25.4914 
-0.233464 3.47638 25.4868 4.79472 3.45921 24.4664 -0.190227 3.48572 24.4547 
4.79118 3.46824 23.4679 -0.179755 3.48539 23.4453 4.79747 3.48013 22.462 
-0.177266 3.48549 22.4465 4.82586 3.52351 21.4331 -0.195183 3.50637 21.4481 
4.85217 3.53398 20.4017 -0.236257 3.51063 20.4406 4.7126 3.26458 19.5033 
-0.240614 3.35837 19.5754 4.24884 3.53171 19.0014 3.43385 3.54762 18.7827 
3.00276 4.02858 18.4131 2.30092 3.31166 18.7896 2.02053 3.93791 18.4482 
1.19493 3.44083 18.7378 1.19058 4.14143 18.5347 0.275454 3.7913 18.3813 
0.48378 3.46769 18.4796 0.00453888 3.61076 18.7194 0.238473 3.51801 18.2808 
4.26186 2.24355 27.8971 4.76484 2.73946 27.3863 3.39165 2.50783 28.0068 
2.34072 2.48513 28.0311 1.27366 2.44636 28.057 0.382052 2.69763 27.9318 
-0.157982 2.42698 27.4238 4.86223 2.45809 26.5199 -0.273393 2.42653 26.5241 
4.81063 2.44005 25.4751 -0.22383 2.46485 25.4861 4.78682 2.46401 24.4609 
-0.192664 2.4722 24.4593 4.78639 2.46415 23.4668 -0.187534 2.4686 23.4584 
4.7915 2.4713 22.4672 -0.188358 2.47122 22.4635 4.82114 2.51818 21.4408 
-0.208101 2.48399 21.4549 4.8486 2.52683 20.3908 -0.249591 2.47318 20.4185 
4.70902 2.2312 19.4763 -0.135429 2.53505 19.3256 4.34585 2.66205 19.0212 
3.62741 2.43597 19.0137 2.5867 2.60337 19.068 1.38641 2.4761 19.0284 
0.418507 2.53478 18.8726 0.172934 3.09802 18.537 4.22487 1.33967 28.1024 
4.76128 1.59412 27.5454 3.35992 1.53397 28.0057 2.3052 1.48293 28.0103 
1.24554 1.42588 28.0483 0.350517 1.68651 27.932 -0.151789 1.3976 27.4117 
4.84798 1.4244 26.5188 -0.259427 1.41653 26.527 4.80452 1.44423 25.4684 
-0.220778 1.46397 25.4947 4.79121 1.46708 24.4613 -0.193672 1.47266 24.4703 
4.78805 1.46577 23.4699 -0.187641 1.46868 23.4684 4.79338 1.47614 22.4707 
-0.187837 1.46868 22.4685 4.83724 1.52582 21.4363 -0.213465 1.46625 21.4541 
4.86837 1.49427 20.38 -0.252951 1.44852 20.4057 4.72121 1.15762 19.4955 
2.99472 1.89779 19.4719 3.70649 1.35549 19.4649 3.31531 1.29658 19.9837 
2.55151 1.51617 20.0264 2.02501 2.01912 19.4536 1.59039 1.52207 19.9033 
1.16291 1.82657 19.3443 0.799416 1.1578 19.5932 -0.112668 1.44966 19.4967 
4.25175 1.54898 19.0825 0.42484 1.53131 19.1156 4.20029 0.769187 28.4838 
[...]
CELL_DATA 1124
SCALARS scalars float
LOOKUP_TABLE default
252 252 252 252 252 252 252 252 252 
252 252 252 252 252 252 252 252 252 
252 252 252 252 252 252 252 252 252 
252 252 252 252 252 252 252 252 252 
252 252 252 252 252 252 252 252 252 
252 252 252 252 252 252 252 252 252 
252 252 252 252 252 252 252 252 252 
252 252 252 252 252 252 252 252 252 
252 252 252 252 252 252 252 252 252 
252 252 252 252 252 252 252 252 252 
252 252 252 252 252 252 252 252 252 
252 252 252 252 252 252 252 252 252 
252 252 252 252 252 252 252 252 252 
252 252 252 252 252 252 252 252 252 
252 252 252 252 252 252 252 252 252 
252 252 252 252 252 252 252 252 252 
252 252 252 252 252 252 252 252 252 
252 252 252 252 252 252 252 252 252 
252 252 252 252 252 252 252 252 252 
252 252 252 252 252 252 252 252 252 
252 252 252 252 252 252 252 252 252 
252 252 252 252 252 252 252 252 252 
252 252 252 252 252 252 252 252 252 
252 252 252 252 252 252 252 252 252 
252 252 252 252 252 252 252 252 252 
252 252 252 252 252 252 252 252 252 
252 252 252 252 252 252 252 252 252 
252 252 252 252 252 252 252 252 252 
252 252 252 252 252 252 252 252 252 
252 252 252 252 252 252 252 252 252 
252 252 252 252 252 252 252 252 252 
252 252 252 252 252 252 252 252 252 
252 252 252 252 252 252 252 252 252 
252 252 252 252 252 252 252 252 252 
252 252 252 252 252 252 252 252 252 
252 252 252 252 252 252 252 252 252 
252 252 252 252 252 252 252 252 252 
252 252 252 252 252 252 252 252 252 
252 252 252 252 252 252 252 252 252 
252 252 252 252 252 252 252 252 252 
252 252 252 252 252 252 252 252 252 
252 252 252 252 252 252 252 252 252 
252 252 252 252 252 252 252 252 252 
252 252 252 252 252 252 252 252 252 
252 252 252 252 252 252 252 252 252 
252 252 252 252 252 252 252 252 252 
252 252 252 252 252 252 252 252 252 
252 252 252 252 252 252 252 252 252 
252 252 252 252 252 252 252 252 252 
252 252 252 252 252 252 252 252 252 
252 252 252 252 252 252 252 252 252 
252 252 252 252 252 252 252 252 252 
252 252 252 252 252 252 252 252 252 
252 252 252 252 252 252 252 252 252 
252 252 252 252 252 252 252 252 252 
252 252 252 252 252 252 252 252 252 
252 252 252 252 252 252 252 252 252 
252 252 252 252 252 252 252 252 252 
252 252 252 252 252 252 252 252 252 
252 252 252 252 252 252 252 252 252 
252 252 252 252 252 252 252 252 252 
252 252 252 252 252 252 252 252 252 
252 252 252 252 252 252 252 252 252 
252 252 252 252 252 252 252 252 252 
252 252 252 252 252 252 252 252 252 
252 252 252 252 252 252 252 252 252 
252 252 252 252 252 252 252 252 252 
252 252 252 252 252 252 252 252 252 
252 252 252 252 252 252 252 252 252 
252 252 252 252 252 252 252 252 252 
252 252 252 252 252 252 252 252 252 
252 252 252 252 252 252 252 252 252 
252 252 252 252 252 252 252 252 252 
252 252 252 252 252 252 252 252 252 
252 252 252 252 252 252 252 252 252 
252 252 252 252 252 252 252 252 252 
252 252 252 252 252 252 252 252 252 
252 252 252 252 252 252 252 252 252 
252 252 252 252 252 252 252 252 252 
252 252 252 252 252 252 252 252 252 
252 252 252 252 252 252 252 252 252 
252 252 252 252 252 252 252 252 252 
252 252 252 252 252 252 252 252 252 
252 252 252 252 252 252 252 252 252 
252 252 252 252 252 252 252 252 252 
252 252 252 252 252 252 252 252 252 
252 252 252 252 252 252 252 252 252 
252 252 252 252 252 252 252 252 252 
252 252 252 252 252 252 252 252 252 
252 252 252 252 252 252 252 252 252 
252 252 252 252 252 252 252 252 252 
252 252 252 252 252 252 252 252 252 
252 252 252 252 252 252 252 252 252 
252 252 252 252 252 252 252 252 252 
252 252 252 252 252 252 252 252 252 
252 252 252 252 252 252 252 252 252 
252 252 252 252 252 252 252 252 252 
252 252 252 252 252 252 252 252 252 
252 252 252 252 252 252 252 252 252 
252 252 252 252 252 252 252 252 252 
252 252 252 252 252 252 252 252 252 
252 252 252 252 252 252 252 252 252 
252 252 252 252 252 252 252 252 252 
252 252 252 252 252 252 252 252 252 
252 252 252 252 252 252 252 252 252 
252 252 252 252 252 252 252 252 252 
252 252 252 252 252 252 252 252 252 
252 252 252 252 252 252 252 252 252 
252 252 252 252 252 252 252 252 252 
252 252 252 252 252 252 252 252 252 
252 252 252 252 252 252 252 252 252 
252 252 252 252 252 252 252 252 252 
252 252 252 252 252 252 252 252 252 
252 252 252 252 252 252 252 252 252 
252 252 252 252 252 252 252 252 252 
252 252 252 252 252 252 252 252 252 
252 252 252 252 252 252 252 252 252 
252 252 252 252 252 252 252 252 252 
252 252 252 252 252 252 252 252 252 
252 252 252 252 252 252 252 252 252 
252 252 252 252 252 252 252 252 252 
252 252 252 252 252 252 252 252 252 
252 252 252 252 252 252 252 252 252 
252 252 252 252 252 252 252 252 252 
252 252 252 252 252 252 252 252 
