# vtk DataFile Version 4.2
vtk output
ASCII
DATASET POLYDATA
POINTS 786 float
4.12366 -1.24499 28.5759 4.22248 -1.79781 28.8315 4.60678 -1.69889 28.2773 
3.5857 -1.2271 28.4555 3.43453 -1.56352 28.8247 2.93375 -1.59237 28.5629 
4.05452 -1.42094 28.0849 3.27114 -1.52047 28.1658 0.256206 -2.2424 29.223 
0.489864 -2.76903 29.8083 0.8256 -2.40931 29.4001 -0.0595167 -2.74506 29.5626 
4.36505 -2.65174 28.8644 4.71269 -2.33245 28.5095 3.60664 -2.53123 29.1346 
2.25331 -1.96983 28.2541 2.59663 -2.30287 29.0224 0.955191 -2.06577 28.54 
1.6013 -2.47284 29.1165 0.177643 -2.10453 28.3679 -0.181575 -2.58575 28.776 
4.24691 -1.87893 27.4149 4.77083 -2.46609 27.5913 3.21454 -1.83689 27.4668 
2.11063 -1.96937 27.2779 1.2229 -1.95185 27.4414 0.334816 -2.06769 27.4872 
-0.160143 -2.56334 27.7272 4.26432 -2.10894 26.4853 4.72567 -2.63177 26.4617 
3.39669 -1.97405 26.4416 2.32435 -1.98909 26.4468 1.27543 -1.96539 26.4374 
0.372581 -2.08043 26.4514 -0.152444 -2.59822 26.6815 4.35346 -2.23967 25.726 
4.66903 -2.82478 25.4005 3.64444 -2.11887 25.5945 2.61973 -2.14535 25.5837 
1.54634 -2.12409 25.5859 0.560674 -2.16997 25.5594 -0.137253 -2.72644 25.609 
4.021 -2.48414 25.0462 3.07982 -2.49878 24.9556 2.01346 -2.50302 24.952 
0.968438 -2.47667 24.9184 0.197769 -2.64041 24.9396 2.96358 -3.0955 29.5277 
3.36039 -3.87222 29.8197 3.75236 -3.33979 29.4357 2.00296 -3.0197 29.5685 
2.25385 -3.69989 29.9039 1.18667 -2.85273 29.6605 1.23034 -3.40028 29.94 
0.355552 -3.45646 29.8683 -0.103898 -3.36585 29.2252 4.36578 -3.35527 29.0194 
4.87459 -3.27538 28.2877 -0.154914 -3.32064 28.213 5.00548 -3.35913 27.1926 
-0.130725 -3.33539 27.1598 4.98123 -3.35137 26.1692 -0.167368 -3.55404 26.1219 
5.0122 -3.48229 25.3018 -0.306352 -3.51913 25.4155 4.19163 -2.91651 24.4016 
4.83718 -3.51811 24.3108 3.31683 -2.84475 24.3265 2.27935 -2.8657 24.3153 
1.22532 -2.84614 24.2933 0.322183 -2.98549 24.3158 -0.195606 -3.45381 24.7175 
4.22137 -3.09981 23.4776 4.67406 -3.48566 23.2842 3.36406 -2.985 23.4663 
2.33084 -3.0061 23.4638 1.28236 -2.99871 23.462 0.357527 -3.14507 23.466 
-0.173955 -3.65054 23.6927 4.31563 -3.21601 22.6954 4.67682 -3.79456 22.3366 
3.59135 -3.09785 22.5931 2.5666 -3.12139 22.5827 1.5046 -3.12062 22.6003 
0.522748 -3.20506 22.5976 -0.146692 -3.75347 22.5872 4.01508 -3.44923 21.9819 
3.07355 -3.44534 21.9033 1.99894 -3.45952 21.9199 0.927325 -3.46725 21.9074 
0.155446 -3.6517 21.9082 5.12852 -4.23561 29.5011 5.26083 -4.83367 29.7845 
5.64072 -4.51567 29.2629 4.4197 -3.86036 29.4435 4.26868 -4.50382 29.8814 
3.17239 -4.67945 30.0084 2.29661 -4.56102 30.02 1.19776 -4.2665 29.9352 
0.367082 -4.04775 29.5486 0.73981 -4.71501 29.3952 5.20943 -4.01473 28.796 
5.75543 -4.65022 28.4892 0.224389 -4.04509 28.7593 0.628453 -4.6949 28.4936 
5.37118 -4.04305 27.742 5.72494 -4.682 27.4559 0.256431 -3.99036 27.7195 
0.668827 -4.6472 27.4571 5.34389 -4.00461 26.7039 5.68657 -4.63004 26.4289 
0.273662 -4.07512 26.7421 0.655764 -4.84887 26.3795 5.33461 -3.96866 25.717 
5.68518 -4.62615 25.4271 0.210138 -4.36372 25.9846 -0.085616 -4.28311 25.2363 
5.32525 -4.06122 24.7893 5.64924 -4.84228 24.376 -0.134304 -4.38914 24.1648 
5.2605 -4.32628 24.0246 5.0166 -4.24183 23.2343 -0.160478 -4.39893 23.1433 
5.04717 -4.48036 22.2283 -0.125648 -4.50822 22.2282 4.37764 -3.96214 21.547 
4.88564 -4.47659 21.5281 3.62938 -3.96171 21.404 2.59616 -3.96761 21.4185 
1.37335 -3.99725 21.2739 0.347777 -3.99781 21.2295 -0.0697761 -4.32477 21.4239 
4.22233 -4.74448 21.1064 3.12184 -4.62985 21.0848 2.16028 -4.48328 21.0746 
1.08139 -4.76926 20.7837 0.501098 -4.55104 20.3218 0.506233 -4.321 20.5842 
0.0596793 -4.43051 20.5972 0.225953 -4.52862 20.2345 5.4092 -5.68817 29.8695 
5.76397 -5.25138 29.3397 4.66931 -5.54633 30.1256 3.57431 -5.33687 30.1539 
2.38545 -5.5091 30.141 1.40578 -5.27409 29.8882 0.902382 -5.56152 29.3467 
5.88087 -5.51953 28.4678 0.790469 -5.52417 28.456 5.84892 -5.52039 27.4277 
0.824985 -5.49767 27.4337 5.83191 -5.47363 26.4094 0.844905 -5.6556 26.5739 
5.83279 -5.49264 25.4091 0.383491 -4.86465 25.5047 0.723958 -5.5287 25.5361 
5.82843 -5.66246 24.5727 0.300832 -5.02862 24.6823 0.687538 -5.66528 24.4374 
5.40441 -4.82558 23.5028 5.71425 -5.50697 23.5246 0.266201 -5.03751 23.6753 
0.674677 -5.66242 23.4351 5.36973 -4.96865 22.6638 5.72893 -5.62119 22.4128 
0.255063 -5.02269 22.6677 0.668024 -5.64406 22.4237 5.38084 -5.05012 21.7313 
5.68522 -5.82227 21.5438 0.354778 -4.94795 21.548 0.787262 -5.56281 21.4462 
5.04555 -5.45627 21.1116 4.20084 -5.74395 20.9702 3.33808 -5.54499 20.969 
2.24133 -5.21561 20.8136 1.44211 -5.22096 20.4648 1.69698 -5.81562 20.4189 
0.269856 -4.66911 20.5959 0.990742 -5.52915 20.6377 1.1983 -5.69861 20.2391 
4.00719 -6.04873 30.5094 4.37645 -6.87502 30.8694 4.80005 -6.34308 30.4587 
3.00674 -5.99797 30.51 3.2792 -6.62391 30.8877 2.16684 -6.2134 30.4444 
2.48753 -6.52969 30.7775 1.78924 -6.88736 30.5411 5.33281 -6.44437 30.1657 
5.77293 -6.42539 29.5132 1.4158 -6.27135 30.0234 0.888117 -6.5301 29.3733 
5.86564 -6.55865 28.495 0.785228 -6.51839 28.4834 5.82958 -6.51605 27.4581 
0.818812 -6.48759 27.4661 5.82296 -6.48141 26.4448 0.841191 -6.48967 26.437 
5.8311 -6.48728 25.4463 0.84169 -6.50144 25.4167 5.82879 -6.49295 24.439 
0.84351 -6.5119 24.4193 5.84026 -6.47237 23.407 0.830693 -6.50937 23.4273 
5.87142 -6.49095 22.3994 0.806464 -6.49789 22.4145 5.7655 -6.76594 21.3784 
0.800831 -6.45541 21.3926 5.23226 -6.3701 20.9268 4.33421 -6.41507 20.8298 
3.33579 -6.4419 20.865 2.43674 -6.19548 20.7633 1.81297 -6.66818 20.2762 
0.895367 -6.44127 20.5297 1.22235 -6.49497 20.164 5.22488 -6.94801 30.598 
5.1557 -7.72579 30.8869 5.68084 -7.34087 30.28 4.18113 -7.70317 31.0679 
3.28596 -7.49588 31.0403 2.3853 -7.25688 30.9075 1.70758 -7.83201 30.5389 
5.87736 -7.57005 29.5204 1.21348 -7.32403 30.045 0.874299 -7.55905 29.3869 
5.84001 -7.58443 28.5013 0.763932 -7.54885 28.503 5.79908 -7.53577 27.4681 
0.790987 -7.51483 27.4742 5.79778 -7.51577 26.4581 0.824611 -7.51072 26.4462 
5.80635 -7.51466 25.4526 0.835736 -7.51218 25.4508 5.81734 -7.51021 24.4499 
0.835567 -7.51185 24.4622 5.83847 -7.47869 23.4454 0.8235 -7.5151 23.4626 
5.85675 -7.48625 22.4454 0.79267 -7.50824 22.4341 5.85705 -7.64534 21.6114 
0.773362 -7.49062 21.3888 5.21336 -6.90195 20.3627 5.73553 -7.46212 20.54 
4.346 -6.88577 20.3126 3.30807 -6.95762 20.375 2.50952 -6.83941 20.5192 
0.860114 -7.58748 20.4134 5.22666 -7.07594 19.4271 5.73383 -7.56164 19.3994 
4.51092 -7.00277 19.5825 3.56255 -7.16654 19.4176 2.31872 -7.21953 19.7511 
1.34042 -7.38041 19.8188 1.71697 -7.50922 19.4705 5.34766 -7.17836 18.6104 
5.71138 -7.76168 18.3296 4.50112 -7.15023 18.6507 3.70749 -7.42609 18.5583 
2.91815 -7.53034 18.8998 2.12573 -7.6068 19.1449 5.04567 -7.44626 17.9579 
4.25405 -7.53405 18.0451 5.24486 -8.81738 30.9578 5.75844 -8.31254 30.4156 
4.49815 -8.36771 31.0731 3.42763 -8.4722 30.9244 2.39651 -8.18661 30.8151 
1.89784 -8.65804 30.429 5.87934 -8.57833 29.5509 1.32452 -8.48581 30.0268 
0.886074 -8.58982 29.3877 5.8273 -8.58923 28.5068 0.757878 -8.5689 28.5186 
5.79491 -8.54824 27.471 0.780065 -8.53392 27.4886 5.79284 -8.53156 26.4627 
0.808499 -8.52736 26.4631 5.79688 -8.53141 25.4651 0.813064 -8.52987 25.4651 
5.80158 -8.52669 24.4679 0.811494 -8.53314 24.4719 5.81077 -8.50496 23.4601 
0.805851 -8.53463 23.4713 5.8271 -8.49955 22.459 0.789178 -8.52277 22.4476 
5.83947 -8.48695 21.4606 0.772618 -8.52653 21.419 5.85004 -8.45134 20.4393 
0.759735 -8.67165 20.5886 5.86518 -8.44743 19.4205 1.42941 -7.92813 19.1075 
0.860538 -8.4255 19.6885 5.8732 -8.60178 18.5662 3.51288 -7.8048 18.1467 
2.41203 -8.0065 18.4067 1.48237 -8.23833 18.4392 0.919076 -8.70837 18.6096 
5.36803 -7.93156 17.5224 5.74212 -8.64571 17.4444 4.46584 -7.97003 17.496 
3.41666 -8.22611 17.5866 2.69076 -8.43092 17.6477 1.90616 -8.46715 17.8841 
1.21757 -8.6326 17.9615 5.08194 -8.45699 16.9552 4.1066 -8.53679 16.9398 
3.23084 -8.60755 17.1334 5.20177 -9.82691 30.943 5.74913 -9.34715 30.4568 
4.28595 -9.24609 30.9331 3.373 -9.18724 30.5694 3.74936 -9.83497 30.4855 
2.59545 -8.97369 30.486 5.866 -9.58736 29.5393 2.94728 -9.70451 30.1873 
1.9662 -9.51423 30.1153 1.241 -9.42551 29.8631 0.889739 -9.59835 29.393 
5.83439 -9.59188 28.498 0.751456 -9.57949 28.5305 5.80475 -9.56223 27.4756 
0.777961 -9.53751 27.495 5.79567 -9.53636 26.4648 0.806305 -9.53003 26.4644 
5.79524 -9.53118 25.4658 0.80936 -9.53289 25.4613 5.79684 -9.53043 24.4664 
0.808065 -9.53547 24.4668 5.80024 -9.52475 23.4606 0.8068 -9.53396 23.4685 
5.8086 -9.52119 22.4545 0.800288 -9.52269 22.4522 5.81988 -9.51576 21.4557 
0.784228 -9.52468 21.4348 5.82959 -9.49076 20.4542 0.765136 -9.50387 20.4327 
5.84183 -9.46429 19.4515 0.753359 -9.4971 19.4242 5.85476 -9.45923 18.4359 
0.749102 -9.64082 18.5746 5.86252 -9.61232 17.5534 2.34371 -8.81528 17.124 
1.36394 -8.94948 17.2898 0.849461 -9.41126 17.6981 5.39117 -8.96421 16.5315 
5.73979 -9.65075 16.4341 4.62258 -8.98705 16.4043 3.4344 -9.01461 16.5505 
2.42432 -9.1453 16.4528 1.57122 -9.17425 16.5339 0.904149 -9.68747 16.5738 
5.09466 -9.46084 15.9341 4.12445 -9.49042 15.9064 3.03532 -9.48609 15.9419 
1.99013 -9.46918 15.9085 1.22756 -9.60983 15.8931 5.14037 -10.5802 30.835 
5.68876 -10.4315 30.3506 4.49139 -10.196 30.8361 4.03392 -10.5806 30.4293 
5.86374 -10.4293 29.3852 3.28982 -10.6883 30.1043 2.26247 -10.5673 30.0109 
1.38596 -10.3252 29.8855 0.882229 -10.605 29.4197 5.84797 -10.586 28.5196 
0.739339 -10.5879 28.5542 5.82056 -10.5805 27.4905 0.776632 -10.5447 27.5141 
5.80028 -10.5451 26.4724 0.807343 -10.5357 26.4744 5.79622 -10.5316 25.4659 
0.811621 -10.5332 25.4617 5.79743 -10.5298 24.4641 0.810844 -10.5318 24.4622 
5.79937 -10.532 23.4636 0.810846 -10.5305 23.4639 5.80169 -10.5363 22.4651 
0.809415 -10.5267 22.4562 5.80322 -10.5365 21.4675 0.801974 -10.5222 21.4392 
5.80468 -10.524 20.4633 0.788811 -10.5111 20.4171 5.81243 -10.4968 19.447 
0.775403 -10.5088 19.4052 5.83136 -10.4754 18.4346 0.765602 -10.4816 18.4069 
5.85358 -10.4692 17.4102 0.747953 -10.4814 17.3924 5.87406 -10.6083 16.5361 
[...]
CELL_DATA 1568
SCALARS scalars float
LOOKUP_TABLE default
251 251 251 251 251 251 251 251 251 
251 251 251 251 251 251 251 251 251 
251 251 251 251 251 251 251 251 251 
251 251 251 251 251 251 251 251 251 
251 251 251 251 251 251 251 251 251 
251 251 251 251 251 251 251 251 251 
251 251 251 251 251 251 251 251 251 
251 251 251 251 251 251 251 251 251 
251 251 251 251 251 251 251 251 251 
251 251 251 251 251 251 251 251 251 
251 251 251 251 251 251 251 251 251 
251 251 251 251 251 251 251 251 251 
251 251 251 251 251 251 251 251 251 
251 251 251 251 251 251 251 251 251 
251 251 251 251 251 251 251 251 251 
251 251 251 251 251 251 251 251 251 
251 251 251 251 251 251 251 251 251 
251 251 251 251 251 251 251 251 251 
251 251 251 251 251 251 251 251 251 
251 251 251 251 251 251 251 251 251 
251 251 251 251 251 251 251 251 251 
251 251 251 251 251 251 251 251 251 
251 251 251 251 251 251 251 251 251 
251 251 251 251 251 251 251 251 251 
251 251 251 251 251 251 251 251 251 
251 251 251 251 251 251 251 251 251 
251 251 251 251 251 251 251 251 251 
251 251 251 251 251 251 251 251 251 
251 251 251 251 251 251 251 251 251 
251 251 251 251 251 251 251 251 251 
251 251 251 251 251 251 251 251 251 
251 251 251 251 251 251 251 251 251 
251 251 251 251 251 251 251 251 251 
251 251 251 251 251 251 251 251 251 
251 251 251 251 251 251 251 251 251 
251 251 251 251 251 251 251 251 251 
251 251 251 251 251 251 251 251 251 
251 251 251 251 251 251 251 251 251 
251 251 251 251 251 251 251 251 251 
251 251 251 251 251 251 251 251 251 
251 251 251 251 251 251 251 251 251 
251 251 251 251 251 251 251 251 251 
251 251 251 251 251 251 251 251 251 
251 251 251 251 251 251 251 251 251 
251 251 251 251 251 251 251 251 251 
251 251 251 251 251 251 251 251 251 
251 251 251 251 251 251 251 251 251 
251 251 251 251 251 251 251 251 251 
251 251 251 251 251 251 251 251 251 
251 251 251 251 251 251 251 251 251 
251 251 251 251 251 251 251 251 251 
251 251 251 251 251 251 251 251 251 
251 251 251 251 251 251 251 251 251 
251 251 251 251 251 251 251 251 251 
251 251 251 251 251 251 251 251 251 
251 251 251 251 251 251 251 251 251 
251 251 251 251 251 251 251 251 251 
251 251 251 251 251 251 251 251 251 
251 251 251 251 251 251 251 251 251 
251 251 251 251 251 251 251 251 251 
251 251 251 251 251 251 251 251 251 
251 251 251 251 251 251 251 251 251 
251 251 251 251 251 251 251 251 251 
251 251 251 251 251 251 251 251 251 
251 251 251 251 251 251 251 251 251 
251 251 251 251 251 251 251 251 251 
251 251 251 251 251 251 251 251 251 
251 251 251 251 251 251 251 251 251 
251 251 251 251 251 251 251 251 251 
251 251 251 251 251 251 251 251 251 
251 251 251 251 251 251 251 251 251 
251 251 251 251 251 251 251 251 251 
251 251 251 251 251 251 251 251 251 
251 251 251 251 251 251 251 251 251 
251 251 251 251 251 251 251 251 251 
251 251 251 251 251 251 251 251 251 
251 251 251 251 251 251 251 251 251 
251 251 251 251 251 251 251 251 251 
251 251 251 251 251 251 251 251 251 
251 251 251 251 251 251 251 251 251 
251 251 251 251 251 251 251 251 251 
251 251 251 251 251 251 251 251 251 
251 251 251 251 251 251 251 251 251 
251 251 251 251 251 251 251 251 251 
251 251 251 251 251 251 251 251 251 
251 251 251 251 251 251 251 251 251 
251 251 251 251 251 251 251 251 251 
251 251 251 251 251 251 251 251 251 
251 251 251 251 251 251 251 251 251 
251 251 251 251 251 251 251 251 251 
251 251 251 251 251 251 251 251 251 
251 251 251 251 251 251 251 251 251 
251 251 251 251 251 251 251 251 251 
251 251 251 251 251 251 251 251 251 
251 251 251 251 251 251 251 251 251 
251 251 251 251 251 251 251 251 251 
251 251 251 251 251 251 251 251 251 
251 251 251 251 251 251 251 251 251 
251 251 251 251 251 251 251 251 251 
251 251 251 251 251 251 251 251 251 
251 251 251 251 251 251 251 251 251 
251 251 251 251 251 251 251 251 251 
251 251 251 251 251 251 251 251 251 
251 251 251 251 251 251 251 251 251 
251 251 251 251 251 251 251 251 251 
251 251 251 251 251 251 251 251 251 
251 251 251 251 251 251 251 251 251 
251 251 251 251 251 251 251 251 251 
251 251 251 251 251 251 251 251 251 
251 251 251 251 251 251 251 251 251 
251 251 251 251 251 251 251 251 251 
251 251 251 251 251 251 251 251 251 
251 251 251 251 251 251 251 251 251 
251 251 251 251 251 251 251 251 251 
251 251 251 251 251 251 251 251 251 
251 251 251 251 251 251 251 251 251 
251 251 251 251 251 251 251 251 251 
251 251 251 251 251 251 251 251 251 
251 251 251 251 251 251 251 251 251 
251 251 251 251 251 251 251 251 251 
251 251 251 251 251 251 251 251 251 
251 251 251 251 251 251 251 251 251 
251 251 251 251 251 251 251 251 251 
251 251 251 251 251 251 251 251 251 
251 251 251 251 251 251 251 251 251 
251 251 251 251 251 251 251 251 251 
251 251 251 251 251 251 251 251 251 
251 251 251 251 251 251 251 251 251 
251 251 251 251 251 251 251 251 251 
251 251 251 251 251 251 251 251 251 
251 251 251 251 251 251 251 251 251 
251 251 251 251 251 251 251 251 251 
251 251 251 251 251 251 251 251 251 
251 251 251 251 251 251 251 251 251 
251 251 251 251 251 251 251 251 251 
251 251 251 251 251 251 251 251 251 
251 251 251 251 251 251 251 251 251 
251 251 251 251 251 251 251 251 251 
251 251 251 251 251 251 251 251 251 
251 251 251 251 251 251 251 251 251 
251 251 251 251 251 251 251 251 251 
251 251 251 251 251 251 251 251 251 
251 251 251 251 251 251 251 251 251 
251 251 251 251 251 251 251 251 251 
251 251 251 251 251 251 251 251 251 
251 251 251 251 251 251 251 251 251 
251 251 251 251 251 251 251 251 251 
251 251 251 251 251 251 251 251 251 
251 251 251 251 251 251 251 251 251 
251 251 251 251 251 251 251 251 251 
251 251 251 251 251 251 251 251 251 
251 251 251 251 251 251 251 251 251 
251 251 251 251 251 251 251 251 251 
251 251 251 251 251 251 251 251 251 
251 251 251 251 251 251 251 251 251 
251 251 251 251 251 251 251 251 251 
251 251 251 251 251 251 251 251 251 
251 251 251 251 251 251 251 251 251 
251 251 251 251 251 251 251 251 251 
251 251 251 251 251 251 251 251 251 
251 251 251 251 251 251 251 251 251 
251 251 251 251 251 251 251 251 251 
251 251 251 251 251 251 251 251 251 
251 251 251 251 251 251 251 251 251 
251 251 251 251 251 251 251 251 251 
251 251 251 251 251 251 251 251 251 
251 251 251 251 251 251 251 251 251 
251 251 251 251 251 251 251 251 251 
251 251 251 251 251 251 251 251 251 
251 251 251 251 251 251 251 251 251 
251 251 251 251 251 251 251 251 251 
251 251 251 251 251 251 251 251 251 
251 251 251 251 251 251 251 251 251 
251 251 251 251 251 251 251 251 251 
251 251 
