# vtk DataFile Version 4.2
vtk output
ASCII
DATASET POLYDATA
POINTS 786 float
-4.12366 28.5759 -1.24499 -4.22248 28.8315 -1.79781 -4.60678 28.2773 -1.69889 
-3.5857 28.4555 -1.2271 -3.43453 28.8247 -1.56352 -2.93375 28.5629 -1.59237 
-4.05452 28.0849 -1.42094 -3.27114 28.1658 -1.52047 -0.256206 29.223 -2.2424 
-0.489864 29.8083 -2.76903 -0.8256 29.4001 -2.40931 0.0595167 29.5626 -2.74506 
-4.36505 28.8644 -2.65174 -4.71269 28.5095 -2.33245 -3.60664 29.1346 -2.53123 
-2.25331 28.2541 -1.96983 -2.59663 29.0224 -2.30287 -0.955191 28.54 -2.06577 
-1.6013 29.1165 -2.47284 -0.177643 28.3679 -2.10453 0.181575 28.776 -2.58575 
-4.24691 27.4149 -1.87893 -4.77083 27.5913 -2.46609 -3.21454 27.4668 -1.83689 
-2.11063 27.2779 -1.96937 -1.2229 27.4414 -1.95185 -0.334816 27.4872 -2.06769 
0.160143 27.7272 -2.56334 -4.26432 26.4853 -2.10894 -4.72567 26.4617 -2.63177 
-3.39669 26.4416 -1.97405 -2.32435 26.4468 -1.98909 -1.27543 26.4374 -1.96539 
-0.372581 26.4514 -2.08043 0.152444 26.6815 -2.59822 -4.35346 25.726 -2.23967 
-4.66903 25.4005 -2.82478 -3.64444 25.5945 -2.11887 -2.61973 25.5837 -2.14535 
-1.54634 25.5859 -2.12409 -0.560674 25.5594 -2.16997 0.137253 25.609 -2.72644 
-4.021 25.0462 -2.48414 -3.07982 24.9556 -2.49878 -2.01346 24.952 -2.50302 
-0.968438 24.9184 -2.47667 -0.197769 24.9396 -2.64041 -2.96358 29.5277 -3.0955 
-3.36039 29.8197 -3.87222 -3.75236 29.4357 -3.33979 -2.00296 29.5685 -3.0197 
-2.25385 29.9039 -3.69989 -1.18667 29.6605 -2.85273 -1.23034 29.94 -3.40028 
-0.355552 29.8683 -3.45646 0.103898 29.2252 -3.36585 -4.36578 29.0194 -3.35527 
-4.87459 28.2877 -3.27538 0.154914 28.213 -3.32064 -5.00548 27.1926 -3.35913 
0.130725 27.1598 -3.33539 -4.98123 26.1692 -3.35137 0.167368 26.1219 -3.55404 
-5.0122 25.3018 -3.48229 0.306352 25.4155 -3.51913 -4.19163 24.4016 -2.91651 
-4.83718 24.3108 -3.51811 -3.31683 24.3265 -2.84475 -2.27935 24.3153 -2.8657 
-1.22532 24.2933 -2.84614 -0.322183 24.3158 -2.98549 0.195606 24.7175 -3.45381 
-4.22137 23.4776 -3.09981 -4.67406 23.2842 -3.48566 -3.36406 23.4663 -2.985 
-2.33084 23.4638 -3.0061 -1.28236 23.462 -2.99871 -0.357527 23.466 -3.14507 
0.173955 23.6927 -3.65054 -4.31563 22.6954 -3.21601 -4.67682 22.3366 -3.79456 
-3.59135 22.5931 -3.09785 -2.5666 22.5827 -3.12139 -1.5046 22.6003 -3.12062 
-0.522748 22.5976 -3.20506 0.146692 22.5872 -3.75347 -4.01508 21.9819 -3.44923 
-3.07355 21.9033 -3.44534 -1.99894 21.9199 -3.45952 -0.927325 21.9074 -3.46725 
-0.155446 21.9082 -3.6517 -5.12852 29.5011 -4.23561 -5.26083 29.7845 -4.83367 
-5.64072 29.2629 -4.51567 -4.4197 29.4435 -3.86036 -4.26868 29.8814 -4.50382 
-3.17239 30.0084 -4.67945 -2.29661 30.02 -4.56102 -1.19776 29.9352 -4.2665 
-0.367082 29.5486 -4.04775 -0.73981 29.3952 -4.71501 -5.20943 28.796 -4.01473 
-5.75543 28.4892 -4.65022 -0.224389 28.7593 -4.04509 -0.628453 28.4936 -4.6949 
-5.37118 27.742 -4.04305 -5.72494 27.4559 -4.682 -0.256431 27.7195 -3.99036 
-0.668827 27.4571 -4.6472 -5.34389 26.7039 -4.00461 -5.68657 26.4289 -4.63004 
-0.273662 26.7421 -4.07512 -0.655764 26.3795 -4.84887 -5.33461 25.717 -3.96866 
-5.68518 25.4271 -4.62615 -0.210138 25.9846 -4.36372 0.085616 25.2363 -4.28311 
-5.32525 24.7893 -4.06122 -5.64924 24.376 -4.84228 0.134304 24.1648 -4.38914 
-5.2605 24.0246 -4.32628 -5.0166 23.2343 -4.24183 0.160478 23.1433 -4.39893 
-5.04717 22.2283 -4.48036 0.125648 22.2282 -4.50822 -4.37764 21.547 -3.96214 
-4.88564 21.5281 -4.47659 -3.62938 21.404 -3.96171 -2.59616 21.4185 -3.96761 
-1.37335 21.2739 -3.99725 -0.347777 21.2295 -3.99781 0.0697761 21.4239 -4.32477 
-4.22233 21.1064 -4.74448 -3.12184 21.0848 -4.62985 -2.16028 21.0746 -4.48328 
-1.08139 20.7837 -4.76926 -0.501098 20.3218 -4.55104 -0.506233 20.5842 -4.321 
-0.0596793 20.5972 -4.43051 -0.225953 20.2345 -4.52862 -5.4092 29.8695 -5.68817 
-5.76397 29.3397 -5.25138 -4.66931 30.1256 -5.54633 -3.57431 30.1539 -5.33687 
-2.38545 30.141 -5.5091 -1.40578 29.8882 -5.27409 -0.902382 29.3467 -5.56152 
-5.88087 28.4678 -5.51953 -0.790469 28.456 -5.52417 -5.84892 27.4277 -5.52039 
-0.824985 27.4337 -5.49767 -5.83191 26.4094 -5.47363 -0.844905 26.5739 -5.6556 
-5.83279 25.4091 -5.49264 -0.383491 25.5047 -4.86465 -0.723958 25.5361 -5.5287 
-5.82843 24.5727 -5.66246 -0.300832 24.6823 -5.02862 -0.687538 24.4374 -5.66528 
-5.40441 23.5028 -4.82558 -5.71425 23.5246 -5.50697 -0.266201 23.6753 -5.03751 
-0.674677 23.4351 -5.66242 -5.36973 22.6638 -4.96865 -5.72893 22.4128 -5.62119 
-0.255063 22.6677 -5.02269 -0.668024 22.4237 -5.64406 -5.38084 21.7313 -5.05012 
-5.68522 21.5438 -5.82227 -0.354778 21.548 -4.94795 -0.787262 21.4462 -5.56281 
-5.04555 21.1116 -5.45627 -4.20084 20.9702 -5.74395 -3.33808 20.969 -5.54499 
-2.24133 20.8136 -5.21561 -1.44211 20.4648 -5.22096 -1.69698 20.4189 -5.81562 
-0.269856 20.5959 -4.66911 -0.990742 20.6377 -5.52915 -1.1983 20.2391 -5.69861 
-4.00719 30.5094 -6.04873 -4.37645 30.8694 -6.87502 -4.80005 30.4587 -6.34308 
-3.00674 30.51 -5.99797 -3.2792 30.8877 -6.62391 -2.16684 30.4444 -6.2134 
-2.48753 30.7775 -6.52969 -1.78924 30.5411 -6.88736 -5.33281 30.1657 -6.44437 
-5.77293 29.5132 -6.42539 -1.4158 30.0234 -6.27135 -0.888117 29.3733 -6.5301 
-5.86564 28.495 -6.55865 -0.785228 28.4834 -6.51839 -5.82958 27.4581 -6.51605 
-0.818812 27.4661 -6.48759 -5.82296 26.4448 -6.48141 -0.841191 26.437 -6.48967 
-5.8311 25.4463 -6.48728 -0.84169 25.4167 -6.50144 -5.82879 24.439 -6.49295 
-0.84351 24.4193 -6.5119 -5.84026 23.407 -6.47237 -0.830693 23.4273 -6.50937 
-5.87142 22.3994 -6.49095 -0.806464 22.4145 -6.49789 -5.7655 21.3784 -6.76594 
-0.800831 21.3926 -6.45541 -5.23226 20.9268 -6.3701 -4.33421 20.8298 -6.41507 
-3.33579 20.865 -6.4419 -2.43674 20.7633 -6.19548 -1.81297 20.2762 -6.66818 
-0.895367 20.5297 -6.44127 -1.22235 20.164 -6.49497 -5.22488 30.598 -6.94801 
-5.1557 30.8869 -7.72579 -5.68084 30.28 -7.34087 -4.18113 31.0679 -7.70317 
-3.28596 31.0403 -7.49588 -2.3853 30.9075 -7.25688 -1.70758 30.5389 -7.83201 
-5.87736 29.5204 -7.57005 -1.21348 30.045 -7.32403 -0.874299 29.3869 -7.55905 
-5.84001 28.5013 -7.58443 -0.763932 28.503 -7.54885 -5.79908 27.4681 -7.53577 
-0.790987 27.4742 -7.51483 -5.79778 26.4581 -7.51577 -0.824611 26.4462 -7.51072 
-5.80635 25.4526 -7.51466 -0.835736 25.4508 -7.51218 -5.81734 24.4499 -7.51021 
-0.835567 24.4622 -7.51185 -5.83847 23.4454 -7.47869 -0.8235 23.4626 -7.5151 
-5.85675 22.4454 -7.48625 -0.79267 22.4341 -7.50824 -5.85705 21.6114 -7.64534 
-0.773362 21.3888 -7.49062 -5.21336 20.3627 -6.90195 -5.73553 20.54 -7.46212 
-4.346 20.3126 -6.88577 -3.30807 20.375 -6.95762 -2.50952 20.5192 -6.83941 
-0.860114 20.4134 -7.58748 -5.22666 19.4271 -7.07594 -5.73383 19.3994 -7.56164 
-4.51092 19.5825 -7.00277 -3.56255 19.4176 -7.16654 -2.31872 19.7511 -7.21953 
-1.34042 19.8188 -7.38041 -1.71697 19.4705 -7.50922 -5.34766 18.6104 -7.17836 
-5.71138 18.3296 -7.76168 -4.50112 18.6507 -7.15023 -3.70749 18.5583 -7.42609 
-2.91815 18.8998 -7.53034 -2.12573 19.1449 -7.6068 -5.04567 17.9579 -7.44626 
-4.25405 18.0451 -7.53405 -5.24486 30.9578 -8.81738 -5.75844 30.4156 -8.31254 
-4.49815 31.0731 -8.36771 -3.42763 30.9244 -8.4722 -2.39651 30.8151 -8.18661 
-1.89784 30.429 -8.65804 -5.87934 29.5509 -8.57833 -1.32452 30.0268 -8.48581 
-0.886074 29.3877 -8.58982 -5.8273 28.5068 -8.58923 -0.757878 28.5186 -8.5689 
-5.79491 27.471 -8.54824 -0.780065 27.4886 -8.53392 -5.79284 26.4627 -8.53156 
-0.808499 26.4631 -8.52736 -5.79688 25.4651 -8.53141 -0.813064 25.4651 -8.52987 
-5.80158 24.4679 -8.52669 -0.811494 24.4719 -8.53314 -5.81077 23.4601 -8.50496 
-0.805851 23.4713 -8.53463 -5.8271 22.459 -8.49955 -0.789178 22.4476 -8.52277 
-5.83947 21.4606 -8.48695 -0.772618 21.419 -8.52653 -5.85004 20.4393 -8.45134 
-0.759735 20.5886 -8.67165 -5.86518 19.4205 -8.44743 -1.42941 19.1075 -7.92813 
-0.860538 19.6885 -8.4255 -5.8732 18.5662 -8.60178 -3.51288 18.1467 -7.8048 
-2.41203 18.4067 -8.0065 -1.48237 18.4392 -8.23833 -0.919076 18.6096 -8.70837 
-5.36803 17.5224 -7.93156 -5.74212 17.4444 -8.64571 -4.46584 17.496 -7.97003 
-3.41666 17.5866 -8.22611 -2.69076 17.6477 -8.43092 -1.90616 17.8841 -8.46715 
-1.21757 17.9615 -8.6326 -5.08194 16.9552 -8.45699 -4.1066 16.9398 -8.53679 
-3.23084 17.1334 -8.60755 -5.20177 30.943 -9.82691 -5.74913 30.4568 -9.34715 
-4.28595 30.9331 -9.24609 -3.373 30.5694 -9.18724 -3.74936 30.4855 -9.83497 
-2.59545 30.486 -8.97369 -5.866 29.5393 -9.58736 -2.94728 30.1873 -9.70451 
-1.9662 30.1153 -9.51423 -1.241 29.8631 -9.42551 -0.889739 29.393 -9.59835 
-5.83439 28.498 -9.59188 -0.751456 28.5305 -9.57949 -5.80475 27.4756 -9.56223 
-0.777961 27.495 -9.53751 -5.79567 26.4648 -9.53636 -0.806305 26.4644 -9.53003 
-5.79524 25.4658 -9.53118 -0.80936 25.4613 -9.53289 -5.79684 24.4664 -9.53043 
-0.808065 24.4668 -9.53547 -5.80024 23.4606 -9.52475 -0.8068 23.4685 -9.53396 
-5.8086 22.4545 -9.52119 -0.800288 22.4522 -9.52269 -5.81988 21.4557 -9.51576 
-0.784228 21.4348 -9.52468 -5.82959 20.4542 -9.49076 -0.765136 20.4327 -9.50387 
-5.84183 19.4515 -9.46429 -0.753359 19.4242 -9.4971 -5.85476 18.4359 -9.45923 
-0.749102 18.5746 -9.64082 -5.86252 17.5534 -9.61232 -2.34371 17.124 -8.81528 
-1.36394 17.2898 -8.94948 -0.849461 17.6981 -9.41126 -5.39117 16.5315 -8.96421 
-5.73979 16.4341 -9.65075 -4.62258 16.4043 -8.98705 -3.4344 16.5505 -9.01461 
-2.42432 16.4528 -9.1453 -1.57122 16.5339 -9.17425 -0.904149 16.5738 -9.68747 
-5.09466 15.9341 -9.46084 -4.12445 15.9064 -9.49042 -3.03532 15.9419 -9.48609 
-1.99013 15.9085 -9.46918 -1.22756 15.8931 -9.60983 -5.14037 30.835 -10.5802 
-5.68876 30.3506 -10.4315 -4.49139 30.8361 -10.196 -4.03392 30.4293 -10.5806 
-5.86374 29.3852 -10.4293 -3.28982 30.1043 -10.6883 -2.26247 30.0109 -10.5673 
-1.38596 29.8855 -10.3252 -0.882229 29.4197 -10.605 -5.84797 28.5196 -10.586 
-0.739339 28.5542 -10.5879 -5.82056 27.4905 -10.5805 -0.776632 27.5141 -10.5447 
-5.80028 26.4724 -10.5451 -0.807343 26.4744 -10.5357 -5.79622 25.4659 -10.5316 
-0.811621 25.4617 -10.5332 -5.79743 24.4641 -10.5298 -0.810844 24.4622 -10.5318 
-5.79937 23.4636 -10.532 -0.810846 23.4639 -10.5305 -5.80169 22.4651 -10.5363 
[...]
CELL_DATA 1568
SCALARS scalars float
LOOKUP_TABLE default
251 251 251 251 251 251 251 251 251 
251 251 251 251 251 251 251 251 251 
251 251 251 251 251 251 251 251 251 
251 251 251 251 251 251 251 251 251 
251 251 251 251 251 251 251 251 251 
251 251 251 251 251 251 251 251 251 
251 251 251 251 251 251 251 251 251 
251 251 251 251 251 251 251 251 251 
251 251 251 251 251 251 251 251 251 
251 251 251 251 251 251 251 251 251 
251 251 251 251 251 251 251 251 251 
251 251 251 251 251 251 251 251 251 
251 251 251 251 251 251 251 251 251 
251 251 251 251 251 251 251 251 251 
251 251 251 251 251 251 251 251 251 
251 251 251 251 251 251 251 251 251 
251 251 251 251 251 251 251 251 251 
251 251 251 251 251 251 251 251 251 
251 251 251 251 251 251 251 251 251 
251 251 251 251 251 251 251 251 251 
251 251 251 251 251 251 251 251 251 
251 251 251 251 251 251 251 251 251 
251 251 251 251 251 251 251 251 251 
251 251 251 251 251 251 251 251 251 
251 251 251 251 251 251 251 251 251 
251 251 251 251 251 251 251 251 251 
251 251 251 251 251 251 251 251 251 
251 251 251 251 251 251 251 251 251 
251 251 251 251 251 251 251 251 251 
251 251 251 251 251 251 251 251 251 
251 251 251 251 251 251 251 251 251 
251 251 251 251 251 251 251 251 251 
251 251 251 251 251 251 251 251 251 
251 251 251 251 251 251 251 251 251 
251 251 251 251 251 251 251 251 251 
251 251 251 251 251 251 251 251 251 
251 251 251 251 251 251 251 251 251 
251 251 251 251 251 251 251 251 251 
251 251 251 251 251 251 251 251 251 
251 251 251 251 251 251 251 251 251 
251 251 251 251 251 251 251 251 251 
251 251 251 251 251 251 251 251 251 
251 251 251 251 251 251 251 251 251 
251 251 251 251 251 251 251 251 251 
251 251 251 251 251 251 251 251 251 
251 251 251 251 251 251 251 251 251 
251 251 251 251 251 251 251 251 251 
251 251 251 251 251 251 251 251 251 
251 251 251 251 251 251 251 251 251 
251 251 251 251 251 251 251 251 251 
251 251 251 251 251 251 251 251 251 
251 251 251 251 251 251 251 251 251 
251 251 251 251 251 251 251 251 251 
251 251 251 251 251 251 251 251 251 
251 251 251 251 251 251 251 251 251 
251 251 251 251 251 251 251 251 251 
251 251 251 251 251 251 251 251 251 
251 251 251 251 251 251 251 251 251 
251 251 251 251 251 251 251 251 251 
251 251 251 251 251 251 251 251 251 
251 251 251 251 251 251 251 251 251 
251 251 251 251 251 251 251 251 251 
251 251 251 251 251 251 251 251 251 
251 251 251 251 251 251 251 251 251 
251 251 251 251 251 251 251 251 251 
251 251 251 251 251 251 251 251 251 
251 251 251 251 251 251 251 251 251 
251 251 251 251 251 251 251 251 251 
251 251 251 251 251 251 251 251 251 
251 251 251 251 251 251 251 251 251 
251 251 251 251 251 251 251 251 251 
251 251 251 251 251 251 251 251 251 
251 251 251 251 251 251 251 251 251 
251 251 251 251 251 251 251 251 251 
251 251 251 251 251 251 251 251 251 
251 251 251 251 251 251 251 251 251 
251 251 251 251 251 251 251 251 251 
251 251 251 251 251 251 251 251 251 
251 251 251 251 251 251 251 251 251 
251 251 251 251 251 251 251 251 251 
251 251 251 251 251 251 251 251 251 
251 251 251 251 251 251 251 251 251 
251 251 251 251 251 251 251 251 251 
251 251 251 251 251 251 251 251 251 
251 251 251 251 251 251 251 251 251 
251 251 251 251 251 251 251 251 251 
251 251 251 251 251 251 251 251 251 
251 251 251 251 251 251 251 251 251 
251 251 251 251 251 251 251 251 251 
251 251 251 251 251 251 251 251 251 
251 251 251 251 251 251 251 251 251 
251 251 251 251 251 251 251 251 251 
251 251 251 251 251 251 251 251 251 
251 251 251 251 251 251 251 251 251 
251 251 251 251 251 251 251 251 251 
251 251 251 251 251 251 251 251 251 
251 251 251 251 251 251 251 251 251 
251 251 251 251 251 251 251 251 251 
251 251 251 251 251 251 251 251 251 
251 251 251 251 251 251 251 251 251 
251 251 251 251 251 251 251 251 251 
251 251 251 251 251 251 251 251 251 
251 251 251 251 251 251 251 251 251 
251 251 251 251 251 251 251 251 251 
251 251 251 251 251 251 251 251 251 
251 251 251 251 251 251 251 251 251 
251 251 251 251 251 251 251 251 251 
251 251 251 251 251 251 251 251 251 
251 251 251 251 251 251 251 251 251 
251 251 251 251 251 251 251 251 251 
251 251 251 251 251 251 251 251 251 
251 251 251 251 251 251 251 251 251 
251 251 251 251 251 251 251 251 251 
251 251 251 251 251 251 251 251 251 
251 251 251 251 251 251 251 251 251 
251 251 251 251 251 251 251 251 251 
251 251 251 251 251 251 251 251 251 
251 251 251 251 251 251 251 251 251 
251 251 251 251 251 251 251 251 251 
251 251 251 251 251 251 251 251 251 
251 251 251 251 251 251 251 251 251 
251 251 251 251 251 251 251 251 251 
251 251 251 251 251 251 251 251 251 
251 251 251 251 251 251 251 251 251 
251 251 251 251 251 251 251 251 251 
251 251 251 251 251 251 251 251 251 
251 251 251 251 251 251 251 251 251 
251 251 251 251 251 251 251 251 251 
251 251 251 251 251 251 251 251 251 
251 251 251 251 251 251 251 251 251 
251 251 251 251 251 251 251 251 251 
251 251 251 251 251 251 251 251 251 
251 251 251 251 251 251 251 251 251 
251 251 251 251 251 251 251 251 251 
251 251 251 251 251 251 251 251 251 
251 251 251 251 251 251 251 251 251 
251 251 251 251 251 251 251 251 251 
251 251 251 251 251 251 251 251 251 
251 251 251 251 251 251 251 251 251 
251 251 251 251 251 251 251 251 251 
251 251 251 251 251 251 251 251 251 
251 251 251 251 251 251 251 251 251 
251 251 251 251 251 251 251 251 251 
251 251 251 251 251 251 251 251 251 
251 251 251 251 251 251 251 251 251 
251 251 251 251 251 251 251 251 251 
251 251 251 251 251 251 251 251 251 
251 251 251 251 251 251 251 251 251 
251 251 251 251 251 251 251 251 251 
251 251 251 251 251 251 251 251 251 
251 251 251 251 251 251 251 251 251 
251 251 251 251 251 251 251 251 251 
251 251 251 251 251 251 251 251 251 
251 251 251 251 251 251 251 251 251 
251 251 251 251 251 251 251 251 251 
251 251 251 251 251 251 251 251 251 
251 251 251 251 251 251 251 251 251 
251 251 251 251 251 251 251 251 251 
251 251 251 251 251 251 251 251 251 
251 251 251 251 251 251 251 251 251 
251 251 251 251 251 251 251 251 251 
251 251 251 251 251 251 251 251 251 
251 251 251 251 251 251 251 251 251 
251 251 251 251 251 251 251 251 251 
251 251 251 251 251 251 251 251 251 
251 251 251 251 251 251 251 251 251 
251 251 251 251 251 251 251 251 251 
251 251 251 251 251 251 251 251 251 
251 251 251 251 251 251 251 251 251 
251 251 251 251 251 251 251 251 251 
251 251 251 251 251 251 251 251 251 
251 251 251 251 251 251 251 251 251 
251 251 251 251 251 251 251 251 251 
251 251 251 251 251 251 251 251 251 
251 251 
