# vtk DataFile Version 4.2
vtk output
ASCII
DATASET POLYDATA
POINTS 786 float
2.48069 -7.43465 -9.12718 2.53993 -7.28128 -9.45889 2.77045 -7.6139 -9.3996 
2.1579 -7.50681 -9.11636 2.0672 -7.28528 -9.31819 1.76669 -7.44225 -9.33542 
2.4391 -7.72923 -9.23275 1.96907 -7.6806 -9.29234 0.160162 -7.04579 -9.72502 
0.300366 -6.69463 -10.041 0.501801 -6.93961 -9.82526 -0.0292969 -6.84196 -10.0266 
2.62535 -7.2616 -9.97127 2.83393 -7.47461 -9.77975 2.17036 -7.09935 -9.89885 
1.35831 -7.62747 -9.5618 1.56438 -7.16649 -9.76167 0.579474 -7.4557 -9.61915 
0.967163 -7.1099 -9.8635 0.112912 -7.55882 -9.64229 -0.102631 -7.31393 -9.93096 
2.55436 -8.13126 -9.50757 2.86864 -8.02549 -9.85995 1.93495 -8.09999 -9.48218 
1.27256 -8.21316 -9.56149 0.739947 -8.11489 -9.55085 0.207083 -8.08729 -9.62021 
-0.0899322 -7.94318 -9.91752 2.56462 -8.68905 -9.64557 2.84134 -8.70326 -9.95934 
2.04406 -8.71514 -9.5645 1.40065 -8.71185 -9.57336 0.771304 -8.71729 -9.55898 
0.229578 -8.70877 -9.62786 -0.0854828 -8.57061 -9.93845 2.61797 -9.14461 -9.72403 
2.80716 -9.33995 -10.0751 2.19256 -9.22342 -9.65143 1.57772 -9.22972 -9.66716 
0.933691 -9.22826 -9.65424 0.342279 -9.24397 -9.68161 -0.0765564 -9.21411 -10.0154 
2.41835 -9.55245 -9.87066 1.85362 -9.60669 -9.87929 1.21381 -9.60868 -9.88167 
0.586789 -9.62866 -9.86569 0.124365 -9.61582 -9.96382 1.7845 -6.86338 -10.2373 
2.02251 -6.68828 -10.7034 2.25772 -6.91873 -10.384 1.20815 -6.83877 -10.1917 
1.35862 -6.63754 -10.5998 0.718414 -6.7834 -10.0914 0.744571 -6.61571 -10.4199 
0.219681 -6.65865 -10.4535 -0.056076 -7.04442 -10.399 2.6257 -7.16858 -10.3934 
2.93088 -7.60771 -10.3455 -0.0868378 -7.65174 -10.3719 3.00923 -8.26476 -10.3958 
-0.0724915 -8.28362 -10.3808 2.99452 -8.87879 -10.3911 -0.0946747 -8.90641 -10.5119 
3.01295 -9.39925 -10.4697 -0.178171 -9.33018 -10.491 2.52056 -9.93924 -10.1301 
2.90777 -9.99386 -10.4912 1.99567 -9.98414 -10.0869 1.37318 -9.99071 -10.0993 
0.740762 -10.0037 -10.0874 0.198862 -9.99011 -10.1709 -0.111823 -9.74903 -10.4518 
2.53823 -10.4937 -10.2401 2.80975 -10.6097 -10.4717 2.02386 -10.5003 -10.1711 
1.40392 -10.5016 -10.1836 0.774829 -10.5026 -10.179 0.21991 -10.5 -10.2666 
-0.0990234 -10.3639 -10.5698 2.59464 -10.963 -10.3098 2.8112 -11.1783 -10.657 
2.16007 -11.0242 -10.2388 1.54522 -11.0303 -10.2528 0.90802 -11.0196 -10.2521 
0.318896 -11.021 -10.3027 -0.0828552 -11.0272 -10.6316 2.41416 -11.3911 -10.4497 
1.84923 -11.438 -10.4472 1.20447 -11.4279 -10.4556 0.561493 -11.4352 -10.46 
0.0983368 -11.4346 -10.5706 3.08328 -6.87969 -10.9217 3.16262 -6.7097 -11.2806 
3.39052 -7.02272 -11.0898 2.65804 -6.91414 -10.6965 2.56739 -6.65138 -11.0825 
1.90962 -6.57503 -11.1877 1.38417 -6.56792 -11.1165 0.724887 -6.61859 -10.9396 
0.226456 -6.85043 -10.8082 0.449963 -6.94257 -11.2087 3.13175 -7.3028 -10.7892 
3.45921 -7.48692 -11.1706 0.140717 -7.32402 -10.8066 0.383011 -7.4835 -11.1966 
3.22863 -7.9352 -10.8062 3.44074 -8.1069 -11.1896 0.159787 -7.94789 -10.7738 
0.40708 -8.1054 -11.168 3.2121 -8.55804 -10.7831 3.41757 -8.72309 -11.1585 
0.169959 -8.53432 -10.8247 0.399042 -8.75195 -11.289 3.20638 -9.15018 -10.7616 
3.41658 -9.32419 -11.1561 0.13168 -8.98885 -10.9978 -0.0458771 -9.43775 -10.9494 
3.20061 -9.70682 -10.8171 3.39481 -9.95484 -11.2858 -0.0752747 -10.0806 -11.013 
3.1616 -10.1656 -10.9761 3.01515 -10.6397 -10.9254 -0.0911407 -10.6935 -11.0189 
3.03329 -11.2433 -11.0686 -0.0704041 -11.2426 -11.0845 2.63155 -11.6521 -10.7575 
2.93627 -11.6635 -11.0663 2.18257 -11.7377 -10.7571 1.56264 -11.7289 -10.7605 
0.828928 -11.8154 -10.7781 0.213574 -11.8419 -10.7783 -0.0369781 -11.7252 -10.9744 
2.53817 -11.9164 -11.2269 1.87789 -11.9292 -11.1579 1.30097 -11.9351 -11.0699 
0.653549 -12.1095 -11.2413 0.305338 -12.3865 -11.1102 0.308496 -12.2291 -10.9722 
0.0405487 -12.2212 -11.0379 0.14024 -12.4389 -11.0968 3.25152 -6.65871 -11.7933 
3.46437 -6.97663 -11.5313 2.80765 -6.50495 -11.7081 2.15068 -6.48779 -11.5822 
1.43734 -6.49535 -11.6854 0.849536 -6.64684 -11.5442 0.547366 -6.97165 -11.7166 
3.53433 -7.49978 -11.6922 0.480084 -7.5061 -11.6942 3.51499 -8.12385 -11.6927 
0.500638 -8.11946 -11.6783 3.50463 -8.73485 -11.6646 0.51243 -8.63536 -11.773 
3.505 -9.33498 -11.676 0.235538 -9.27678 -11.2984 0.439719 -9.25801 -11.6969 
3.50223 -9.83683 -11.7779 0.185788 -9.77019 -11.3968 0.417673 -9.91719 -11.7788 
3.24778 -10.4787 -11.2757 3.43358 -10.4657 -11.6846 0.16485 -10.3744 -11.4021 
0.409799 -10.5186 -11.7771 3.22682 -10.9821 -11.3616 3.4422 -11.1327 -11.7532 
0.158011 -10.979 -11.3932 0.405652 -11.1254 -11.7661 3.23333 -11.5416 -11.4105 
3.4158 -11.6541 -11.8738 0.217676 -11.6508 -11.3484 0.477054 -11.7119 -11.7173 
3.03199 -11.9134 -11.6541 2.5251 -11.9981 -11.8266 2.00747 -11.9987 -11.7071 
1.34945 -12.0917 -11.5093 0.869861 -12.3009 -11.5123 1.02268 -12.3284 -11.8692 
0.166617 -12.222 -11.1811 0.59902 -12.1971 -11.6972 0.723468 -12.4362 -11.7989 
2.41036 -6.27453 -12.0094 2.63184 -6.05859 -12.5052 2.88602 -6.3051 -12.1861 
1.81009 -6.27402 -11.9788 1.97353 -6.04744 -12.3544 1.30611 -6.31322 -12.1079 
1.49853 -6.11346 -12.2977 1.07946 -6.25518 -12.5122 3.20561 -6.48094 -12.247 
3.46959 -6.87253 -12.2357 0.855414 -6.56574 -12.1426 0.53866 -6.95572 -12.2977 
3.52503 -7.48344 -12.3157 0.476788 -7.48965 -12.2907 3.50324 -8.10558 -12.2901 
0.496783 -8.10004 -12.2722 3.49911 -8.71355 -12.2693 0.510049 -8.71746 -12.2735 
3.50384 -9.31268 -12.2728 0.510187 -9.32965 -12.2805 3.5023 -9.91705 -12.2762 
0.511121 -9.92811 -12.2868 3.50902 -10.5362 -12.2639 0.503275 -10.5233 -12.2853 
3.52755 -11.1409 -12.275 0.48858 -11.1309 -12.2784 3.4638 -11.7534 -12.44 
0.485046 -11.7441 -12.2529 3.14384 -12.0243 -12.2024 2.60499 -12.0823 -12.2293 
2.00594 -12.061 -12.2452 1.46653 -12.1219 -12.0972 1.09212 -12.4141 -12.3807 
0.541635 -12.2619 -12.2444 0.737759 -12.4813 -12.2767 3.14084 -6.22156 -12.5492 
3.09926 -6.04821 -13.0158 3.41431 -6.41245 -12.785 2.51455 -5.93948 -13.0021 
1.97747 -5.9559 -12.8776 1.4371 -6.03544 -12.734 1.03032 -6.25646 -13.079 
3.53206 -6.8682 -12.9225 0.733859 -6.55272 -12.7742 0.530209 -6.94757 -12.9151 
3.5095 -7.47968 -12.9311 0.463852 -7.47786 -12.909 3.48478 -8.09962 -12.9019 
0.479929 -8.09515 -12.8886 3.48384 -8.70558 -12.8899 0.499942 -8.71198 -12.8861 
3.48883 -9.30889 -12.8893 0.506461 -9.30917 -12.887 3.49527 -9.91049 -12.8866 
0.506204 -9.90233 -12.8868 3.50779 -10.5132 -12.8677 0.498807 -10.5021 -12.8887 
3.5186 -11.1133 -12.8722 0.480148 -11.1192 -12.8846 3.51862 -11.6136 -12.9677 
0.468402 -11.7464 -12.874 3.13233 -12.3628 -12.5215 3.44557 -12.2564 -12.8577 
2.61191 -12.3927 -12.5117 1.98915 -12.3551 -12.5546 1.51006 -12.2684 -12.4836 
0.520285 -12.3316 -12.9322 3.14014 -12.9241 -12.6259 3.44436 -12.9408 -12.9174 
2.71073 -12.8308 -12.5819 2.14166 -12.9295 -12.68 1.3954 -12.7292 -12.7116 
0.808411 -12.6885 -12.808 1.03426 -12.8975 -12.8853 3.21259 -13.4141 -12.6874 
3.43069 -13.5827 -13.0374 2.70468 -13.3898 -12.6704 2.22844 -13.4451 -12.8358 
1.75488 -13.2401 -12.8982 1.27945 -13.0929 -12.944 3.03126 -13.8056 -12.8481 
2.55628 -13.7532 -12.9006 3.1526 -6.0057 -13.6708 3.46074 -6.33107 -13.368 
2.70466 -5.93639 -13.4009 2.0623 -6.02543 -13.4634 1.44366 -6.09086 -13.2919 
1.14433 -6.32247 -13.5747 3.5331 -6.8499 -13.5275 0.800299 -6.56365 -13.4712 
0.537112 -6.94708 -13.5336 3.50171 -7.47638 -13.534 0.460062 -7.46849 -13.521 
3.48212 -8.09787 -13.5094 0.473218 -8.08649 -13.5 3.48072 -8.70283 -13.4994 
0.490118 -8.70183 -13.4961 3.48299 -9.30139 -13.4993 0.4927 -9.30062 -13.4976 
3.48565 -9.8997 -13.4965 0.491602 -9.89654 -13.4996 3.49101 -10.5044 -13.4834 
0.488058 -10.4969 -13.5004 3.50065 -11.1051 -13.4802 0.477896 -11.1111 -13.4933 
3.50792 -11.7041 -13.4726 0.467798 -11.7283 -13.4956 3.51411 -12.3169 -13.4513 
0.459915 -12.2265 -13.5827 3.52304 -12.9282 -13.4489 0.861603 -13.1153 -13.1366 
0.520294 -12.7666 -13.435 3.52769 -13.4408 -13.5415 2.11155 -13.6921 -13.063 
1.45105 -13.5359 -13.1838 0.893225 -13.5163 -13.3228 0.555203 -13.4139 -13.6047 
3.22453 -14.067 -13.1393 3.44886 -14.1138 -13.5679 2.6832 -14.0827 -13.1623 
2.05367 -14.0281 -13.3157 1.6181 -13.9913 -13.4385 1.14738 -13.8494 -13.4601 
0.734207 -13.8028 -13.5593 3.0527 -14.4072 -13.4545 2.46748 -14.4163 -13.5023 
1.94204 -14.3 -13.5446 3.12658 -6.01454 -14.2765 3.45499 -6.30635 -13.9887 
2.57718 -6.02038 -13.9279 2.02936 -6.23846 -13.8924 2.25506 -6.28883 -14.2811 
1.56285 -6.28835 -13.7642 3.52494 -6.85692 -14.1329 1.77379 -6.4676 -14.2027 
1.18516 -6.51068 -14.0884 0.750009 -6.66187 -14.035 0.539154 -6.94389 -14.1387 
3.50581 -7.48165 -14.1356 0.456052 -7.46136 -14.1274 3.48787 -8.09508 -14.1178 
0.471799 -8.0827 -14.1022 3.48226 -8.70157 -14.1023 0.488644 -8.70101 -14.0977 
3.48185 -9.30099 -14.0992 0.49032 -9.30288 -14.0994 3.48265 -9.90061 -14.0987 
0.489386 -9.8996 -14.101 3.48453 -10.5041 -14.0953 0.48847 -10.4986 -14.1 
3.4894 -11.1078 -14.0932 0.484406 -11.1083 -14.0933 3.49601 -11.707 -14.0899 
0.474609 -11.7188 -14.0945 3.50168 -12.3079 -14.0749 0.463 -12.3201 -14.082 
3.50887 -12.9096 -14.059 0.455777 -12.9252 -14.0779 3.51647 -13.5189 -14.056 
0.453067 -13.4349 -14.1642 3.52096 -14.0484 -14.1479 1.40973 -14.3055 -13.6691 
0.821878 -14.2059 -13.7494 0.513181 -13.9608 -14.0264 3.23809 -14.6615 -13.7589 
3.44714 -14.72 -14.1709 2.77692 -14.7377 -13.7725 2.06403 -14.6498 -13.7888 
1.45794 -14.7082 -13.8671 0.946088 -14.6594 -13.8843 0.545773 -14.6354 -14.1922 
3.06001 -15.0199 -14.0568 2.47788 -15.0363 -14.0744 1.82441 -15.0149 -14.0717 
1.19729 -15.0348 -14.0614 0.739728 -15.0439 -14.1456 3.08961 -6.07935 -14.7285 
3.41858 -6.37011 -14.6393 2.70027 -6.07859 -14.4979 2.42567 -6.32258 -14.7286 
3.52342 -6.94933 -14.638 1.97915 -6.51751 -14.7931 1.36274 -6.57339 -14.7203 
0.836847 -6.64847 -14.5749 0.534494 -6.92787 -14.7427 3.5138 -7.46871 -14.7321 
0.448627 -7.44717 -14.7324 3.4972 -8.08614 -14.7288 0.470847 -8.0712 -14.7065 
3.48487 -8.69699 -14.7075 0.489111 -8.695 -14.7011 3.48228 -9.30092 -14.6994 
0.491519 -9.30267 -14.6996 3.48285 -9.902 -14.6983 0.490897 -9.90235 -14.6988 
[...]
CELL_DATA 1568
SCALARS scalars float
LOOKUP_TABLE default
251 251 251 251 251 251 251 251 251 
251 251 251 251 251 251 251 251 251 
251 251 251 251 251 251 251 251 251 
251 251 251 251 251 251 251 251 251 
251 251 251 251 251 251 251 251 251 
251 251 251 251 251 251 251 251 251 
251 251 251 251 251 251 251 251 251 
251 251 251 251 251 251 251 251 251 
251 251 251 251 251 251 251 251 251 
251 251 251 251 251 251 251 251 251 
251 251 251 251 251 251 251 251 251 
251 251 251 251 251 251 251 251 251 
251 251 251 251 251 251 251 251 251 
251 251 251 251 251 251 251 251 251 
251 251 251 251 251 251 251 251 251 
251 251 251 251 251 251 251 251 251 
251 251 251 251 251 251 251 251 251 
251 251 251 251 251 251 251 251 251 
251 251 251 251 251 251 251 251 251 
251 251 251 251 251 251 251 251 251 
251 251 251 251 251 251 251 251 251 
251 251 251 251 251 251 251 251 251 
251 251 251 251 251 251 251 251 251 
251 251 251 251 251 251 251 251 251 
251 251 251 251 251 251 251 251 251 
251 251 251 251 251 251 251 251 251 
251 251 251 251 251 251 251 251 251 
251 251 251 251 251 251 251 251 251 
251 251 251 251 251 251 251 251 251 
251 251 251 251 251 251 251 251 251 
251 251 251 251 251 251 251 251 251 
251 251 251 251 251 251 251 251 251 
251 251 251 251 251 251 251 251 251 
251 251 251 251 251 251 251 251 251 
251 251 251 251 251 251 251 251 251 
251 251 251 251 251 251 251 251 251 
251 251 251 251 251 251 251 251 251 
251 251 251 251 251 251 251 251 251 
251 251 251 251 251 251 251 251 251 
251 251 251 251 251 251 251 251 251 
251 251 251 251 251 251 251 251 251 
251 251 251 251 251 251 251 251 251 
251 251 251 251 251 251 251 251 251 
251 251 251 251 251 251 251 251 251 
251 251 251 251 251 251 251 251 251 
251 251 251 251 251 251 251 251 251 
251 251 251 251 251 251 251 251 251 
251 251 251 251 251 251 251 251 251 
251 251 251 251 251 251 251 251 251 
251 251 251 251 251 251 251 251 251 
251 251 251 251 251 251 251 251 251 
251 251 251 251 251 251 251 251 251 
251 251 251 251 251 251 251 251 251 
251 251 251 251 251 251 251 251 251 
251 251 251 251 251 251 251 251 251 
251 251 251 251 251 251 251 251 251 
251 251 251 251 251 251 251 251 251 
251 251 251 251 251 251 251 251 251 
251 251 251 251 251 251 251 251 251 
251 251 251 251 251 251 251 251 251 
251 251 251 251 251 251 251 251 251 
251 251 251 251 251 251 251 251 251 
251 251 251 251 251 251 251 251 251 
251 251 251 251 251 251 251 251 251 
251 251 251 251 251 251 251 251 251 
251 251 251 251 251 251 251 251 251 
251 251 251 251 251 251 251 251 251 
251 251 251 251 251 251 251 251 251 
251 251 251 251 251 251 251 251 251 
251 251 251 251 251 251 251 251 251 
251 251 251 251 251 251 251 251 251 
251 251 251 251 251 251 251 251 251 
251 251 251 251 251 251 251 251 251 
251 251 251 251 251 251 251 251 251 
251 251 251 251 251 251 251 251 251 
251 251 251 251 251 251 251 251 251 
251 251 251 251 251 251 251 251 251 
251 251 251 251 251 251 251 251 251 
251 251 251 251 251 251 251 251 251 
251 251 251 251 251 251 251 251 251 
251 251 251 251 251 251 251 251 251 
251 251 251 251 251 251 251 251 251 
251 251 251 251 251 251 251 251 251 
251 251 251 251 251 251 251 251 251 
251 251 251 251 251 251 251 251 251 
251 251 251 251 251 251 251 251 251 
251 251 251 251 251 251 251 251 251 
251 251 251 251 251 251 251 251 251 
251 251 251 251 251 251 251 251 251 
251 251 251 251 251 251 251 251 251 
251 251 251 251 251 251 251 251 251 
251 251 251 251 251 251 251 251 251 
251 251 251 251 251 251 251 251 251 
251 251 251 251 251 251 251 251 251 
251 251 251 251 251 251 251 251 251 
251 251 251 251 251 251 251 251 251 
251 251 251 251 251 251 251 251 251 
251 251 251 251 251 251 251 251 251 
251 251 251 251 251 251 251 251 251 
251 251 251 251 251 251 251 251 251 
251 251 251 251 251 251 251 251 251 
251 251 251 251 251 251 251 251 251 
251 251 251 251 251 251 251 251 251 
251 251 251 251 251 251 251 251 251 
251 251 251 251 251 251 251 251 251 
251 251 251 251 251 251 251 251 251 
251 251 251 251 251 251 251 251 251 
251 251 251 251 251 251 251 251 251 
251 251 251 251 251 251 251 251 251 
251 251 251 251 251 251 251 251 251 
251 251 251 251 251 251 251 251 251 
251 251 251 251 251 251 251 251 251 
251 251 251 251 251 251 251 251 251 
251 251 251 251 251 251 251 251 251 
251 251 251 251 251 251 251 251 251 
251 251 251 251 251 251 251 251 251 
251 251 251 251 251 251 251 251 251 
251 251 251 251 251 251 251 251 251 
251 251 251 251 251 251 251 251 251 
251 251 251 251 251 251 251 251 251 
251 251 251 251 251 251 251 251 251 
251 251 251 251 251 251 251 251 251 
251 251 251 251 251 251 251 251 251 
251 251 251 251 251 251 251 251 251 
251 251 251 251 251 251 251 251 251 
251 251 251 251 251 251 251 251 251 
251 251 251 251 251 251 251 251 251 
251 251 251 251 251 251 251 251 251 
251 251 251 251 251 251 251 251 251 
251 251 251 251 251 251 251 251 251 
251 251 251 251 251 251 251 251 251 
251 251 251 251 251 251 251 251 251 
251 251 251 251 251 251 251 251 251 
251 251 251 251 251 251 251 251 251 
251 251 251 251 251 251 251 251 251 
251 251 251 251 251 251 251 251 251 
251 251 251 251 251 251 251 251 251 
251 251 251 251 251 251 251 251 251 
251 251 251 251 251 251 251 251 251 
251 251 251 251 251 251 251 251 251 
251 251 251 251 251 251 251 251 251 
251 251 251 251 251 251 251 251 251 
251 251 251 251 251 251 251 251 251 
251 251 251 251 251 251 251 251 251 
251 251 251 251 251 251 251 251 251 
251 251 251 251 251 251 251 251 251 
251 251 251 251 251 251 251 251 251 
251 251 251 251 251 251 251 251 251 
251 251 251 251 251 251 251 251 251 
251 251 251 251 251 251 251 251 251 
251 251 251 251 251 251 251 251 251 
251 251 251 251 251 251 251 251 251 
251 251 251 251 251 251 251 251 251 
251 251 251 251 251 251 251 251 251 
251 251 251 251 251 251 251 251 251 
251 251 251 251 251 251 251 251 251 
251 251 251 251 251 251 251 251 251 
251 251 251 251 251 251 251 251 251 
251 251 251 251 251 251 251 251 251 
251 251 251 251 251 251 251 251 251 
251 251 251 251 251 251 251 251 251 
251 251 251 251 251 251 251 251 251 
251 251 251 251 251 251 251 251 251 
251 251 251 251 251 251 251 251 251 
251 251 251 251 251 251 251 251 251 
251 251 251 251 251 251 251 251 251 
251 251 251 251 251 251 251 251 251 
251 251 251 251 251 251 251 251 251 
251 251 251 251 251 251 251 251 251 
251 251 251 251 251 251 251 251 251 
251 251 251 251 251 251 251 251 251 
251 251 251 251 251 251 251 251 251 
251 251 251 251 251 251 251 251 251 
251 251 251 251 251 251 251 251 251 
251 251 
