# vtk DataFile Version 4.2
vtk output
ASCII
DATASET POLYDATA
POINTS 4988 float
52.2472 48.71 16.2207 52.4285 48.2148 16.7673 52.6504 48.611 16.2026 
51.841 48.2953 16.4241 50.2175 48.7064 16.5143 50.4866 48.337 16.7267 
50.5905 48.3882 16.316 50.0513 48.3507 16.6082 52.3807 48.7368 15.685 
52.5767 48.3776 15.6749 52.1184 48.4828 15.6919 50.1469 48.3933 16.3635 
52.3126 48.5222 15.331 53.0629 47.9936 16.3668 53.1427 47.6921 16.9571 
53.6549 47.4616 16.6836 52.3493 47.4151 17.1697 51.2312 48.1517 16.4113 
51.3391 47.8301 16.9287 50.2516 47.3361 17.0479 49.839 47.6463 16.5161 
53.4252 47.3176 16.0315 52.2234 47.8939 15.8391 52.2817 48.2644 15.4148 
52.0213 47.5457 15.4526 51.3884 47.8467 15.4275 50.3161 47.7338 15.9931 
50.7127 47.54 15.4079 52.3749 47.4174 14.9918 52.4778 47.3478 14.3341 
52.0845 47.8164 14.5485 51.5851 47.811 14.4422 50.9005 47.524 14.7617 
52.0082 47.4778 14.0726 51.1645 47.3283 14.1028 53.2925 47.0257 17.3102 
53.4528 46.2092 17.8533 54.0309 46.6509 17.3787 52.2675 46.8132 17.4187 
52.28 46.3099 17.7759 51.8087 46.4855 17.5157 50.4199 46.4014 17.7624 
50.6541 46.6824 17.4311 50.2256 46.7668 17.4793 49.8704 46.2728 17.6228 
54.157 46.922 16.6851 54.5316 46.423 17.1167 54.6712 46.1971 16.5891 
51.3842 46.87 17.2706 49.2959 46.9839 16.1555 49.334 46.5526 16.8737 
48.7301 46.3434 16.5769 54.1223 46.6141 15.9645 53.2583 46.8914 15.3311 
53.7654 46.1617 15.4678 52.5853 47.3375 15.5186 50.0706 47.2112 15.2969 
49.1193 47.0129 15.303 48.3913 46.5779 16.2109 48.1836 46.9295 15.5169 
47.017 46.937 15.366 47.4157 46.4239 16.0449 46.048 46.8485 15.212 
46.3846 46.417 15.8128 45.7143 46.3494 15.5753 53.3418 46.4127 15.0576 
52.8842 46.6061 14.668 50.2484 47.0867 14.3185 49.4515 47.0193 14.5914 
48.4631 46.9251 14.3183 47.4422 47.0815 14.6721 46.4144 46.9939 14.3448 
45.2137 46.3418 15.1218 45.2289 46.9013 14.3885 44.6587 46.4242 14.5668 
52.3656 46.4544 13.9602 51.4945 46.8475 13.9807 50.3148 46.4437 14.0084 
49.5471 46.3379 13.4773 49.4279 46.7774 13.7442 48.895 46.6084 13.5247 
48.4744 46.311 13.6243 47.919 46.3228 13.3305 47.4395 46.7945 13.7886 
46.6992 46.626 13.6073 46.1191 46.6657 13.713 45.7398 46.5553 13.4478 
45.4635 46.8552 13.7375 44.3753 46.6519 14.0254 44.5593 46.7879 13.5263 
43.7896 46.2825 13.3404 49.2759 46.5201 13.2825 47.23 46.1752 13.1696 
45.2145 46.3775 13.0069 44.1973 46.366 12.8529 50.4621 45.8634 18.2822 
50.2987 45.5028 18.6586 50.569 45.4714 18.5777 50.0391 45.6444 18.3129 
54.2945 46.1649 17.6173 54.1513 45.4006 17.8838 54.7422 45.7477 17.2837 
53.2199 45.3894 18.0615 52.3494 45.5176 18.0264 51.1433 45.4481 18.1629 
51.1765 46.2295 17.7416 49.6506 45.3613 17.7835 54.7807 45.2275 16.6456 
49.1555 45.5622 17.1949 47.977 46.0428 16.5062 48.3663 45.5477 16.8626 
47.213 45.8174 16.4322 47.3587 45.3141 16.7495 46.6942 45.308 16.5644 
54.2518 45.5682 16.0223 53.636 45.3802 15.5969 46.5156 45.7654 16.2199 
45.3255 45.9846 15.5273 45.6375 45.6771 15.9478 44.9401 45.5674 15.571 
53.2964 45.8088 15.0871 52.9259 45.3916 14.4341 51.2601 46.0002 14.3292 
51.6376 45.4395 14.4287 51.1837 45.1638 14.8714 50.3888 45.3672 14.8664 
50.4148 45.9331 14.4951 49.8109 45.4956 14.5229 43.8648 46.1015 14.2541 
44.4082 45.7885 14.9995 43.1565 45.744 14.2041 43.5456 45.5171 14.8983 
42.8857 45.2286 14.6517 53.1158 45.8299 13.605 53.2801 45.3503 13.7064 
53.4697 45.544 13.4252 52.6269 45.8528 13.3388 51.9865 45.5397 13.7966 
49.2215 45.5585 13.9367 49.1272 46.2599 13.426 48.3417 45.9994 13.3745 
48.5763 45.4828 13.546 46.2593 46.3086 13.2844 43.2877 45.9244 13.6321 
42.9126 45.4205 13.7298 53.0529 45.4663 13.178 52.3972 45.2694 13.1928 
48.0785 45.7301 13.1832 47.5031 45.4616 13.0832 46.3755 45.6683 12.9376 
45.3602 45.8196 12.4369 45.7163 45.4023 12.5173 44.5518 45.9236 12.3334 
43.9051 45.7759 12.5342 43.374 45.5839 13.0344 45.065 45.5254 12.1521 
44.496 45.4304 12.1667 53.3053 45.7422 8.51267 53.1176 45.3645 8.90023 
53.5815 45.5625 8.64699 52.8851 45.4799 8.53489 30.1669 45.7573 8.5918 
30.2628 45.2214 8.81541 30.5744 45.4343 8.34666 29.3393 45.8387 8.53603 
29.366 45.4184 8.92427 28.2452 45.8467 8.49401 28.2635 45.4581 8.90042 
27.4133 45.7695 8.43044 27.4465 45.5978 8.77182 26.973 45.3341 8.59152 
53.4247 45.4219 8.23715 31.2839 45.6776 7.50717 31.44 45.2952 7.70257 
31.6567 45.371 7.309 30.0401 45.615 8.06598 31.0262 45.5747 7.5331 
29.0378 45.6242 7.9581 27.9263 45.4266 7.95547 27.1363 45.2916 8.23343 
31.0253 45.3232 7.28545 50.2305 45.1659 18.343 54.1302 44.3495 17.8655 
54.7384 44.7011 17.3035 53.3483 44.5357 18.0674 52.3501 44.5601 18.0386 
51.3213 44.5129 18.0218 50.3142 44.4237 18.0787 49.4239 44.4628 17.8749 
49.146 44.8902 17.4104 48.7371 44.3205 17.5287 54.7459 44.2921 16.3368 
48.498 44.7456 17.1641 47.4447 44.4787 17.0757 45.9513 45.0364 16.4973 
46.5016 44.6393 16.8542 44.9569 44.943 16.3313 45.424 44.2279 16.9944 
43.925 44.8555 16.3929 44.2832 44.3619 16.8988 43.1968 44.7571 16.3134 
43.4758 44.4906 16.8127 42.9944 44.2647 16.5425 54.2162 44.5926 16.0184 
53.5364 44.7176 15.7632 53.176 45.0388 15.3563 53.0195 44.4837 15.1827 
44.1929 45.207 15.6484 43.3322 45.0557 15.6042 42.8912 44.4877 15.5103 
52.8612 44.2022 14.2843 51.6436 44.8371 14.4287 51.076 44.2843 14.9144 
50.3049 44.4664 15.1213 49.4049 44.5317 14.9109 49.2959 44.9509 14.5414 
48.8045 44.4508 14.5295 42.8766 44.7659 14.2409 53.212 45.1156 13.3584 
52.7979 44.464 13.4484 51.8568 44.6591 13.6393 48.4849 44.6934 13.9899 
48.0544 45.0173 13.4464 47.643 44.4391 13.9971 47.1414 44.9455 13.4184 
46.6592 44.4684 13.9992 46.0716 44.9685 13.2267 45.6374 44.4917 13.9636 
45.0314 44.8271 13.2558 44.5749 44.4596 13.9489 44.0871 44.7693 13.3784 
43.5543 44.4856 13.9795 43.3118 44.9788 13.3704 52.4336 44.6774 13.1378 
45.1876 45.1494 12.4974 44.1513 45.1434 12.6954 53.4974 45.018 9.22906 
53.4188 44.3691 9.90343 53.821 44.4266 9.4581 52.9417 44.3277 9.61612 
54.0449 44.977 8.65747 54.3141 44.1664 8.94185 54.5879 44.2511 8.24985 
52.2958 45.0154 8.10473 52.4871 44.764 8.82645 51.8255 44.1571 8.43182 
30.222 44.2378 8.88945 30.7361 44.7555 8.43815 29.3386 44.4898 9.06122 
28.2383 44.5173 9.05383 27.2906 44.7956 8.88527 26.9025 44.4962 8.4917 
54.1167 44.7777 7.9119 53.2759 45.0089 7.57763 53.9392 44.5403 7.12343 
52.469 44.9002 7.26209 51.2484 44.3425 7.94832 51.5493 44.74 7.5234 
50.8262 44.3272 7.58484 32.3088 45.0769 7.35848 32.2259 44.3423 7.84113 
32.9079 44.6676 7.33674 31.2059 44.4752 8.0878 30.5342 45.1604 7.62885 
29.51 45.2559 7.46952 28.6192 45.0107 7.24667 27.8924 44.6425 7.49267 
27.2631 44.4079 7.97344 53.2806 44.7187 6.78595 53.7569 44.4466 6.53103 
52.7224 44.5448 6.58166 51.9536 44.5011 6.88221 51.1448 44.4096 7.18405 
50.2704 44.5116 6.84665 50.7649 44.5012 6.51342 50.3202 44.7539 6.20817 
49.9329 44.4513 6.62147 44.3245 44.7086 6.43216 44.5222 44.4091 6.81544 
44.4812 44.3498 6.37359 44.0395 44.3639 6.67562 33.0897 44.7846 6.74805 
33.5305 44.473 6.90829 33.7783 44.3214 6.39283 32.3249 44.8583 6.70817 
31.263 44.7144 6.83067 31.8255 44.4981 6.52385 30.3083 44.7165 6.86995 
29.6243 44.4054 6.26994 29.3912 44.7967 6.76585 28.7436 44.392 6.41164 
28.2631 44.2114 6.95033 54.1249 44.7901 5.15984 54.4445 44.3752 5.86301 
54.6953 44.4279 5.40215 53.3192 44.3257 6.20364 53.9212 44.4403 5.58988 
51.0795 44.8632 5.39832 51.4194 44.4017 5.92626 51.8321 44.5624 5.29438 
50.2835 44.8624 5.37006 49.7725 44.5352 5.7859 44.2026 44.3496 6.27701 
33.2505 44.3275 6.17832 32.37 44.263 6.13097 29.1303 44.3321 6.00626 
54.3597 44.8428 4.68238 54.6788 44.2651 4.63236 53.4278 44.5974 5.05892 
53.3556 44.8595 4.43455 52.1083 44.8983 4.6204 52.6191 44.5156 4.99639 
51.4892 44.9037 4.2745 50.6185 44.815 4.62024 49.8551 44.5427 4.84032 
33.2436 44.6456 4.49379 33.5356 44.2323 4.70429 33.5077 44.4932 4.29799 
32.8895 44.3209 4.70218 54.1416 44.6158 4.1988 53.4261 44.5207 3.80329 
52.7692 44.4413 3.32088 52.444 44.8024 3.79083 51.7371 44.6034 3.60366 
50.981 44.5189 3.8815 50.207 44.4435 4.17368 49.2753 44.5521 3.77724 
49.5215 44.4205 3.49043 49.2552 44.6327 3.52608 48.896 44.2692 3.44362 
33.0903 44.5257 4.23797 52.1701 44.4464 3.21824 49.2094 44.361 3.11274 
37.2922 43.6572 20.5029 37.3891 43.2219 20.8215 37.5767 43.4973 20.3678 
36.7764 43.2244 20.3793 37.2142 43.407 20.084 38.1391 43.7057 18.602 
38.4628 43.4418 18.8533 38.6235 43.4683 18.37 37.5122 43.4374 19.0177 
37.2463 43.8165 18.3834 36.1542 43.8578 18.1957 36.5764 43.5565 18.7278 
35.7991 43.1668 18.3444 54.4887 43.9516 17.438 54.0488 43.5683 17.6577 
53.3367 43.4052 17.9458 52.3349 43.5019 18.0524 51.3099 43.4844 18.017 
50.2949 43.4568 18.0133 49.3105 43.4569 18.0122 47.9771 44.0051 17.473 
48.3528 43.5004 17.8823 47.2021 43.7502 17.4165 47.3409 43.2964 17.7817 
46.704 43.3041 17.5821 45.1388 43.7171 17.3955 45.4047 43.1425 17.7234 
45.6968 43.6254 17.3993 44.6945 43.3301 17.5389 38.0139 43.5257 18.0604 
37.0668 43.3283 17.7622 36.7025 43.57 17.44 36.5749 43.8638 17.7093 
35.1981 43.4691 17.9526 35.4368 43.8581 17.5712 34.2739 43.8204 17.4118 
34.2481 43.4212 17.8384 33.4433 43.7842 17.3459 33.2983 43.4312 17.757 
32.7795 43.4239 17.5008 54.3903 43.1752 17.1482 54.7715 43.7096 16.7459 
46.4173 43.8041 17.2321 44.4816 43.7644 17.2255 43.4995 43.7588 17.0541 
42.8458 43.4251 16.3264 36.1775 43.6805 17.2716 35.2284 43.4851 17.1721 
34.0249 43.4674 17.0393 33.0039 43.3232 17.1039 54.1967 44.0229 15.4619 
54.7592 43.4887 15.6054 53.5229 44.2067 15.5224 43.2837 43.8365 15.4369 
43.6942 43.5107 15.3422 43.2092 43.2844 15.7782 54.3011 43.7036 14.7364 
54.666 43.106 14.4094 53.463 43.9328 14.7326 51.3355 44.0509 14.2237 
50.8514 43.4516 14.4663 50.2752 43.595 14.9341 49.3154 43.6181 14.966 
48.3419 43.6044 14.8223 47.993 43.996 14.5358 47.2217 43.2687 14.846 
47.0803 43.9389 14.5633 46.305 43.3152 14.946 46.1084 43.9891 14.5586 
45.3237 43.3254 14.9227 45.073 43.9864 14.5298 44.2452 43.2796 15.0371 
43.9877 43.9837 14.6782 43.2025 44.2516 14.7124 53.9296 43.4373 14.017 
53.2123 43.5812 13.957 52.9333 43.5609 13.3862 51.2591 44.0229 13.2115 
[...]
CELL_DATA 9988
SCALARS scalars float
LOOKUP_TABLE default
2018 2018 2018 2018 2018 2018 2018 2018 2018 
2018 2018 2018 2018 2018 2018 2018 2018 2018 
2018 2018 2018 2018 2018 2018 2018 2018 2018 
2018 2018 2018 2018 2018 2018 2018 2018 2018 
2018 2018 2018 2018 2018 2018 2018 2018 2018 
2018 2018 2018 2018 2018 2018 2018 2018 2018 
2018 2018 2018 2018 2018 2018 2018 2018 2018 
2018 2018 2018 2018 2018 2018 2018 2018 2018 
2018 2018 2018 2018 2018 2018 2018 2018 2018 
2018 2018 2018 2018 2018 2018 2018 2018 2018 
2018 2018 2018 2018 2018 2018 2018 2018 2018 
2018 2018 2018 2018 2018 2018 2018 2018 2018 
2018 2018 2018 2018 2018 2018 2018 2018 2018 
2018 2018 2018 2018 2018 2018 2018 2018 2018 
2018 2018 2018 2018 2018 2018 2018 2018 2018 
2018 2018 2018 2018 2018 2018 2018 2018 2018 
2018 2018 2018 2018 2018 2018 2018 2018 2018 
2018 2018 2018 2018 2018 2018 2018 2018 2018 
2018 2018 2018 2018 2018 2018 2018 2018 2018 
2018 2018 2018 2018 2018 2018 2018 2018 2018 
2018 2018 2018 2018 2018 2018 2018 2018 2018 
2018 2018 2018 2018 2018 2018 2018 2018 2018 
2018 2018 2018 2018 2018 2018 2018 2018 2018 
2018 2018 2018 2018 2018 2018 2018 2018 2018 
2018 2018 2018 2018 2018 2018 2018 2018 2018 
2018 2018 2018 2018 2018 2018 2018 2018 2018 
2018 2018 2018 2018 2018 2018 2018 2018 2018 
2018 2018 2018 2018 2018 2018 2018 2018 2018 
2018 2018 2018 2018 2018 2018 2018 2018 2018 
2018 2018 2018 2018 2018 2018 2018 2018 2018 
2018 2018 2018 2018 2018 2018 2018 2018 2018 
2018 2018 2018 2018 2018 2018 2018 2018 2018 
2018 2018 2018 2018 2018 2018 2018 2018 2018 
2018 2018 2018 2018 2018 2018 2018 2018 2018 
2018 2018 2018 2018 2018 2018 2018 2018 2018 
2018 2018 2018 2018 2018 2018 2018 2018 2018 
2018 2018 2018 2018 2018 2018 2018 2018 2018 
2018 2018 2018 2018 2018 2018 2018 2018 2018 
2018 2018 2018 2018 2018 2018 2018 2018 2018 
2018 2018 2018 2018 2018 2018 2018 2018 2018 
2018 2018 2018 2018 2018 2018 2018 2018 2018 
2018 2018 2018 2018 2018 2018 2018 2018 2018 
2018 2018 2018 2018 2018 2018 2018 2018 2018 
2018 2018 2018 2018 2018 2018 2018 2018 2018 
2018 2018 2018 2018 2018 2018 2018 2018 2018 
2018 2018 2018 2018 2018 2018 2018 2018 2018 
2018 2018 2018 2018 2018 2018 2018 2018 2018 
2018 2018 2018 2018 2018 2018 2018 2018 2018 
2018 2018 2018 2018 2018 2018 2018 2018 2018 
2018 2018 2018 2018 2018 2018 2018 2018 2018 
2018 2018 2018 2018 2018 2018 2018 2018 2018 
2018 2018 2018 2018 2018 2018 2018 2018 2018 
2018 2018 2018 2018 2018 2018 2018 2018 2018 
2018 2018 2018 2018 2018 2018 2018 2018 2018 
2018 2018 2018 2018 2018 2018 2018 2018 2018 
2018 2018 2018 2018 2018 2018 2018 2018 2018 
2018 2018 2018 2018 2018 2018 2018 2018 2018 
2018 2018 2018 2018 2018 2018 2018 2018 2018 
2018 2018 2018 2018 2018 2018 2018 2018 2018 
2018 2018 2018 2018 2018 2018 2018 2018 2018 
2018 2018 2018 2018 2018 2018 2018 2018 2018 
2018 2018 2018 2018 2018 2018 2018 2018 2018 
2018 2018 2018 2018 2018 2018 2018 2018 2018 
2018 2018 2018 2018 2018 2018 2018 2018 2018 
2018 2018 2018 2018 2018 2018 2018 2018 2018 
2018 2018 2018 2018 2018 2018 2018 2018 2018 
2018 2018 2018 2018 2018 2018 2018 2018 2018 
2018 2018 2018 2018 2018 2018 2018 2018 2018 
2018 2018 2018 2018 2018 2018 2018 2018 2018 
2018 2018 2018 2018 2018 2018 2018 2018 2018 
2018 2018 2018 2018 2018 2018 2018 2018 2018 
2018 2018 2018 2018 2018 2018 2018 2018 2018 
2018 2018 2018 2018 2018 2018 2018 2018 2018 
2018 2018 2018 2018 2018 2018 2018 2018 2018 
2018 2018 2018 2018 2018 2018 2018 2018 2018 
2018 2018 2018 2018 2018 2018 2018 2018 2018 
2018 2018 2018 2018 2018 2018 2018 2018 2018 
2018 2018 2018 2018 2018 2018 2018 2018 2018 
2018 2018 2018 2018 2018 2018 2018 2018 2018 
2018 2018 2018 2018 2018 2018 2018 2018 2018 
2018 2018 2018 2018 2018 2018 2018 2018 2018 
2018 2018 2018 2018 2018 2018 2018 2018 2018 
2018 2018 2018 2018 2018 2018 2018 2018 2018 
2018 2018 2018 2018 2018 2018 2018 2018 2018 
2018 2018 2018 2018 2018 2018 2018 2018 2018 
2018 2018 2018 2018 2018 2018 2018 2018 2018 
2018 2018 2018 2018 2018 2018 2018 2018 2018 
2018 2018 2018 2018 2018 2018 2018 2018 2018 
2018 2018 2018 2018 2018 2018 2018 2018 2018 
2018 2018 2018 2018 2018 2018 2018 2018 2018 
2018 2018 2018 2018 2018 2018 2018 2018 2018 
2018 2018 2018 2018 2018 2018 2018 2018 2018 
2018 2018 2018 2018 2018 2018 2018 2018 2018 
2018 2018 2018 2018 2018 2018 2018 2018 2018 
2018 2018 2018 2018 2018 2018 2018 2018 2018 
2018 2018 2018 2018 2018 2018 2018 2018 2018 
2018 2018 2018 2018 2018 2018 2018 2018 2018 
2018 2018 2018 2018 2018 2018 2018 2018 2018 
2018 2018 2018 2018 2018 2018 2018 2018 2018 
2018 2018 2018 2018 2018 2018 2018 2018 2018 
2018 2018 2018 2018 2018 2018 2018 2018 2018 
2018 2018 2018 2018 2018 2018 2018 2018 2018 
2018 2018 2018 2018 2018 2018 2018 2018 2018 
2018 2018 2018 2018 2018 2018 2018 2018 2018 
2018 2018 2018 2018 2018 2018 2018 2018 2018 
2018 2018 2018 2018 2018 2018 2018 2018 2018 
2018 2018 2018 2018 2018 2018 2018 2018 2018 
2018 2018 2018 2018 2018 2018 2018 2018 2018 
2018 2018 2018 2018 2018 2018 2018 2018 2018 
2018 2018 2018 2018 2018 2018 2018 2018 2018 
2018 2018 2018 2018 2018 2018 2018 2018 2018 
2018 2018 2018 2018 2018 2018 2018 2018 2018 
2018 2018 2018 2018 2018 2018 2018 2018 2018 
2018 2018 2018 2018 2018 2018 2018 2018 2018 
2018 2018 2018 2018 2018 2018 2018 2018 2018 
2018 2018 2018 2018 2018 2018 2018 2018 2018 
2018 2018 2018 2018 2018 2018 2018 2018 2018 
2018 2018 2018 2018 2018 2018 2018 2018 2018 
2018 2018 2018 2018 2018 2018 2018 2018 2018 
2018 2018 2018 2018 2018 2018 2018 2018 2018 
2018 2018 2018 2018 2018 2018 2018 2018 2018 
2018 2018 2018 2018 2018 2018 2018 2018 2018 
2018 2018 2018 2018 2018 2018 2018 2018 2018 
2018 2018 2018 2018 2018 2018 2018 2018 2018 
2018 2018 2018 2018 2018 2018 2018 2018 2018 
2018 2018 2018 2018 2018 2018 2018 2018 2018 
2018 2018 2018 2018 2018 2018 2018 2018 2018 
2018 2018 2018 2018 2018 2018 2018 2018 2018 
2018 2018 2018 2018 2018 2018 2018 2018 2018 
2018 2018 2018 2018 2018 2018 2018 2018 2018 
2018 2018 2018 2018 2018 2018 2018 2018 2018 
2018 2018 2018 2018 2018 2018 2018 2018 2018 
2018 2018 2018 2018 2018 2018 2018 2018 2018 
2018 2018 2018 2018 2018 2018 2018 2018 2018 
2018 2018 2018 2018 2018 2018 2018 2018 2018 
2018 2018 2018 2018 2018 2018 2018 2018 2018 
2018 2018 2018 2018 2018 2018 2018 2018 2018 
2018 2018 2018 2018 2018 2018 2018 2018 2018 
2018 2018 2018 2018 2018 2018 2018 2018 2018 
2018 2018 2018 2018 2018 2018 2018 2018 2018 
2018 2018 2018 2018 2018 2018 2018 2018 2018 
2018 2018 2018 2018 2018 2018 2018 2018 2018 
2018 2018 2018 2018 2018 2018 2018 2018 2018 
2018 2018 2018 2018 2018 2018 2018 2018 2018 
2018 2018 2018 2018 2018 2018 2018 2018 2018 
2018 2018 2018 2018 2018 2018 2018 2018 2018 
2018 2018 2018 2018 2018 2018 2018 2018 2018 
2018 2018 2018 2018 2018 2018 2018 2018 2018 
2018 2018 2018 2018 2018 2018 2018 2018 2018 
2018 2018 2018 2018 2018 2018 2018 2018 2018 
2018 2018 2018 2018 2018 2018 2018 2018 2018 
2018 2018 2018 2018 2018 2018 2018 2018 2018 
2018 2018 2018 2018 2018 2018 2018 2018 2018 
2018 2018 2018 2018 2018 2018 2018 2018 2018 
2018 2018 2018 2018 2018 2018 2018 2018 2018 
2018 2018 2018 2018 2018 2018 2018 2018 2018 
2018 2018 2018 2018 2018 2018 2018 2018 2018 
2018 2018 2018 2018 2018 2018 2018 2018 2018 
2018 2018 2018 2018 2018 2018 2018 2018 2018 
2018 2018 2018 2018 2018 2018 2018 2018 2018 
2018 2018 2018 2018 2018 2018 2018 2018 2018 
2018 2018 2018 2018 2018 2018 2018 2018 2018 
2018 2018 2018 2018 2018 2018 2018 2018 2018 
2018 2018 2018 2018 2018 2018 2018 2018 2018 
2018 2018 2018 2018 2018 2018 2018 2018 2018 
2018 2018 2018 2018 2018 2018 2018 2018 2018 
2018 2018 2018 2018 2018 2018 2018 2018 2018 
2018 2018 2018 2018 2018 2018 2018 2018 2018 
2018 2018 2018 2018 2018 2018 2018 2018 2018 
2018 2018 2018 2018 2018 2018 2018 2018 2018 
2018 2018 2018 2018 2018 2018 2018 2018 2018 
2018 2018 2018 2018 2018 2018 2018 2018 2018 
2018 2018 2018 2018 2018 2018 2018 2018 2018 
2018 2018 2018 2018 2018 2018 2018 2018 2018 
2018 2018 2018 2018 2018 2018 2018 2018 2018 
2018 2018 2018 2018 2018 2018 2018 2018 2018 
2018 2018 2018 2018 2018 2018 2018 2018 2018 
2018 2018 2018 2018 2018 2018 2018 2018 2018 
2018 2018 2018 2018 2018 2018 2018 2018 2018 
2018 2018 2018 2018 2018 2018 2018 2018 2018 
2018 2018 2018 2018 2018 2018 2018 2018 2018 
2018 2018 2018 2018 2018 2018 2018 2018 2018 
2018 2018 2018 2018 2018 2018 2018 2018 2018 
2018 2018 2018 2018 2018 2018 2018 2018 2018 
2018 2018 2018 2018 2018 2018 2018 2018 2018 
2018 2018 2018 2018 2018 2018 2018 2018 2018 
2018 2018 2018 2018 2018 2018 2018 2018 2018 
2018 2018 2018 2018 2018 2018 2018 2018 2018 
2018 2018 2018 2018 2018 2018 2018 2018 2018 
2018 2018 2018 2018 2018 2018 2018 2018 2018 
2018 2018 2018 2018 2018 2018 2018 2018 2018 
2018 2018 2018 2018 2018 2018 2018 2018 2018 
2018 2018 2018 2018 2018 2018 2018 2018 2018 
2018 2018 2018 2018 2018 2018 2018 2018 2018 
2018 2018 2018 2018 2018 2018 2018 2018 2018 
2018 2018 2018 2018 2018 2018 2018 2018 2018 
2018 2018 2018 2018 2018 2018 2018 2018 2018 
2018 2018 2018 2018 2018 2018 2018 2018 2018 
2018 2018 2018 2018 2018 2018 2018 2018 2018 
2018 2018 2018 2018 2018 2018 2018 2018 2018 
2018 2018 2018 2018 2018 2018 2018 2018 2018 
2018 2018 2018 2018 2018 2018 2018 2018 2018 
2018 2018 2018 2018 2018 2018 2018 2018 2018 
2018 2018 2018 2018 2018 2018 2018 2018 2018 
2018 2018 2018 2018 2018 2018 2018 2018 2018 
2018 2018 2018 2018 2018 2018 2018 2018 2018 
2018 2018 2018 2018 2018 2018 2018 2018 2018 
2018 2018 2018 2018 2018 2018 2018 2018 2018 
2018 2018 2018 2018 2018 2018 2018 2018 2018 
2018 2018 2018 2018 2018 2018 2018 2018 2018 
2018 2018 2018 2018 2018 2018 2018 2018 2018 
2018 2018 2018 2018 2018 2018 2018 2018 2018 
2018 2018 2018 2018 2018 2018 2018 2018 2018 
2018 2018 2018 2018 2018 2018 2018 2018 2018 
2018 2018 2018 2018 2018 2018 2018 2018 2018 
2018 2018 2018 2018 2018 2018 2018 2018 2018 
2018 2018 2018 2018 2018 2018 2018 2018 2018 
2018 2018 2018 2018 2018 2018 2018 2018 2018 
2018 2018 2018 2018 2018 2018 2018 2018 2018 
2018 2018 2018 2018 2018 2018 2018 2018 2018 
2018 2018 2018 2018 2018 2018 2018 2018 2018 
2018 2018 2018 2018 2018 2018 2018 2018 2018 
2018 2018 2018 2018 2018 2018 2018 2018 2018 
2018 2018 2018 2018 2018 2018 2018 2018 2018 
2018 2018 2018 2018 2018 2018 2018 2018 2018 
2018 2018 2018 2018 2018 2018 2018 2018 2018 
2018 2018 2018 2018 2018 2018 2018 2018 2018 
2018 2018 2018 2018 2018 2018 2018 2018 2018 
2018 2018 2018 2018 2018 2018 2018 2018 2018 
2018 2018 2018 2018 2018 2018 2018 2018 2018 
2018 2018 2018 2018 2018 2018 2018 2018 2018 
2018 2018 2018 2018 2018 2018 2018 2018 2018 
2018 2018 2018 2018 2018 2018 2018 2018 2018 
2018 2018 2018 2018 2018 2018 2018 2018 2018 
2018 2018 2018 2018 2018 2018 2018 2018 2018 
2018 2018 2018 2018 2018 2018 2018 2018 2018 
2018 2018 2018 2018 2018 2018 2018 2018 2018 
2018 2018 2018 2018 2018 2018 2018 2018 2018 
2018 2018 2018 2018 2018 2018 2018 2018 2018 
2018 2018 2018 2018 2018 2018 2018 2018 2018 
2018 2018 2018 2018 2018 2018 2018 2018 2018 
2018 2018 2018 2018 2018 2018 2018 2018 2018 
2018 2018 2018 2018 2018 2018 2018 2018 2018 
2018 2018 2018 2018 2018 2018 2018 2018 2018 
2018 2018 2018 2018 2018 2018 2018 2018 2018 
2018 2018 2018 2018 2018 2018 2018 2018 2018 
2018 2018 2018 2018 2018 2018 2018 2018 2018 
2018 2018 2018 2018 2018 2018 2018 2018 2018 
2018 2018 2018 2018 2018 2018 2018 2018 2018 
2018 2018 2018 2018 2018 2018 2018 2018 2018 
2018 2018 2018 2018 2018 2018 2018 2018 2018 
2018 2018 2018 2018 2018 2018 2018 2018 2018 
2018 2018 2018 2018 2018 2018 2018 2018 2018 
2018 2018 2018 2018 2018 2018 2018 2018 2018 
2018 2018 2018 2018 2018 2018 2018 2018 2018 
2018 2018 2018 2018 2018 2018 2018 2018 2018 
2018 2018 2018 2018 2018 2018 2018 2018 2018 
2018 2018 2018 2018 2018 2018 2018 2018 2018 
2018 2018 2018 2018 2018 2018 2018 2018 2018 
2018 2018 2018 2018 2018 2018 2018 2018 2018 
2018 2018 2018 2018 2018 2018 2018 2018 2018 
2018 2018 2018 2018 2018 2018 2018 2018 2018 
2018 2018 2018 2018 2018 2018 2018 2018 2018 
2018 2018 2018 2018 2018 2018 2018 2018 2018 
2018 2018 2018 2018 2018 2018 2018 2018 2018 
2018 2018 2018 2018 2018 2018 2018 2018 2018 
2018 2018 2018 2018 2018 2018 2018 2018 2018 
2018 2018 2018 2018 2018 2018 2018 2018 2018 
2018 2018 2018 2018 2018 2018 2018 2018 2018 
2018 2018 2018 2018 2018 2018 2018 2018 2018 
2018 2018 2018 2018 2018 2018 2018 2018 2018 
2018 2018 2018 2018 2018 2018 2018 2018 2018 
2018 2018 2018 2018 2018 2018 2018 2018 2018 
2018 2018 2018 2018 2018 2018 2018 2018 2018 
2018 2018 2018 2018 2018 2018 2018 2018 2018 
2018 2018 2018 2018 2018 2018 2018 2018 2018 
2018 2018 2018 2018 2018 2018 2018 2018 2018 
2018 2018 2018 2018 2018 2018 2018 2018 2018 
2018 2018 2018 2018 2018 2018 2018 2018 2018 
2018 2018 2018 2018 2018 2018 2018 2018 2018 
2018 2018 2018 2018 2018 2018 2018 2018 2018 
2018 2018 2018 2018 2018 2018 2018 2018 2018 
2018 2018 2018 2018 2018 2018 2018 2018 2018 
2018 2018 2018 2018 2018 2018 2018 2018 2018 
2018 2018 2018 2018 2018 2018 2018 2018 2018 
2018 2018 2018 2018 2018 2018 2018 2018 2018 
2018 2018 2018 2018 2018 2018 2018 2018 2018 
2018 2018 2018 2018 2018 2018 2018 2018 2018 
2018 2018 2018 2018 2018 2018 2018 2018 2018 
2018 2018 2018 2018 2018 2018 2018 2018 2018 
2018 2018 2018 2018 2018 2018 2018 2018 2018 
2018 2018 2018 2018 2018 2018 2018 2018 2018 
2018 2018 2018 2018 2018 2018 2018 2018 2018 
2018 2018 2018 2018 2018 2018 2018 2018 2018 
2018 2018 2018 2018 2018 2018 2018 2018 2018 
2018 2018 2018 2018 2018 2018 2018 2018 2018 
2018 2018 2018 2018 2018 2018 2018 2018 2018 
2018 2018 2018 2018 2018 2018 2018 2018 2018 
2018 2018 2018 2018 2018 2018 2018 2018 2018 
2018 2018 2018 2018 2018 2018 2018 2018 2018 
2018 2018 2018 2018 2018 2018 2018 2018 2018 
2018 2018 2018 2018 2018 2018 2018 2018 2018 
2018 2018 2018 2018 2018 2018 2018 2018 2018 
2018 2018 2018 2018 2018 2018 2018 2018 2018 
2018 2018 2018 2018 2018 2018 2018 2018 2018 
2018 2018 2018 2018 2018 2018 2018 2018 2018 
2018 2018 2018 2018 2018 2018 2018 2018 2018 
2018 2018 2018 2018 2018 2018 2018 2018 2018 
2018 2018 2018 2018 2018 2018 2018 2018 2018 
2018 2018 2018 2018 2018 2018 2018 2018 2018 
2018 2018 2018 2018 2018 2018 2018 2018 2018 
2018 2018 2018 2018 2018 2018 2018 2018 2018 
2018 2018 2018 2018 2018 2018 2018 2018 2018 
2018 2018 2018 2018 2018 2018 2018 2018 2018 
2018 2018 2018 2018 2018 2018 2018 2018 2018 
2018 2018 2018 2018 2018 2018 2018 2018 2018 
2018 2018 2018 2018 2018 2018 2018 2018 2018 
2018 2018 2018 2018 2018 2018 2018 2018 2018 
2018 2018 2018 2018 2018 2018 2018 2018 2018 
2018 2018 2018 2018 2018 2018 2018 2018 2018 
2018 2018 2018 2018 2018 2018 2018 2018 2018 
2018 2018 2018 2018 2018 2018 2018 2018 2018 
2018 2018 2018 2018 2018 2018 2018 2018 2018 
2018 2018 2018 2018 2018 2018 2018 2018 2018 
2018 2018 2018 2018 2018 2018 2018 2018 2018 
2018 2018 2018 2018 2018 2018 2018 2018 2018 
2018 2018 2018 2018 2018 2018 2018 2018 2018 
2018 2018 2018 2018 2018 2018 2018 2018 2018 
2018 2018 2018 2018 2018 2018 2018 2018 2018 
2018 2018 2018 2018 2018 2018 2018 2018 2018 
2018 2018 2018 2018 2018 2018 2018 2018 2018 
2018 2018 2018 2018 2018 2018 2018 2018 2018 
2018 2018 2018 2018 2018 2018 2018 2018 2018 
2018 2018 2018 2018 2018 2018 2018 2018 2018 
2018 2018 2018 2018 2018 2018 2018 2018 2018 
2018 2018 2018 2018 2018 2018 2018 2018 2018 
2018 2018 2018 2018 2018 2018 2018 2018 2018 
2018 2018 2018 2018 2018 2018 2018 2018 2018 
2018 2018 2018 2018 2018 2018 2018 2018 2018 
2018 2018 2018 2018 2018 2018 2018 2018 2018 
2018 2018 2018 2018 2018 2018 2018 2018 2018 
2018 2018 2018 2018 2018 2018 2018 2018 2018 
2018 2018 2018 2018 2018 2018 2018 2018 2018 
2018 2018 2018 2018 2018 2018 2018 2018 2018 
2018 2018 2018 2018 2018 2018 2018 2018 2018 
2018 2018 2018 2018 2018 2018 2018 2018 2018 
2018 2018 2018 2018 2018 2018 2018 2018 2018 
2018 2018 2018 2018 2018 2018 2018 2018 2018 
2018 2018 2018 2018 2018 2018 2018 2018 2018 
2018 2018 2018 2018 2018 2018 2018 2018 2018 
2018 2018 2018 2018 2018 2018 2018 2018 2018 
2018 2018 2018 2018 2018 2018 2018 2018 2018 
2018 2018 2018 2018 2018 2018 2018 2018 2018 
2018 2018 2018 2018 2018 2018 2018 2018 2018 
2018 2018 2018 2018 2018 2018 2018 2018 2018 
2018 2018 2018 2018 2018 2018 2018 2018 2018 
2018 2018 2018 2018 2018 2018 2018 2018 2018 
2018 2018 2018 2018 2018 2018 2018 2018 2018 
2018 2018 2018 2018 2018 2018 2018 2018 2018 
2018 2018 2018 2018 2018 2018 2018 2018 2018 
2018 2018 2018 2018 2018 2018 2018 2018 2018 
2018 2018 2018 2018 2018 2018 2018 2018 2018 
2018 2018 2018 2018 2018 2018 2018 2018 2018 
2018 2018 2018 2018 2018 2018 2018 2018 2018 
2018 2018 2018 2018 2018 2018 2018 2018 2018 
2018 2018 2018 2018 2018 2018 2018 2018 2018 
2018 2018 2018 2018 2018 2018 2018 2018 2018 
2018 2018 2018 2018 2018 2018 2018 2018 2018 
2018 2018 2018 2018 2018 2018 2018 2018 2018 
2018 2018 2018 2018 2018 2018 2018 2018 2018 
2018 2018 2018 2018 2018 2018 2018 2018 2018 
2018 2018 2018 2018 2018 2018 2018 2018 2018 
2018 2018 2018 2018 2018 2018 2018 2018 2018 
2018 2018 2018 2018 2018 2018 2018 2018 2018 
2018 2018 2018 2018 2018 2018 2018 2018 2018 
2018 2018 2018 2018 2018 2018 2018 2018 2018 
2018 2018 2018 2018 2018 2018 2018 2018 2018 
2018 2018 2018 2018 2018 2018 2018 2018 2018 
2018 2018 2018 2018 2018 2018 2018 2018 2018 
2018 2018 2018 2018 2018 2018 2018 2018 2018 
2018 2018 2018 2018 2018 2018 2018 2018 2018 
2018 2018 2018 2018 2018 2018 2018 2018 2018 
2018 2018 2018 2018 2018 2018 2018 2018 2018 
2018 2018 2018 2018 2018 2018 2018 2018 2018 
2018 2018 2018 2018 2018 2018 2018 2018 2018 
2018 2018 2018 2018 2018 2018 2018 2018 2018 
2018 2018 2018 2018 2018 2018 2018 2018 2018 
2018 2018 2018 2018 2018 2018 2018 2018 2018 
2018 2018 2018 2018 2018 2018 2018 2018 2018 
2018 2018 2018 2018 2018 2018 2018 2018 2018 
2018 2018 2018 2018 2018 2018 2018 2018 2018 
2018 2018 2018 2018 2018 2018 2018 2018 2018 
2018 2018 2018 2018 2018 2018 2018 2018 2018 
2018 2018 2018 2018 2018 2018 2018 2018 2018 
2018 2018 2018 2018 2018 2018 2018 2018 2018 
2018 2018 2018 2018 2018 2018 2018 2018 2018 
2018 2018 2018 2018 2018 2018 2018 2018 2018 
2018 2018 2018 2018 2018 2018 2018 2018 2018 
2018 2018 2018 2018 2018 2018 2018 2018 2018 
2018 2018 2018 2018 2018 2018 2018 2018 2018 
2018 2018 2018 2018 2018 2018 2018 2018 2018 
2018 2018 2018 2018 2018 2018 2018 2018 2018 
2018 2018 2018 2018 2018 2018 2018 2018 2018 
2018 2018 2018 2018 2018 2018 2018 2018 2018 
2018 2018 2018 2018 2018 2018 2018 2018 2018 
2018 2018 2018 2018 2018 2018 2018 2018 2018 
2018 2018 2018 2018 2018 2018 2018 2018 2018 
2018 2018 2018 2018 2018 2018 2018 2018 2018 
2018 2018 2018 2018 2018 2018 2018 2018 2018 
2018 2018 2018 2018 2018 2018 2018 2018 2018 
2018 2018 2018 2018 2018 2018 2018 2018 2018 
2018 2018 2018 2018 2018 2018 2018 2018 2018 
2018 2018 2018 2018 2018 2018 2018 2018 2018 
2018 2018 2018 2018 2018 2018 2018 2018 2018 
2018 2018 2018 2018 2018 2018 2018 2018 2018 
2018 2018 2018 2018 2018 2018 2018 2018 2018 
2018 2018 2018 2018 2018 2018 2018 2018 2018 
2018 2018 2018 2018 2018 2018 2018 2018 2018 
2018 2018 2018 2018 2018 2018 2018 2018 2018 
2018 2018 2018 2018 2018 2018 2018 2018 2018 
2018 2018 2018 2018 2018 2018 2018 2018 2018 
2018 2018 2018 2018 2018 2018 2018 2018 2018 
2018 2018 2018 2018 2018 2018 2018 2018 2018 
2018 2018 2018 2018 2018 2018 2018 2018 2018 
2018 2018 2018 2018 2018 2018 2018 2018 2018 
2018 2018 2018 2018 2018 2018 2018 2018 2018 
2018 2018 2018 2018 2018 2018 2018 2018 2018 
2018 2018 2018 2018 2018 2018 2018 2018 2018 
2018 2018 2018 2018 2018 2018 2018 2018 2018 
2018 2018 2018 2018 2018 2018 2018 2018 2018 
2018 2018 2018 2018 2018 2018 2018 2018 2018 
2018 2018 2018 2018 2018 2018 2018 2018 2018 
2018 2018 2018 2018 2018 2018 2018 2018 2018 