# vtk DataFile Version 4.2
vtk output
ASCII
DATASET POLYDATA
POINTS 14432 float
46.6279 25.2173 0.731734 46.6761 25.6137 0.497674 46.3035 25.3502 0.452224 
46.8822 25.4625 0.496293 44.8421 24.2606 0.881439 44.717 24.8989 0.531199 
44.1286 24.4654 0.53445 45.9862 24.5466 0.920843 45.4794 25.0951 0.405931 
46.9501 24.2757 0.922186 47.2269 24.8602 0.409067 43.9639 23.5311 0.812066 
43.4499 23.8898 0.469458 43.2988 23.4291 0.533927 44.8324 23.2697 1.05706 
45.6936 23.4303 1.08692 46.7397 23.406 1.07595 47.6136 24.0289 0.633301 
47.61 23.3312 0.871796 48.0758 23.6062 0.284669 43.5309 22.9217 0.427215 
44.1484 22.401 0.512419 44.4715 22.676 0.837675 45.4378 22.5365 0.930524 
46.4721 22.5192 0.933739 47.4037 22.5252 0.845193 47.9716 22.7517 0.440374 
44.7424 21.9985 0.368045 45.9897 21.8939 0.527722 46.9572 22.0116 0.470226 
47.6025 22.2299 0.382838 44.7533 25.2677 -0.000892101 44.7872 25.8157 -0.685311 
44.0922 25.2896 -0.399683 45.7237 25.4417 -0.178499 45.6575 25.7663 -0.68824 
46.8863 25.3796 0.150131 46.3109 25.5901 -0.695674 42.8485 24.48 -0.247594 
42.6745 24.9307 -0.683049 42.3397 24.3579 -0.635919 43.5947 24.5678 0.0269455 
43.3421 25.0368 -0.504711 46.4807 25.3312 -0.225915 47.6502 25.0836 -0.622263 
47.845 24.3455 0.100312 48.3091 24.2956 -0.530967 42.8651 23.6911 0.0122361 
42.2792 23.379 -0.848779 48.338 23.2604 -0.586005 42.8723 22.8714 -0.311832 
43.6514 22.3853 0.00333277 43.1139 22.4207 -0.502081 47.8299 22.562 -0.07114 
47.4205 22.1193 -0.195957 47.8385 22.6589 -0.656492 43.6463 21.9209 -0.513428 
44.5923 21.4944 -0.165966 44.1543 21.4272 -0.516429 45.4538 21.4108 0.00473795 
46.5753 21.5065 -0.0380436 47.4133 21.4926 -0.349596 47.675 21.9164 -0.510553 
48.0063 21.5138 -0.867321 44.7109 21.0147 -0.635746 45.9679 20.8891 -0.474988 
46.9972 20.914 -0.470588 47.6056 21.0328 -0.521292 41.0117 30.424 -1.15292 
40.8961 30.9377 -1.71037 40.1934 30.445 -1.60316 41.8948 30.296 -1.15387 
41.4634 30.8602 -1.51362 42.1725 30.5786 -1.8332 40.7548 29.5011 -1.0758 
40.127 29.2048 -1.4624 41.6778 29.4956 -0.903934 42.5999 30.0361 -1.49963 
42.5826 29.4273 -1.14961 43.0095 29.4681 -1.70566 40.646 28.6877 -1.22523 
40.3316 28.3555 -1.56767 41.5347 28.4959 -1.07148 42.764 28.428 -1.06186 
43.26 28.7 -1.72939 41.0066 28.0066 -1.50401 41.7887 27.7825 -1.45465 
42.3338 27.2806 -1.62727 42.6717 27.568 -1.18348 43.8248 28.0427 -1.57178 
43.8584 27.4536 -1.06886 44.7731 27.2504 -1.18869 44.532 27.7296 -1.44635 
45.0052 27.4635 -1.71567 42.8923 26.868 -1.48439 43.019 26.2812 -1.48972 
43.4842 26.532 -1.11855 44.5866 26.4875 -1.03247 45.2621 26.7181 -1.72685 
43.0515 25.6096 -1.08755 42.601 25.8618 -1.6306 42.2705 25.1117 -1.33886 
43.9057 25.729 -0.799445 45.6721 26.1051 -1.47496 47.0887 25.5261 -0.997559 
46.7185 25.8684 -1.52258 47.708 25.5221 -1.22726 47.5853 25.7697 -1.60714 
48.0906 25.5273 -1.6908 41.9873 24.1704 -1.35548 48.8225 24.1036 -1.15019 
48.5387 24.8396 -1.56592 48.9825 24.2323 -1.67089 41.9579 23.2352 -1.70819 
45.8346 23.424 -1.24393 45.4119 23.2947 -1.693 45.5723 23.6532 -1.68712 
46.277 23.8558 -1.59548 46.4116 23.3296 -1.24567 46.9345 23.5508 -1.54706 
48.8298 23.5415 -1.15947 48.9914 23.7088 -1.50695 42.6908 22.5108 -0.894892 
42.2928 22.561 -1.58986 45.9522 23.0617 -1.57081 46.8609 23.0855 -1.73888 
47.7925 22.2611 -0.77704 48.2421 22.6386 -1.54171 48.7093 23.23 -1.39126 
42.875 21.9363 -1.38057 43.6583 21.4217 -1.01325 43.182 21.4109 -1.83896 
48.4743 21.6684 -1.53341 43.8907 20.9263 -1.38816 44.5802 20.5192 -1.17171 
44.2164 20.4408 -1.82919 45.5649 20.2987 -0.998106 46.7383 20.267 -0.831818 
47.7776 20.5569 -0.868681 48.7109 21.0216 -1.55382 48.4793 20.1859 -1.2707 
49.1441 20.5263 -1.67772 44.887 20.1592 -1.50217 45.6081 19.788 -1.53825 
46.1729 19.4053 -1.51314 46.4736 19.6511 -1.19819 47.5408 19.6363 -1.15863 
48.3323 19.5741 -1.40554 48.9256 20.0018 -1.57731 46.7227 19.0149 -1.63131 
47.7944 19.0665 -1.53092 38.9894 31.4164 -2.15907 38.6332 31.904 -2.80428 
38.2246 31.2021 -2.46606 39.8076 31.2962 -2.10626 39.6377 31.849 -2.61429 
40.3785 31.3074 -2.85211 38.7814 30.5004 -2.08387 38.1635 30.2129 -2.48038 
39.4042 30.7249 -1.86557 40.701 30.9769 -2.32494 41.5587 30.8971 -2.20099 
42.271 30.3831 -2.54883 38.7954 29.5276 -2.17685 38.2729 29.5312 -2.49605 
39.4902 29.771 -1.81773 42.7792 29.9338 -2.20204 43.1306 29.223 -2.29512 
38.5545 28.9356 -2.5967 39.1083 28.0971 -2.65244 39.6127 28.5707 -1.97667 
43.4171 28.7154 -2.68198 39.8184 27.4763 -2.20302 39.3651 27.2345 -2.75906 
40.651 27.4954 -1.91149 41.6596 27.2956 -1.84085 43.8043 28.2373 -2.28811 
44.5208 27.8271 -2.39639 45.0864 27.1372 -2.60581 39.8367 26.8466 -2.41171 
40.1478 26.4302 -2.47833 40.6388 26.5706 -2.20438 41.5458 26.6283 -2.04973 
42.413 26.5548 -1.84948 45.4214 26.4604 -2.71303 40.5659 25.9491 -2.62828 
41.1325 25.1049 -2.66977 41.717 25.7606 -2.0621 45.7797 26.1649 -2.3986 
46.6504 25.886 -2.57766 47.6684 25.8223 -2.28868 48.1206 25.3667 -2.37197 
41.7005 24.72 -1.97244 41.3352 24.2791 -2.51143 47.0768 24.3008 -2.10533 
46.306 24.5326 -2.45399 46.8347 24.8877 -2.60389 47.4658 25.0832 -2.63747 
48.1133 24.4903 -2.15598 48.741 24.3873 -1.92185 41.6446 23.7936 -2.04067 
41.3523 23.5444 -2.82183 45.3517 23.7013 -2.61582 45.7217 24.0379 -2.24966 
47.6776 23.4482 -1.92819 48.6288 23.6598 -1.84621 41.7008 23.0952 -2.42417 
42.1231 22.5323 -2.61613 45.5686 23.1135 -2.23978 46.3827 23.0089 -2.35553 
47.6617 23.0125 -2.48268 48.7354 22.1251 -2.11477 48.5631 22.6853 -2.47408 
48.9784 22.45 -2.81547 42.6192 21.9372 -2.29363 43.1257 21.4373 -2.81094 
48.7539 21.5587 -1.90296 49.2271 21.7311 -2.59747 43.6187 20.9155 -2.28606 
44.1294 20.4348 -2.78603 49.6317 20.1244 -2.00038 49.5367 20.9521 -2.2458 
50.2362 20.4756 -2.5034 44.8287 19.9333 -2.24521 45.694 19.404 -1.98601 
45.2313 19.4077 -2.80968 48.7776 19.2162 -1.80463 49.7073 19.405 -1.99628 
50.3711 19.4529 -2.26827 50.7052 19.9984 -2.52528 50.9897 19.6033 -2.58166 
45.9279 18.9077 -2.36493 46.5951 18.4816 -2.14555 46.2023 18.407 -2.82078 
47.5634 18.5016 -1.96813 48.5097 18.3995 -2.13203 49.525 18.648 -2.16942 
50.2859 18.5783 -2.41502 50.8706 18.9865 -2.5488 41.7676 17.1566 -2.17224 
41.8128 17.7693 -2.7355 41.0856 17.5414 -2.57111 42.2581 17.5894 -2.6335 
46.9725 18.1155 -2.64111 47.9486 18.0314 -2.61052 48.9586 18.039 -2.63317 
49.9142 18.1107 -2.74213 40.9675 16.4894 -2.11334 40.4714 16.8946 -2.5048 
40.2181 16.1158 -2.44928 41.7914 16.3082 -1.93097 42.5801 17.1997 -2.36674 
42.7507 16.4787 -2.02755 43.8989 16.2164 -2.14177 43.6128 17.0215 -2.66192 
44.2956 16.5658 -2.6118 40.6082 15.6719 -2.20697 40.2054 15.5329 -2.4756 
41.3683 15.6244 -2.11146 42.5337 15.488 -2.06645 43.6848 15.4536 -1.90975 
44.7801 16.0843 -2.63547 44.7792 15.3329 -2.0841 45.2914 15.5607 -2.59369 
40.6853 15.0915 -2.65966 41.9142 14.9722 -2.52886 42.7852 14.8065 -2.4728 
43.2873 14.3107 -2.61502 43.6484 14.57 -2.14279 44.6775 14.4317 -1.90744 
45.7717 15.0882 -2.63172 45.5684 14.3659 -2.11758 46.2295 14.4521 -2.60708 
43.8588 13.8759 -2.46087 44.2273 13.2542 -2.73926 44.535 13.6877 -2.17659 
45.3787 13.5592 -2.13815 46.1588 13.5062 -2.56986 41.5879 12.7811 -2.53787 
41.328 12.1795 -2.39002 41.9999 12.2608 -2.14787 42.7378 12.2047 -2.20071 
42.398 12.8909 -2.49989 43.1118 12.5592 -2.58078 45.0376 13.1161 -2.63339 
45.6225 13.1222 -2.54082 41.6619 11.6455 -2.16171 41.3156 11.6373 -2.65424 
42.3694 11.5419 -2.14028 43.1438 11.7253 -2.48084 41.8687 11.1864 -2.38679 
42.5751 10.9584 -2.67717 37.7967 31.5428 -2.96176 37.7052 31.8899 -3.67348 
37.2102 31.1978 -3.45223 38.8908 32.0611 -3.63914 39.5678 32.0573 -3.30589 
40.7681 31.5086 -3.24011 40.4286 31.7873 -3.38582 40.8718 31.5299 -3.52144 
37.631 30.7397 -2.95103 37.095 30.2067 -3.49917 40.7799 30.3742 -2.95691 
40.3306 30.4938 -3.54036 40.6369 31.2645 -3.55002 41.6224 30.3585 -2.81922 
37.746 29.6556 -2.99022 37.131 29.4091 -3.65673 40.585 29.6194 -3.26136 
40.3379 29.6348 -3.7622 41.3712 29.5342 -3.16774 42.6105 29.4434 -3.02823 
37.7668 28.9137 -3.49544 38.5177 28.5019 -3.07478 38.2452 28.4328 -3.82915 
40.834 29.1768 -3.45533 41.7868 29.1127 -3.64862 42.7034 29.0356 -3.65883 
43.395 28.7739 -3.53724 43.9722 28.2656 -3.05653 43.9366 28.2199 -3.67189 
38.7535 28.1162 -3.38411 39.0238 27.5695 -3.47845 44.3807 27.5827 -3.44576 
44.7859 27.4789 -3.03567 39.7392 26.5027 -2.83966 39.3061 26.6753 -3.66599 
44.8149 27.0319 -3.39551 45.1068 26.4743 -3.48683 39.9158 25.9418 -3.34908 
40.5307 25.4959 -3.09504 40.1945 25.2634 -3.81663 45.8466 25.9629 -3.54876 
46.5946 25.3083 -3.03742 46.131 25.3926 -3.69482 47.5174 25.6066 -2.81217 
40.7133 24.9819 -3.3298 41.0037 24.1972 -3.44064 45.7243 24.5822 -3.09617 
45.3652 24.3166 -3.44668 45.751 24.8737 -3.69833 46.6484 24.7928 -3.6141 
46.1787 24.6366 -3.66296 46.6554 24.1077 -3.3513 47.092 24.6327 -3.63976 
41.2934 23.3972 -3.68341 45.6462 24.0833 -3.39937 45.8985 23.4468 -2.90881 
46.8274 23.3585 -2.92707 47.5347 24.0758 -3.53207 47.6487 23.5068 -3.21847 
48.1497 23.6607 -3.62279 41.765 22.9028 -3.4273 42.3151 22.4885 -3.64766 
48.56 23.0183 -3.24067 49.2391 22.2452 -3.72844 42.8007 22.0579 -3.53669 
43.3204 21.5251 -3.64927 49.7979 21.7949 -3.55608 50.0775 21.3239 -2.97696 
50.9197 21.2137 -3.23921 50.4533 21.7597 -3.63803 51.1295 21.5979 -3.62801 
43.6476 21.0016 -3.25946 44.1692 20.6202 -3.84998 50.8737 20.4211 -2.83762 
51.6624 21.1296 -3.45516 51.7124 20.5615 -3.1534 52.4621 20.2103 -3.29975 
52.6168 20.9652 -3.72247 53.1153 20.5234 -3.70959 44.6492 19.9163 -3.30098 
45.1332 19.2282 -3.81387 51.6885 19.3436 -2.9778 52.4925 19.5999 -3.38748 
52.9169 20.0384 -3.59213 40.0008 18.3588 -3.18867 39.7402 18.8808 -3.67232 
39.2282 18.15 -3.46634 40.809 18.2686 -3.10889 40.6374 18.8151 -3.62926 
41.2951 18.5733 -3.6627 45.6319 18.823 -3.19978 45.9546 18.3378 -3.58703 
50.7927 18.4538 -2.83497 51.5285 18.3924 -3.14954 52.5567 18.996 -3.38087 
52.3552 18.4734 -3.28522 52.9617 18.5598 -3.58088 39.6632 17.6555 -3.12559 
39.1326 17.2022 -3.48361 40.3137 17.6032 -2.83171 41.7118 18.1388 -3.39403 
[...]
CELL_DATA 28892
SCALARS scalars float
LOOKUP_TABLE default
1031 1031 1031 1031 1031 1031 1031 1031 1031 
1031 1031 1031 1031 1031 1031 1031 1031 1031 
1031 1031 1031 1031 1031 1031 1031 1031 1031 
1031 1031 1031 1031 1031 1031 1031 1031 1031 
1031 1031 1031 1031 1031 1031 1031 1031 1031 
1031 1031 1031 1031 1031 1031 1031 1031 1031 
1031 1031 1031 1031 1031 1031 1031 1031 1031 
1031 1031 1031 1031 1031 1031 1031 1031 1031 
1031 1031 1031 1031 1031 1031 1031 1031 1031 
1031 1031 1031 1031 1031 1031 1031 1031 1031 
1031 1031 1031 1031 1031 1031 1031 1031 1031 
1031 1031 1031 1031 1031 1031 1031 1031 1031 
1031 1031 1031 1031 1031 1031 1031 1031 1031 
1031 1031 1031 1031 1031 1031 1031 1031 1031 
1031 1031 1031 1031 1031 1031 1031 1031 1031 
1031 1031 1031 1031 1031 1031 1031 1031 1031 
1031 1031 1031 1031 1031 1031 1031 1031 1031 
1031 1031 1031 1031 1031 1031 1031 1031 1031 
1031 1031 1031 1031 1031 1031 1031 1031 1031 
1031 1031 1031 1031 1031 1031 1031 1031 1031 
1031 1031 1031 1031 1031 1031 1031 1031 1031 
1031 1031 1031 1031 1031 1031 1031 1031 1031 
1031 1031 1031 1031 1031 1031 1031 1031 1031 
1031 1031 1031 1031 1031 1031 1031 1031 1031 
1031 1031 1031 1031 1031 1031 1031 1031 1031 
1031 1031 1031 1031 1031 1031 1031 1031 1031 
1031 1031 1031 1031 1031 1031 1031 1031 1031 
1031 1031 1031 1031 1031 1031 1031 1031 1031 
1031 1031 1031 1031 1031 1031 1031 1031 1031 
1031 1031 1031 1031 1031 1031 1031 1031 1031 
1031 1031 1031 1031 1031 1031 1031 1031 1031 
1031 1031 1031 1031 1031 1031 1031 1031 1031 
1031 1031 1031 1031 1031 1031 1031 1031 1031 
1031 1031 1031 1031 1031 1031 1031 1031 1031 
1031 1031 1031 1031 1031 1031 1031 1031 1031 
1031 1031 1031 1031 1031 1031 1031 1031 1031 
1031 1031 1031 1031 1031 1031 1031 1031 1031 
1031 1031 1031 1031 1031 1031 1031 1031 1031 
1031 1031 1031 1031 1031 1031 1031 1031 1031 
1031 1031 1031 1031 1031 1031 1031 1031 1031 
1031 1031 1031 1031 1031 1031 1031 1031 1031 
1031 1031 1031 1031 1031 1031 1031 1031 1031 
1031 1031 1031 1031 1031 1031 1031 1031 1031 
1031 1031 1031 1031 1031 1031 1031 1031 1031 
1031 1031 1031 1031 1031 1031 1031 1031 1031 
1031 1031 1031 1031 1031 1031 1031 1031 1031 
1031 1031 1031 1031 1031 1031 1031 1031 1031 
1031 1031 1031 1031 1031 1031 1031 1031 1031 
1031 1031 1031 1031 1031 1031 1031 1031 1031 
1031 1031 1031 1031 1031 1031 1031 1031 1031 
1031 1031 1031 1031 1031 1031 1031 1031 1031 
1031 1031 1031 1031 1031 1031 1031 1031 1031 
1031 1031 1031 1031 1031 1031 1031 1031 1031 
1031 1031 1031 1031 1031 1031 1031 1031 1031 
1031 1031 1031 1031 1031 1031 1031 1031 1031 
1031 1031 1031 1031 1031 1031 1031 1031 1031 
1031 1031 1031 1031 1031 1031 1031 1031 1031 
1031 1031 1031 1031 1031 1031 1031 1031 1031 
1031 1031 1031 1031 1031 1031 1031 1031 1031 
1031 1031 1031 1031 1031 1031 1031 1031 1031 
1031 1031 1031 1031 1031 1031 1031 1031 1031 
1031 1031 1031 1031 1031 1031 1031 1031 1031 
1031 1031 1031 1031 1031 1031 1031 1031 1031 
1031 1031 1031 1031 1031 1031 1031 1031 1031 
1031 1031 1031 1031 1031 1031 1031 1031 1031 
1031 1031 1031 1031 1031 1031 1031 1031 1031 
1031 1031 1031 1031 1031 1031 1031 1031 1031 
1031 1031 1031 1031 1031 1031 1031 1031 1031 
1031 1031 1031 1031 1031 1031 1031 1031 1031 
1031 1031 1031 1031 1031 1031 1031 1031 1031 
1031 1031 1031 1031 1031 1031 1031 1031 1031 
1031 1031 1031 1031 1031 1031 1031 1031 1031 
1031 1031 1031 1031 1031 1031 1031 1031 1031 
1031 1031 1031 1031 1031 1031 1031 1031 1031 
1031 1031 1031 1031 1031 1031 1031 1031 1031 
1031 1031 1031 1031 1031 1031 1031 1031 1031 
1031 1031 1031 1031 1031 1031 1031 1031 1031 
1031 1031 1031 1031 1031 1031 1031 1031 1031 
1031 1031 1031 1031 1031 1031 1031 1031 1031 
1031 1031 1031 1031 1031 1031 1031 1031 1031 
1031 1031 1031 1031 1031 1031 1031 1031 1031 
1031 1031 1031 1031 1031 1031 1031 1031 1031 
1031 1031 1031 1031 1031 1031 1031 1031 1031 
1031 1031 1031 1031 1031 1031 1031 1031 1031 
1031 1031 1031 1031 1031 1031 1031 1031 1031 
1031 1031 1031 1031 1031 1031 1031 1031 1031 
1031 1031 1031 1031 1031 1031 1031 1031 1031 
1031 1031 1031 1031 1031 1031 1031 1031 1031 
1031 1031 1031 1031 1031 1031 1031 1031 1031 
1031 1031 1031 1031 1031 1031 1031 1031 1031 
1031 1031 1031 1031 1031 1031 1031 1031 1031 
1031 1031 1031 1031 1031 1031 1031 1031 1031 
1031 1031 1031 1031 1031 1031 1031 1031 1031 
1031 1031 1031 1031 1031 1031 1031 1031 1031 
1031 1031 1031 1031 1031 1031 1031 1031 1031 
1031 1031 1031 1031 1031 1031 1031 1031 1031 
1031 1031 1031 1031 1031 1031 1031 1031 1031 
1031 1031 1031 1031 1031 1031 1031 1031 1031 
1031 1031 1031 1031 1031 1031 1031 1031 1031 
1031 1031 1031 1031 1031 1031 1031 1031 1031 
1031 1031 1031 1031 1031 1031 1031 1031 1031 
1031 1031 1031 1031 1031 1031 1031 1031 1031 
1031 1031 1031 1031 1031 1031 1031 1031 1031 
1031 1031 1031 1031 1031 1031 1031 1031 1031 
1031 1031 1031 1031 1031 1031 1031 1031 1031 
1031 1031 1031 1031 1031 1031 1031 1031 1031 
1031 1031 1031 1031 1031 1031 1031 1031 1031 
1031 1031 1031 1031 1031 1031 1031 1031 1031 
1031 1031 1031 1031 1031 1031 1031 1031 1031 
1031 1031 1031 1031 1031 1031 1031 1031 1031 
1031 1031 1031 1031 1031 1031 1031 1031 1031 
1031 1031 1031 1031 1031 1031 1031 1031 1031 
1031 1031 1031 1031 1031 1031 1031 1031 1031 
1031 1031 1031 1031 1031 1031 1031 1031 1031 
1031 1031 1031 1031 1031 1031 1031 1031 1031 
1031 1031 1031 1031 1031 1031 1031 1031 1031 
1031 1031 1031 1031 1031 1031 1031 1031 1031 
1031 1031 1031 1031 1031 1031 1031 1031 1031 
1031 1031 1031 1031 1031 1031 1031 1031 1031 
1031 1031 1031 1031 1031 1031 1031 1031 1031 
1031 1031 1031 1031 1031 1031 1031 1031 1031 
1031 1031 1031 1031 1031 1031 1031 1031 1031 
1031 1031 1031 1031 1031 1031 1031 1031 1031 
1031 1031 1031 1031 1031 1031 1031 1031 1031 
1031 1031 1031 1031 1031 1031 1031 1031 1031 
1031 1031 1031 1031 1031 1031 1031 1031 1031 
1031 1031 1031 1031 1031 1031 1031 1031 1031 
1031 1031 1031 1031 1031 1031 1031 1031 1031 
1031 1031 1031 1031 1031 1031 1031 1031 1031 
1031 1031 1031 1031 1031 1031 1031 1031 1031 
1031 1031 1031 1031 1031 1031 1031 1031 1031 
1031 1031 1031 1031 1031 1031 1031 1031 1031 
1031 1031 1031 1031 1031 1031 1031 1031 1031 
1031 1031 1031 1031 1031 1031 1031 1031 1031 
1031 1031 1031 1031 1031 1031 1031 1031 1031 
1031 1031 1031 1031 1031 1031 1031 1031 1031 
1031 1031 1031 1031 1031 1031 1031 1031 1031 
1031 1031 1031 1031 1031 1031 1031 1031 1031 
1031 1031 1031 1031 1031 1031 1031 1031 1031 
1031 1031 1031 1031 1031 1031 1031 1031 1031 
1031 1031 1031 1031 1031 1031 1031 1031 1031 
1031 1031 1031 1031 1031 1031 1031 1031 1031 
1031 1031 1031 1031 1031 1031 1031 1031 1031 
1031 1031 1031 1031 1031 1031 1031 1031 1031 
1031 1031 1031 1031 1031 1031 1031 1031 1031 
1031 1031 1031 1031 1031 1031 1031 1031 1031 
1031 1031 1031 1031 1031 1031 1031 1031 1031 
1031 1031 1031 1031 1031 1031 1031 1031 1031 
1031 1031 1031 1031 1031 1031 1031 1031 1031 
1031 1031 1031 1031 1031 1031 1031 1031 1031 
1031 1031 1031 1031 1031 1031 1031 1031 1031 
1031 1031 1031 1031 1031 1031 1031 1031 1031 
1031 1031 1031 1031 1031 1031 1031 1031 1031 
1031 1031 1031 1031 1031 1031 1031 1031 1031 
1031 1031 1031 1031 1031 1031 1031 1031 1031 
1031 1031 1031 1031 1031 1031 1031 1031 1031 
1031 1031 1031 1031 1031 1031 1031 1031 1031 
1031 1031 1031 1031 1031 1031 1031 1031 1031 
1031 1031 1031 1031 1031 1031 1031 1031 1031 
1031 1031 1031 1031 1031 1031 1031 1031 1031 
1031 1031 1031 1031 1031 1031 1031 1031 1031 
1031 1031 1031 1031 1031 1031 1031 1031 1031 
1031 1031 1031 1031 1031 1031 1031 1031 1031 
1031 1031 1031 1031 1031 1031 1031 1031 1031 
1031 1031 1031 1031 1031 1031 1031 1031 1031 
1031 1031 1031 1031 1031 1031 1031 1031 1031 
1031 1031 1031 1031 1031 1031 1031 1031 1031 
1031 1031 1031 1031 1031 1031 1031 1031 1031 
1031 1031 1031 1031 1031 1031 1031 1031 1031 
1031 1031 1031 1031 1031 1031 1031 1031 1031 
1031 1031 1031 1031 1031 1031 1031 1031 1031 
1031 1031 1031 1031 1031 1031 1031 1031 1031 
1031 1031 1031 1031 1031 1031 1031 1031 1031 
1031 1031 1031 1031 1031 1031 1031 1031 1031 
1031 1031 1031 1031 1031 1031 1031 1031 1031 
1031 1031 1031 1031 1031 1031 1031 1031 1031 
1031 1031 1031 1031 1031 1031 1031 1031 1031 
1031 1031 1031 1031 1031 1031 1031 1031 1031 
1031 1031 1031 1031 1031 1031 1031 1031 1031 
1031 1031 1031 1031 1031 1031 1031 1031 1031 
1031 1031 1031 1031 1031 1031 1031 1031 1031 
1031 1031 1031 1031 1031 1031 1031 1031 1031 
1031 1031 1031 1031 1031 1031 1031 1031 1031 
1031 1031 1031 1031 1031 1031 1031 1031 1031 
1031 1031 1031 1031 1031 1031 1031 1031 1031 
1031 1031 1031 1031 1031 1031 1031 1031 1031 
1031 1031 1031 1031 1031 1031 1031 1031 1031 
1031 1031 1031 1031 1031 1031 1031 1031 1031 
1031 1031 1031 1031 1031 1031 1031 1031 1031 
1031 1031 1031 1031 1031 1031 1031 1031 1031 
1031 1031 1031 1031 1031 1031 1031 1031 1031 
1031 1031 1031 1031 1031 1031 1031 1031 1031 
1031 1031 1031 1031 1031 1031 1031 1031 1031 
1031 1031 1031 1031 1031 1031 1031 1031 1031 
1031 1031 1031 1031 1031 1031 1031 1031 1031 
1031 1031 1031 1031 1031 1031 1031 1031 1031 
1031 1031 1031 1031 1031 1031 1031 1031 1031 
1031 1031 1031 1031 1031 1031 1031 1031 1031 
1031 1031 1031 1031 1031 1031 1031 1031 1031 
1031 1031 1031 1031 1031 1031 1031 1031 1031 
1031 1031 1031 1031 1031 1031 1031 1031 1031 
1031 1031 1031 1031 1031 1031 1031 1031 1031 
1031 1031 1031 1031 1031 1031 1031 1031 1031 
1031 1031 1031 1031 1031 1031 1031 1031 1031 
1031 1031 1031 1031 1031 1031 1031 1031 1031 
1031 1031 1031 1031 1031 1031 1031 1031 1031 
1031 1031 1031 1031 1031 1031 1031 1031 1031 
1031 1031 1031 1031 1031 1031 1031 1031 1031 
1031 1031 1031 1031 1031 1031 1031 1031 1031 
1031 1031 1031 1031 1031 1031 1031 1031 1031 
1031 1031 1031 1031 1031 1031 1031 1031 1031 
1031 1031 1031 1031 1031 1031 1031 1031 1031 
1031 1031 1031 1031 1031 1031 1031 1031 1031 
1031 1031 1031 1031 1031 1031 1031 1031 1031 
1031 1031 1031 1031 1031 1031 1031 1031 1031 
1031 1031 1031 1031 1031 1031 1031 1031 1031 
1031 1031 1031 1031 1031 1031 1031 1031 1031 
1031 1031 1031 1031 1031 1031 1031 1031 1031 
1031 1031 1031 1031 1031 1031 1031 1031 1031 
1031 1031 1031 1031 1031 1031 1031 1031 1031 
1031 1031 1031 1031 1031 1031 1031 1031 1031 
1031 1031 1031 1031 1031 1031 1031 1031 1031 
1031 1031 1031 1031 1031 1031 1031 1031 1031 
1031 1031 1031 1031 1031 1031 1031 1031 1031 
1031 1031 1031 1031 1031 1031 1031 1031 1031 
1031 1031 1031 1031 1031 1031 1031 1031 1031 
1031 1031 1031 1031 1031 1031 1031 1031 1031 
1031 1031 1031 1031 1031 1031 1031 1031 1031 
1031 1031 1031 1031 1031 1031 1031 1031 1031 
1031 1031 1031 1031 1031 1031 1031 1031 1031 
1031 1031 1031 1031 1031 1031 1031 1031 1031 
1031 1031 1031 1031 1031 1031 1031 1031 1031 
1031 1031 1031 1031 1031 1031 1031 1031 1031 
1031 1031 1031 1031 1031 1031 1031 1031 1031 
1031 1031 1031 1031 1031 1031 1031 1031 1031 
1031 1031 1031 1031 1031 1031 1031 1031 1031 
1031 1031 1031 1031 1031 1031 1031 1031 1031 
1031 1031 1031 1031 1031 1031 1031 1031 1031 
1031 1031 1031 1031 1031 1031 1031 1031 1031 
1031 1031 1031 1031 1031 1031 1031 1031 1031 
1031 1031 1031 1031 1031 1031 1031 1031 1031 
1031 1031 1031 1031 1031 1031 1031 1031 1031 
1031 1031 1031 1031 1031 1031 1031 1031 1031 
1031 1031 1031 1031 1031 1031 1031 1031 1031 
1031 1031 1031 1031 1031 1031 1031 1031 1031 
1031 1031 1031 1031 1031 1031 1031 1031 1031 
1031 1031 1031 1031 1031 1031 1031 1031 1031 
1031 1031 1031 1031 1031 1031 1031 1031 1031 
1031 1031 1031 1031 1031 1031 1031 1031 1031 
1031 1031 1031 1031 1031 1031 1031 1031 1031 
1031 1031 1031 1031 1031 1031 1031 1031 1031 
1031 1031 1031 1031 1031 1031 1031 1031 1031 
1031 1031 1031 1031 1031 1031 1031 1031 1031 
1031 1031 1031 1031 1031 1031 1031 1031 1031 
1031 1031 1031 1031 1031 1031 1031 1031 1031 
1031 1031 1031 1031 1031 1031 1031 1031 1031 
1031 1031 1031 1031 1031 1031 1031 1031 1031 
1031 1031 1031 1031 1031 1031 1031 1031 1031 
1031 1031 1031 1031 1031 1031 1031 1031 1031 
1031 1031 1031 1031 1031 1031 1031 1031 1031 
1031 1031 1031 1031 1031 1031 1031 1031 1031 
1031 1031 1031 1031 1031 1031 1031 1031 1031 
1031 1031 1031 1031 1031 1031 1031 1031 1031 
1031 1031 1031 1031 1031 1031 1031 1031 1031 
1031 1031 1031 1031 1031 1031 1031 1031 1031 
1031 1031 1031 1031 1031 1031 1031 1031 1031 
1031 1031 1031 1031 1031 1031 1031 1031 1031 
1031 1031 1031 1031 1031 1031 1031 1031 1031 
1031 1031 1031 1031 1031 1031 1031 1031 1031 
1031 1031 1031 1031 1031 1031 1031 1031 1031 
1031 1031 1031 1031 1031 1031 1031 1031 1031 
1031 1031 1031 1031 1031 1031 1031 1031 1031 
1031 1031 1031 1031 1031 1031 1031 1031 1031 
1031 1031 1031 1031 1031 1031 1031 1031 1031 
1031 1031 1031 1031 1031 1031 1031 1031 1031 
1031 1031 1031 1031 1031 1031 1031 1031 1031 
1031 1031 1031 1031 1031 1031 1031 1031 1031 
1031 1031 1031 1031 1031 1031 1031 1031 1031 
1031 1031 1031 1031 1031 1031 1031 1031 1031 
1031 1031 1031 1031 1031 1031 1031 1031 1031 
1031 1031 1031 1031 1031 1031 1031 1031 1031 
1031 1031 1031 1031 1031 1031 1031 1031 1031 
1031 1031 1031 1031 1031 1031 1031 1031 1031 
1031 1031 1031 1031 1031 1031 1031 1031 1031 
1031 1031 1031 1031 1031 1031 1031 1031 1031 
1031 1031 1031 1031 1031 1031 1031 1031 1031 
1031 1031 1031 1031 1031 1031 1031 1031 1031 
1031 1031 1031 1031 1031 1031 1031 1031 1031 
1031 1031 1031 1031 1031 1031 1031 1031 1031 
1031 1031 1031 1031 1031 1031 1031 1031 1031 
1031 1031 1031 1031 1031 1031 1031 1031 1031 
1031 1031 1031 1031 1031 1031 1031 1031 1031 
1031 1031 1031 1031 1031 1031 1031 1031 1031 
1031 1031 1031 1031 1031 1031 1031 1031 1031 
1031 1031 1031 1031 1031 1031 1031 1031 1031 
1031 1031 1031 1031 1031 1031 1031 1031 1031 
1031 1031 1031 1031 1031 1031 1031 1031 1031 
1031 1031 1031 1031 1031 1031 1031 1031 1031 
1031 1031 1031 1031 1031 1031 1031 1031 1031 
1031 1031 1031 1031 1031 1031 1031 1031 1031 
1031 1031 1031 1031 1031 1031 1031 1031 1031 
1031 1031 1031 1031 1031 1031 1031 1031 1031 
1031 1031 1031 1031 1031 1031 1031 1031 1031 
1031 1031 1031 1031 1031 1031 1031 1031 1031 
1031 1031 1031 1031 1031 1031 1031 1031 1031 
1031 1031 1031 1031 1031 1031 1031 1031 1031 
1031 1031 1031 1031 1031 1031 1031 1031 1031 
1031 1031 1031 1031 1031 1031 1031 1031 1031 
1031 1031 1031 1031 1031 1031 1031 1031 1031 
1031 1031 1031 1031 1031 1031 1031 1031 1031 
1031 1031 1031 1031 1031 1031 1031 1031 1031 
1031 1031 1031 1031 1031 1031 1031 1031 1031 
1031 1031 1031 1031 1031 1031 1031 1031 1031 
1031 1031 1031 1031 1031 1031 1031 1031 1031 
1031 1031 1031 1031 1031 1031 1031 1031 1031 
1031 1031 1031 1031 1031 1031 1031 1031 1031 
1031 1031 1031 1031 1031 1031 1031 1031 1031 
1031 1031 1031 1031 1031 1031 1031 1031 1031 
1031 1031 1031 1031 1031 1031 1031 1031 1031 
1031 1031 1031 1031 1031 1031 1031 1031 1031 
1031 1031 1031 1031 1031 1031 1031 1031 1031 
1031 1031 1031 1031 1031 1031 1031 1031 1031 
1031 1031 1031 1031 1031 1031 1031 1031 1031 
1031 1031 1031 1031 1031 1031 1031 1031 1031 
1031 1031 1031 1031 1031 1031 1031 1031 1031 
1031 1031 1031 1031 1031 1031 1031 1031 1031 
1031 1031 1031 1031 1031 1031 1031 1031 1031 
1031 1031 1031 1031 1031 1031 1031 1031 1031 
1031 1031 1031 1031 1031 1031 1031 1031 1031 
1031 1031 1031 1031 1031 1031 1031 1031 1031 
1031 1031 1031 1031 1031 1031 1031 1031 1031 
1031 1031 1031 1031 1031 1031 1031 1031 1031 
1031 1031 1031 1031 1031 1031 1031 1031 1031 
1031 1031 1031 1031 1031 1031 1031 1031 1031 
1031 1031 1031 1031 1031 1031 1031 1031 1031 
1031 1031 1031 1031 1031 1031 1031 1031 1031 
1031 1031 1031 1031 1031 1031 1031 1031 1031 
1031 1031 1031 1031 1031 1031 1031 1031 1031 
1031 1031 1031 1031 1031 1031 1031 1031 1031 
1031 1031 1031 1031 1031 1031 1031 1031 1031 
1031 1031 1031 1031 1031 1031 1031 1031 1031 
1031 1031 1031 1031 1031 1031 1031 1031 1031 
1031 1031 1031 1031 1031 1031 1031 1031 1031 
1031 1031 1031 1031 1031 1031 1031 1031 1031 
1031 1031 1031 1031 1031 1031 1031 1031 1031 
1031 1031 1031 1031 1031 1031 1031 1031 1031 
1031 1031 1031 1031 1031 1031 1031 1031 1031 
1031 1031 1031 1031 1031 1031 1031 1031 1031 
1031 1031 1031 1031 1031 1031 1031 1031 1031 
1031 1031 1031 1031 1031 1031 1031 1031 1031 
1031 1031 1031 1031 1031 1031 1031 1031 1031 
1031 1031 1031 1031 1031 1031 1031 1031 1031 
1031 1031 1031 1031 1031 1031 1031 1031 1031 
1031 1031 1031 1031 1031 1031 1031 1031 1031 
1031 1031 1031 1031 1031 1031 1031 1031 1031 
1031 1031 1031 1031 1031 1031 1031 1031 1031 
1031 1031 1031 1031 1031 1031 1031 1031 1031 
1031 1031 1031 1031 1031 1031 1031 1031 1031 
1031 1031 1031 1031 1031 1031 1031 1031 1031 
1031 1031 1031 1031 1031 1031 1031 1031 1031 
1031 1031 1031 1031 1031 1031 1031 1031 1031 
1031 1031 1031 1031 1031 1031 1031 1031 1031 
1031 1031 1031 1031 1031 1031 1031 1031 1031 
1031 1031 1031 1031 1031 1031 1031 1031 1031 
1031 1031 1031 1031 1031 1031 1031 1031 1031 
1031 1031 1031 1031 1031 1031 1031 1031 1031 
1031 1031 1031 1031 1031 1031 1031 1031 1031 
1031 1031 1031 1031 1031 1031 1031 1031 1031 
1031 1031 1031 1031 1031 1031 1031 1031 1031 
1031 1031 1031 1031 1031 1031 1031 1031 1031 
1031 1031 1031 1031 1031 1031 1031 1031 1031 
1031 1031 1031 1031 1031 1031 1031 1031 1031 
1031 1031 1031 1031 1031 1031 1031 1031 1031 
1031 1031 1031 1031 1031 1031 1031 1031 1031 
1031 1031 1031 1031 1031 1031 1031 1031 1031 
1031 1031 1031 1031 1031 1031 1031 1031 1031 
1031 1031 1031 1031 1031 1031 1031 1031 1031 
1031 1031 1031 1031 1031 1031 1031 1031 1031 
1031 1031 1031 1031 1031 1031 1031 1031 1031 
1031 1031 1031 1031 1031 1031 1031 1031 1031 
1031 1031 1031 1031 1031 1031 1031 1031 1031 
1031 1031 1031 1031 1031 1031 1031 1031 1031 
1031 1031 1031 1031 1031 1031 1031 1031 1031 
1031 1031 1031 1031 1031 1031 1031 1031 1031 
1031 1031 1031 1031 1031 1031 1031 1031 1031 
1031 1031 1031 1031 1031 1031 1031 1031 1031 
1031 1031 1031 1031 1031 1031 1031 1031 1031 
1031 1031 1031 1031 1031 1031 1031 1031 1031 
1031 1031 1031 1031 1031 1031 1031 1031 1031 
1031 1031 1031 1031 1031 1031 1031 1031 1031 
1031 1031 1031 1031 1031 1031 1031 1031 1031 
1031 1031 1031 1031 1031 1031 1031 1031 1031 
1031 1031 1031 1031 1031 1031 1031 1031 1031 
1031 1031 1031 1031 1031 1031 1031 1031 1031 
1031 1031 1031 1031 1031 1031 1031 1031 1031 
1031 1031 1031 1031 1031 1031 1031 1031 1031 
1031 1031 1031 1031 1031 1031 1031 1031 1031 
1031 1031 1031 1031 1031 1031 1031 1031 1031 
1031 1031 1031 1031 1031 1031 1031 1031 1031 
1031 1031 1031 1031 1031 1031 1031 1031 1031 
1031 1031 1031 1031 1031 1031 1031 1031 1031 
1031 1031 1031 1031 1031 1031 1031 1031 1031 
1031 1031 1031 1031 1031 1031 1031 1031 1031 
1031 1031 1031 1031 1031 1031 1031 1031 1031 
1031 1031 1031 1031 1031 1031 1031 1031 1031 
1031 1031 1031 1031 1031 1031 1031 1031 1031 
1031 1031 1031 1031 1031 1031 1031 1031 1031 
1031 1031 1031 1031 1031 1031 1031 1031 1031 
1031 1031 1031 1031 1031 1031 1031 1031 1031 
1031 1031 1031 1031 1031 1031 1031 1031 1031 
1031 1031 1031 1031 1031 1031 1031 1031 1031 
1031 1031 1031 1031 1031 1031 1031 1031 1031 
1031 1031 1031 1031 1031 1031 1031 1031 1031 
1031 1031 1031 1031 1031 1031 1031 1031 1031 
1031 1031 1031 1031 1031 1031 1031 1031 1031 
1031 1031 1031 1031 1031 1031 1031 1031 1031 
1031 1031 1031 1031 1031 1031 1031 1031 1031 
1031 1031 1031 1031 1031 1031 1031 1031 1031 
1031 1031 1031 1031 1031 1031 1031 1031 1031 
1031 1031 1031 1031 1031 1031 1031 1031 1031 
1031 1031 1031 1031 1031 1031 1031 1031 1031 
1031 1031 1031 1031 1031 1031 1031 1031 1031 
1031 1031 1031 1031 1031 1031 1031 1031 1031 
1031 1031 1031 1031 1031 1031 1031 1031 1031 
1031 1031 1031 1031 1031 1031 1031 1031 1031 
1031 1031 1031 1031 1031 1031 1031 1031 1031 
1031 1031 1031 1031 1031 1031 1031 1031 1031 
1031 1031 1031 1031 1031 1031 1031 1031 1031 
1031 1031 1031 1031 1031 1031 1031 1031 1031 
1031 1031 1031 1031 1031 1031 1031 1031 1031 
1031 1031 1031 1031 1031 1031 1031 1031 1031 
1031 1031 1031 1031 1031 1031 1031 1031 1031 
1031 1031 1031 1031 1031 1031 1031 1031 1031 