# vtk DataFile Version 4.2
vtk output
ASCII
DATASET POLYDATA
POINTS 10272 float
22.3753 -24.969 -18.0211 22.3436 -24.6308 -18.1936 22.7249 -24.8605 -18.2132 
21.9639 -25.0596 -18.0837 21.9724 -24.6104 -18.2196 21.5848 -24.8339 -18.4651 
22.8877 -25.3508 -18.0852 23.1221 -25.1439 -18.3249 23.2204 -25.502 -18.4564 
22.4571 -25.4382 -18.0346 22.0728 -25.5727 -18.2824 21.7225 -25.2631 -18.3426 
22.8473 -25.7065 -18.3121 22.4848 -25.7107 -18.2669 22.3203 -24.3747 -18.5271 
22.2392 -24.1167 -19.0217 22.6366 -24.4288 -18.9678 21.6121 -24.3125 -18.5826 
21.8704 -24.0481 -18.852 21.2359 -24.2488 -18.756 21.3777 -23.9822 -18.9552 
20.9753 -24.3052 -19.0169 22.9308 -24.7184 -18.5719 23.0041 -24.7212 -18.9527 
23.2465 -25.1041 -18.7928 21.2884 -24.5778 -18.894 21.4265 -24.9276 -18.9062 
23.2807 -25.5226 -18.9679 21.637 -25.7001 -18.5342 21.4331 -25.301 -18.8906 
22.9748 -25.7539 -18.8853 22.3673 -25.8586 -18.759 21.862 -25.9908 -18.6186 
21.9312 -26.083 -18.9492 21.2754 -25.8056 -18.8244 21.3914 -26.1168 -18.7157 
20.9891 -26.0398 -19.0317 21.5738 -26.2675 -18.9098 21.1735 -26.3039 -19.0061 
20.9811 -23.7736 -19.2046 21.3168 -23.473 -19.6448 21.4573 -23.6942 -19.3751 
20.4822 -23.6789 -19.2442 20.7594 -23.3584 -19.5594 20.0236 -23.7913 -19.2885 
20.1378 -23.3726 -19.4498 19.5262 -23.7379 -19.3564 19.5657 -23.4248 -19.4468 
19.1994 -23.5924 -19.4956 22.3964 -24.2643 -19.1932 22.1846 -24.1426 -19.5235 
21.8386 -23.8784 -19.3711 20.4655 -24.2548 -19.1889 20.1388 -24.2047 -19.3937 
19.7737 -24.036 -19.4649 19.3231 -23.8844 -19.5086 23.1083 -24.9868 -19.2159 
22.8068 -24.8519 -19.4579 22.4577 -24.4942 -19.5869 21.3232 -24.9275 -19.3287 
21.0783 -24.7172 -19.3695 20.7134 -24.8728 -19.2478 21.0378 -25.0086 -19.5118 
20.1157 -24.5465 -19.4238 20.1972 -24.9577 -19.3303 19.7991 -24.8564 -19.706 
23.0033 -25.237 -19.5922 23.2005 -25.3539 -19.3282 21.2382 -25.1477 -19.4659 
20.9734 -25.4788 -19.2213 20.5026 -25.3593 -19.2835 20.2003 -25.4278 -19.4334 
19.9276 -25.2467 -19.5981 22.9585 -25.6863 -19.4658 22.4132 -25.8165 -19.4832 
21.933 -25.9326 -19.3695 21.6621 -26.1557 -19.2332 21.5769 -26.0522 -19.6354 
20.5616 -25.8043 -19.3961 20.8612 -26.1933 -19.3109 21.2977 -26.3466 -19.4763 
20.3925 -23.0686 -19.8181 20.7178 -22.8828 -20.2442 20.862 -23.1022 -19.9736 
19.7951 -23.0697 -19.7491 20.1447 -22.7561 -20.1755 19.1795 -23.1875 -19.7476 
19.5074 -22.7641 -20.065 18.7563 -23.2283 -19.9162 18.9497 -22.8125 -20.0691 
18.5658 -23.0318 -20.1172 21.6987 -23.619 -19.7495 21.6146 -23.4681 -20.1514 
21.965 -23.8664 -20.0269 21.1821 -23.26 -19.9391 18.9038 -23.7805 -19.7767 
18.4799 -23.6307 -20.135 22.209 -24.2656 -20.0131 19.8363 -24.4063 -19.6468 
19.3679 -24.1821 -19.7231 18.9301 -24.305 -19.9428 18.6006 -24.2493 -20.171 
22.4067 -24.5793 -20.2633 22.6271 -24.8944 -20.0084 21.1979 -24.9135 -19.6288 
19.3144 -24.6416 -20.0199 19.5459 -24.9367 -20.0489 18.7842 -24.5995 -20.2151 
22.9243 -25.5508 -19.7685 22.7237 -25.4781 -20.1807 20.0542 -25.7173 -19.7346 
19.6571 -25.321 -20.0001 22.4003 -25.8338 -20.1252 21.8647 -25.886 -19.9594 
21.5942 -26.2363 -20.1542 20.6168 -26.2395 -19.6514 20.1346 -26.2599 -19.9104 
19.7086 -25.9031 -20.1032 21.6932 -26.6177 -19.9138 21.8346 -26.5564 -20.0913 
21.9146 -26.7304 -20.0732 21.2202 -26.6969 -19.8144 20.6424 -26.679 -19.8995 
20.2894 -26.6504 -20.0879 19.8765 -26.383 -20.2995 21.6896 -26.8424 -20.0254 
21.1532 -26.9058 -20.1453 20.607 -26.8928 -20.2053 19.808 -22.4689 -20.4223 
20.122 -22.287 -20.8345 20.2616 -22.5019 -20.5666 19.2386 -22.4652 -20.3674 
19.5786 -22.1605 -20.7724 18.6209 -22.5803 -20.358 18.9702 -22.1641 -20.6626 
18.0337 -22.5751 -20.431 18.3746 -22.1733 -20.6564 17.5193 -22.4917 -20.454 
17.7694 -22.1699 -20.6479 17.0265 -22.5869 -20.4923 17.0736 -22.1782 -20.7145 
16.3784 -22.4763 -20.5118 16.3807 -22.2524 -20.7365 15.9128 -22.4779 -20.5324 
15.8064 -22.2756 -20.7334 15.5071 -22.4076 -20.7295 21.243 -23.1346 -20.3631 
21.0278 -22.8713 -20.734 21.3796 -23.2122 -20.799 20.5724 -22.661 -20.5306 
18.1881 -23.1714 -20.2954 17.6048 -23.0333 -20.4257 17.1975 -23.0621 -20.6028 
16.7908 -22.8474 -20.6504 16.2242 -22.7599 -20.6455 15.706 -22.651 -20.6798 
21.8459 -23.7762 -20.4809 21.5851 -23.5863 -20.723 18.203 -23.7667 -20.4161 
17.8138 -23.6492 -20.5065 17.3428 -23.5242 -20.6764 21.7819 -24.011 -20.81 
22.0738 -24.1941 -20.5193 18.3638 -24.1895 -20.529 18.0128 -24.0818 -20.8066 
17.5003 -23.9208 -20.8685 22.3171 -24.5958 -20.716 22.6246 -25.0471 -20.6183 
19.2911 -25.1155 -20.2841 18.8648 -24.9729 -20.4238 18.4819 -24.7189 -20.6001 
22.742 -25.5272 -20.7344 19.3766 -25.5867 -20.3057 18.9836 -25.5379 -20.5313 
18.5253 -25.28 -20.7261 22.4449 -26.0456 -20.5028 22.5768 -25.9315 -20.8115 
22.2276 -26.1176 -20.635 21.9461 -25.9796 -20.7229 21.5792 -26.1314 -20.7603 
19.384 -26.0096 -20.4176 19.0322 -25.9993 -20.6616 18.6741 -25.7383 -20.7662 
22.3782 -26.2168 -20.7425 21.6396 -26.6734 -20.233 21.3608 -26.4341 -20.6872 
21.1744 -26.7754 -20.4791 20.9344 -26.7087 -20.9013 20.256 -26.7429 -20.4806 
19.8587 -26.5785 -20.6956 19.413 -26.3333 -20.6651 20.6137 -26.9063 -20.68 
19.2333 -21.8727 -21.0064 19.3393 -21.6951 -21.457 19.6244 -21.9071 -21.2031 
18.6699 -21.8637 -20.9569 18.8179 -21.6519 -21.3442 18.061 -21.8628 -20.9546 
18.2093 -21.6486 -21.348 17.4465 -21.8744 -20.9581 17.5858 -21.6434 -21.3586 
16.9331 -21.9135 -21.0604 17.0226 -21.6924 -21.3571 16.6236 -21.8357 -21.3737 
20.6389 -22.5307 -20.9402 20.416 -22.3132 -21.3669 20.7733 -22.6021 -21.3758 
19.95 -22.0822 -21.2666 16.3938 -22.063 -21.2055 15.7566 -22.1702 -21.2538 
15.1146 -22.6814 -20.9734 15.2884 -22.2875 -21.1558 14.8703 -22.4718 -21.4852 
12.7791 -22.4962 -21.1795 12.6733 -22.361 -21.3839 13.0074 -22.3956 -21.3542 
12.5278 -22.4652 -21.3337 21.2654 -23.1757 -21.0718 21.001 -22.9883 -21.3044 
16.9917 -23.2743 -20.8185 16.5607 -23.2249 -20.9703 15.7693 -23.0927 -20.9498 
15.0476 -23.2059 -20.9342 14.6113 -22.7823 -21.2881 14.5908 -23.1364 -21.0658 
14.356 -23.076 -21.3951 12.8627 -22.6511 -21.3577 12.1874 -22.918 -21.2511 
12.3124 -23.1083 -21.3126 12.1814 -23.0733 -21.1986 12.0437 -22.9928 -21.2782 
21.2037 -23.4301 -21.4136 21.4096 -23.5625 -21.1572 17.0095 -23.663 -20.9879 
16.7694 -23.6328 -21.2487 16.4271 -23.4112 -21.3866 15.8454 -23.481 -21.3009 
15.5093 -23.7055 -21.2614 15.2989 -23.5475 -21.0638 14.7349 -23.6066 -21.0639 
14.257 -23.495 -21.3525 12.1037 -23.2339 -21.2889 21.916 -24.4767 -20.9761 
21.5095 -24.1195 -21.2012 18.0942 -24.5057 -20.9669 17.884 -24.275 -21.2118 
17.623 -24.0675 -21.2582 17.169 -23.8758 -21.2878 15.1477 -23.9497 -21.3263 
14.4779 -23.9137 -21.2762 22.3389 -24.903 -21.0192 21.9632 -24.8801 -21.1677 
21.5398 -24.8312 -21.3656 18.0877 -25.0494 -20.9182 17.6849 -24.4896 -21.2572 
17.5193 -24.9128 -21.0735 16.9837 -25.0313 -21.1372 17.2096 -24.6142 -21.2956 
16.7914 -24.8279 -21.3182 22.2311 -25.2134 -21.4116 22.5937 -25.4493 -21.1205 
21.8736 -25.0463 -21.3758 18.1864 -25.663 -20.925 17.5724 -25.5078 -20.9915 
17.0309 -25.4818 -21.0708 16.6477 -25.3303 -21.264 22.3743 -25.8601 -21.1741 
22.2946 -26.1074 -20.8888 21.7628 -26.0555 -21.0442 22.058 -25.9714 -21.465 
18.7326 -26.2264 -20.8955 18.1741 -26.1225 -20.9832 17.7299 -26.1391 -21.0487 
17.148 -26.0211 -21.1064 16.6883 -25.909 -21.2698 21.5682 -26.266 -21.2604 
21.1771 -26.4849 -21.1965 20.8688 -26.6988 -21.4608 20.0658 -26.7799 -20.8733 
19.3987 -26.7282 -20.9988 18.7892 -26.7217 -20.9946 18.2987 -26.687 -21.076 
17.8236 -26.6366 -21.2284 17.367 -26.4668 -21.2645 16.9094 -26.3313 -21.3217 
20.4969 -26.9155 -21.2868 19.9985 -26.9394 -21.187 19.2884 -27.1521 -21.4291 
18.9628 -27.3593 -21.2745 18.8538 -27.1414 -21.1302 18.5545 -27.2386 -21.2262 
18.1939 -27.0045 -21.4721 18.7924 -27.4188 -21.2418 13.8519 -21.4643 -21.7244 
13.9612 -21.0401 -22.0278 14.2616 -21.5017 -21.8473 13.6453 -21.2105 -21.9544 
19.3454 -21.6466 -22.0175 19.7231 -21.8589 -21.6919 18.8274 -21.5746 -21.8722 
18.2175 -21.5709 -21.8733 17.5824 -21.5587 -21.9049 16.9781 -21.5653 -21.8841 
16.2671 -21.915 -21.6492 16.5207 -21.6969 -21.7826 16.0824 -21.8797 -22.111 
13.9298 -21.89 -21.6686 14.2716 -21.8543 -21.8457 13.5 -21.5375 -21.8141 
13.4105 -21.9678 -21.6121 13.1492 -21.8035 -21.9008 20.6472 -22.577 -21.6471 
20.4028 -22.5158 -21.9478 20.0811 -22.1554 -21.9464 15.8587 -22.091 -21.7775 
15.275 -22.2691 -21.7931 14.9029 -22.4659 -21.8719 14.0835 -22.206 -21.9175 
13.7186 -22.5237 -21.8507 13.4746 -22.4013 -21.5772 12.7857 -22.152 -21.7881 
12.153 -22.6887 -21.4608 12.2171 -22.2819 -21.8255 11.4296 -22.6465 -21.6899 
11.6068 -22.3136 -21.9682 11.1901 -22.4198 -21.9998 20.593 -22.8384 -21.993 
20.8112 -22.956 -21.7363 14.6502 -22.7738 -21.8306 14.2833 -23.1761 -21.7222 
13.4165 -22.8161 -21.8334 12.7431 -23.1194 -21.5266 13.1752 -23.3281 -21.9477 
11.7507 -23.1386 -21.4575 10.9171 -22.6962 -21.991 11.1517 -23.1535 -21.7067 
10.7152 -23.0349 -21.9665 21.2127 -23.8759 -21.5736 20.938 -23.5223 -21.811 
16.9044 -23.6529 -21.5467 17.2355 -23.6886 -21.8804 16.7932 -23.3766 -21.9569 
16.282 -23.4749 -21.7709 15.7978 -23.7117 -21.563 16.0643 -23.684 -22.0833 
14.1081 -23.4708 -21.8966 14.0088 -23.9292 -21.5764 13.8012 -23.8616 -22.0177 
12.8408 -23.5976 -21.6917 13.0091 -23.7294 -22.0022 12.2233 -23.6415 -21.5435 
11.526 -23.7302 -21.642 11.2198 -23.7081 -21.9085 10.8631 -23.337 -21.9278 
21.0915 -24.4826 -21.5968 20.8813 -24.1159 -21.9123 17.487 -24.2432 -21.4599 
16.8902 -24.3004 -21.5922 16.8672 -23.9305 -21.9545 16.2781 -24.4374 -21.6828 
16.487 -24.1406 -21.9419 15.645 -24.0033 -21.8038 16.0942 -24.3316 -22.0077 
15.1468 -24.3659 -21.6363 15.4569 -24.3608 -22.0338 14.4832 -24.349 -21.465 
13.9224 -24.436 -21.6126 13.7131 -24.2345 -21.8439 12.6413 -23.9195 -21.9524 
12.0851 -24.1115 -21.9643 11.7281 -24.3422 -21.9821 11.7457 -24.2008 -21.7538 
11.475 -24.1965 -21.9137 10.4056 -24.4758 -21.6919 10.4589 -24.1177 -21.8969 
10.7215 -24.3664 -21.7718 10.1304 -24.1859 -22.016 21.0479 -25.0294 -21.5141 
20.7012 -24.5567 -21.8706 20.5664 -25.0045 -21.6778 20.3437 -24.8146 -21.9325 
[...]
CELL_DATA 20708
SCALARS scalars float
LOOKUP_TABLE default
2013 2013 2013 2013 2013 2013 2013 2013 2013 
2013 2013 2013 2013 2013 2013 2013 2013 2013 
2013 2013 2013 2013 2013 2013 2013 2013 2013 
2013 2013 2013 2013 2013 2013 2013 2013 2013 
2013 2013 2013 2013 2013 2013 2013 2013 2013 
2013 2013 2013 2013 2013 2013 2013 2013 2013 
2013 2013 2013 2013 2013 2013 2013 2013 2013 
2013 2013 2013 2013 2013 2013 2013 2013 2013 
2013 2013 2013 2013 2013 2013 2013 2013 2013 
2013 2013 2013 2013 2013 2013 2013 2013 2013 
2013 2013 2013 2013 2013 2013 2013 2013 2013 
2013 2013 2013 2013 2013 2013 2013 2013 2013 
2013 2013 2013 2013 2013 2013 2013 2013 2013 
2013 2013 2013 2013 2013 2013 2013 2013 2013 
2013 2013 2013 2013 2013 2013 2013 2013 2013 
2013 2013 2013 2013 2013 2013 2013 2013 2013 
2013 2013 2013 2013 2013 2013 2013 2013 2013 
2013 2013 2013 2013 2013 2013 2013 2013 2013 
2013 2013 2013 2013 2013 2013 2013 2013 2013 
2013 2013 2013 2013 2013 2013 2013 2013 2013 
2013 2013 2013 2013 2013 2013 2013 2013 2013 
2013 2013 2013 2013 2013 2013 2013 2013 2013 
2013 2013 2013 2013 2013 2013 2013 2013 2013 
2013 2013 2013 2013 2013 2013 2013 2013 2013 
2013 2013 2013 2013 2013 2013 2013 2013 2013 
2013 2013 2013 2013 2013 2013 2013 2013 2013 
2013 2013 2013 2013 2013 2013 2013 2013 2013 
2013 2013 2013 2013 2013 2013 2013 2013 2013 
2013 2013 2013 2013 2013 2013 2013 2013 2013 
2013 2013 2013 2013 2013 2013 2013 2013 2013 
2013 2013 2013 2013 2013 2013 2013 2013 2013 
2013 2013 2013 2013 2013 2013 2013 2013 2013 
2013 2013 2013 2013 2013 2013 2013 2013 2013 
2013 2013 2013 2013 2013 2013 2013 2013 2013 
2013 2013 2013 2013 2013 2013 2013 2013 2013 
2013 2013 2013 2013 2013 2013 2013 2013 2013 
2013 2013 2013 2013 2013 2013 2013 2013 2013 
2013 2013 2013 2013 2013 2013 2013 2013 2013 
2013 2013 2013 2013 2013 2013 2013 2013 2013 
2013 2013 2013 2013 2013 2013 2013 2013 2013 
2013 2013 2013 2013 2013 2013 2013 2013 2013 
2013 2013 2013 2013 2013 2013 2013 2013 2013 
2013 2013 2013 2013 2013 2013 2013 2013 2013 
2013 2013 2013 2013 2013 2013 2013 2013 2013 
2013 2013 2013 2013 2013 2013 2013 2013 2013 
2013 2013 2013 2013 2013 2013 2013 2013 2013 
2013 2013 2013 2013 2013 2013 2013 2013 2013 
2013 2013 2013 2013 2013 2013 2013 2013 2013 
2013 2013 2013 2013 2013 2013 2013 2013 2013 
2013 2013 2013 2013 2013 2013 2013 2013 2013 
2013 2013 2013 2013 2013 2013 2013 2013 2013 
2013 2013 2013 2013 2013 2013 2013 2013 2013 
2013 2013 2013 2013 2013 2013 2013 2013 2013 
2013 2013 2013 2013 2013 2013 2013 2013 2013 
2013 2013 2013 2013 2013 2013 2013 2013 2013 
2013 2013 2013 2013 2013 2013 2013 2013 2013 
2013 2013 2013 2013 2013 2013 2013 2013 2013 
2013 2013 2013 2013 2013 2013 2013 2013 2013 
2013 2013 2013 2013 2013 2013 2013 2013 2013 
2013 2013 2013 2013 2013 2013 2013 2013 2013 
2013 2013 2013 2013 2013 2013 2013 2013 2013 
2013 2013 2013 2013 2013 2013 2013 2013 2013 
2013 2013 2013 2013 2013 2013 2013 2013 2013 
2013 2013 2013 2013 2013 2013 2013 2013 2013 
2013 2013 2013 2013 2013 2013 2013 2013 2013 
2013 2013 2013 2013 2013 2013 2013 2013 2013 
2013 2013 2013 2013 2013 2013 2013 2013 2013 
2013 2013 2013 2013 2013 2013 2013 2013 2013 
2013 2013 2013 2013 2013 2013 2013 2013 2013 
2013 2013 2013 2013 2013 2013 2013 2013 2013 
2013 2013 2013 2013 2013 2013 2013 2013 2013 
2013 2013 2013 2013 2013 2013 2013 2013 2013 
2013 2013 2013 2013 2013 2013 2013 2013 2013 
2013 2013 2013 2013 2013 2013 2013 2013 2013 
2013 2013 2013 2013 2013 2013 2013 2013 2013 
2013 2013 2013 2013 2013 2013 2013 2013 2013 
2013 2013 2013 2013 2013 2013 2013 2013 2013 
2013 2013 2013 2013 2013 2013 2013 2013 2013 
2013 2013 2013 2013 2013 2013 2013 2013 2013 
2013 2013 2013 2013 2013 2013 2013 2013 2013 
2013 2013 2013 2013 2013 2013 2013 2013 2013 
2013 2013 2013 2013 2013 2013 2013 2013 2013 
2013 2013 2013 2013 2013 2013 2013 2013 2013 
2013 2013 2013 2013 2013 2013 2013 2013 2013 
2013 2013 2013 2013 2013 2013 2013 2013 2013 
2013 2013 2013 2013 2013 2013 2013 2013 2013 
2013 2013 2013 2013 2013 2013 2013 2013 2013 
2013 2013 2013 2013 2013 2013 2013 2013 2013 
2013 2013 2013 2013 2013 2013 2013 2013 2013 
2013 2013 2013 2013 2013 2013 2013 2013 2013 
2013 2013 2013 2013 2013 2013 2013 2013 2013 
2013 2013 2013 2013 2013 2013 2013 2013 2013 
2013 2013 2013 2013 2013 2013 2013 2013 2013 
2013 2013 2013 2013 2013 2013 2013 2013 2013 
2013 2013 2013 2013 2013 2013 2013 2013 2013 
2013 2013 2013 2013 2013 2013 2013 2013 2013 
2013 2013 2013 2013 2013 2013 2013 2013 2013 
2013 2013 2013 2013 2013 2013 2013 2013 2013 
2013 2013 2013 2013 2013 2013 2013 2013 2013 
2013 2013 2013 2013 2013 2013 2013 2013 2013 
2013 2013 2013 2013 2013 2013 2013 2013 2013 
2013 2013 2013 2013 2013 2013 2013 2013 2013 
2013 2013 2013 2013 2013 2013 2013 2013 2013 
2013 2013 2013 2013 2013 2013 2013 2013 2013 
2013 2013 2013 2013 2013 2013 2013 2013 2013 
2013 2013 2013 2013 2013 2013 2013 2013 2013 
2013 2013 2013 2013 2013 2013 2013 2013 2013 
2013 2013 2013 2013 2013 2013 2013 2013 2013 
2013 2013 2013 2013 2013 2013 2013 2013 2013 
2013 2013 2013 2013 2013 2013 2013 2013 2013 
2013 2013 2013 2013 2013 2013 2013 2013 2013 
2013 2013 2013 2013 2013 2013 2013 2013 2013 
2013 2013 2013 2013 2013 2013 2013 2013 2013 
2013 2013 2013 2013 2013 2013 2013 2013 2013 
2013 2013 2013 2013 2013 2013 2013 2013 2013 
2013 2013 2013 2013 2013 2013 2013 2013 2013 
2013 2013 2013 2013 2013 2013 2013 2013 2013 
2013 2013 2013 2013 2013 2013 2013 2013 2013 
2013 2013 2013 2013 2013 2013 2013 2013 2013 
2013 2013 2013 2013 2013 2013 2013 2013 2013 
2013 2013 2013 2013 2013 2013 2013 2013 2013 
2013 2013 2013 2013 2013 2013 2013 2013 2013 
2013 2013 2013 2013 2013 2013 2013 2013 2013 
2013 2013 2013 2013 2013 2013 2013 2013 2013 
2013 2013 2013 2013 2013 2013 2013 2013 2013 
2013 2013 2013 2013 2013 2013 2013 2013 2013 
2013 2013 2013 2013 2013 2013 2013 2013 2013 
2013 2013 2013 2013 2013 2013 2013 2013 2013 
2013 2013 2013 2013 2013 2013 2013 2013 2013 
2013 2013 2013 2013 2013 2013 2013 2013 2013 
2013 2013 2013 2013 2013 2013 2013 2013 2013 
2013 2013 2013 2013 2013 2013 2013 2013 2013 
2013 2013 2013 2013 2013 2013 2013 2013 2013 
2013 2013 2013 2013 2013 2013 2013 2013 2013 
2013 2013 2013 2013 2013 2013 2013 2013 2013 
2013 2013 2013 2013 2013 2013 2013 2013 2013 
2013 2013 2013 2013 2013 2013 2013 2013 2013 
2013 2013 2013 2013 2013 2013 2013 2013 2013 
2013 2013 2013 2013 2013 2013 2013 2013 2013 
2013 2013 2013 2013 2013 2013 2013 2013 2013 
2013 2013 2013 2013 2013 2013 2013 2013 2013 
2013 2013 2013 2013 2013 2013 2013 2013 2013 
2013 2013 2013 2013 2013 2013 2013 2013 2013 
2013 2013 2013 2013 2013 2013 2013 2013 2013 
2013 2013 2013 2013 2013 2013 2013 2013 2013 
2013 2013 2013 2013 2013 2013 2013 2013 2013 
2013 2013 2013 2013 2013 2013 2013 2013 2013 
2013 2013 2013 2013 2013 2013 2013 2013 2013 
2013 2013 2013 2013 2013 2013 2013 2013 2013 
2013 2013 2013 2013 2013 2013 2013 2013 2013 
2013 2013 2013 2013 2013 2013 2013 2013 2013 
2013 2013 2013 2013 2013 2013 2013 2013 2013 
2013 2013 2013 2013 2013 2013 2013 2013 2013 
2013 2013 2013 2013 2013 2013 2013 2013 2013 
2013 2013 2013 2013 2013 2013 2013 2013 2013 
2013 2013 2013 2013 2013 2013 2013 2013 2013 
2013 2013 2013 2013 2013 2013 2013 2013 2013 
2013 2013 2013 2013 2013 2013 2013 2013 2013 
2013 2013 2013 2013 2013 2013 2013 2013 2013 
2013 2013 2013 2013 2013 2013 2013 2013 2013 
2013 2013 2013 2013 2013 2013 2013 2013 2013 
2013 2013 2013 2013 2013 2013 2013 2013 2013 
2013 2013 2013 2013 2013 2013 2013 2013 2013 
2013 2013 2013 2013 2013 2013 2013 2013 2013 
2013 2013 2013 2013 2013 2013 2013 2013 2013 
2013 2013 2013 2013 2013 2013 2013 2013 2013 
2013 2013 2013 2013 2013 2013 2013 2013 2013 
2013 2013 2013 2013 2013 2013 2013 2013 2013 
2013 2013 2013 2013 2013 2013 2013 2013 2013 
2013 2013 2013 2013 2013 2013 2013 2013 2013 
2013 2013 2013 2013 2013 2013 2013 2013 2013 
2013 2013 2013 2013 2013 2013 2013 2013 2013 
2013 2013 2013 2013 2013 2013 2013 2013 2013 
2013 2013 2013 2013 2013 2013 2013 2013 2013 
2013 2013 2013 2013 2013 2013 2013 2013 2013 
2013 2013 2013 2013 2013 2013 2013 2013 2013 
2013 2013 2013 2013 2013 2013 2013 2013 2013 
2013 2013 2013 2013 2013 2013 2013 2013 2013 
2013 2013 2013 2013 2013 2013 2013 2013 2013 
2013 2013 2013 2013 2013 2013 2013 2013 2013 
2013 2013 2013 2013 2013 2013 2013 2013 2013 
2013 2013 2013 2013 2013 2013 2013 2013 2013 
2013 2013 2013 2013 2013 2013 2013 2013 2013 
2013 2013 2013 2013 2013 2013 2013 2013 2013 
2013 2013 2013 2013 2013 2013 2013 2013 2013 
2013 2013 2013 2013 2013 2013 2013 2013 2013 
2013 2013 2013 2013 2013 2013 2013 2013 2013 
2013 2013 2013 2013 2013 2013 2013 2013 2013 
2013 2013 2013 2013 2013 2013 2013 2013 2013 
2013 2013 2013 2013 2013 2013 2013 2013 2013 
2013 2013 2013 2013 2013 2013 2013 2013 2013 
2013 2013 2013 2013 2013 2013 2013 2013 2013 
2013 2013 2013 2013 2013 2013 2013 2013 2013 
2013 2013 2013 2013 2013 2013 2013 2013 2013 
2013 2013 2013 2013 2013 2013 2013 2013 2013 
2013 2013 2013 2013 2013 2013 2013 2013 2013 
2013 2013 2013 2013 2013 2013 2013 2013 2013 
2013 2013 2013 2013 2013 2013 2013 2013 2013 
2013 2013 2013 2013 2013 2013 2013 2013 2013 
2013 2013 2013 2013 2013 2013 2013 2013 2013 
2013 2013 2013 2013 2013 2013 2013 2013 2013 
2013 2013 2013 2013 2013 2013 2013 2013 2013 
2013 2013 2013 2013 2013 2013 2013 2013 2013 
2013 2013 2013 2013 2013 2013 2013 2013 2013 
2013 2013 2013 2013 2013 2013 2013 2013 2013 
2013 2013 2013 2013 2013 2013 2013 2013 2013 
2013 2013 2013 2013 2013 2013 2013 2013 2013 
2013 2013 2013 2013 2013 2013 2013 2013 2013 
2013 2013 2013 2013 2013 2013 2013 2013 2013 
2013 2013 2013 2013 2013 2013 2013 2013 2013 
2013 2013 2013 2013 2013 2013 2013 2013 2013 
2013 2013 2013 2013 2013 2013 2013 2013 2013 
2013 2013 2013 2013 2013 2013 2013 2013 2013 
2013 2013 2013 2013 2013 2013 2013 2013 2013 
2013 2013 2013 2013 2013 2013 2013 2013 2013 
2013 2013 2013 2013 2013 2013 2013 2013 2013 
2013 2013 2013 2013 2013 2013 2013 2013 2013 
2013 2013 2013 2013 2013 2013 2013 2013 2013 
2013 2013 2013 2013 2013 2013 2013 2013 2013 
2013 2013 2013 2013 2013 2013 2013 2013 2013 
2013 2013 2013 2013 2013 2013 2013 2013 2013 
2013 2013 2013 2013 2013 2013 2013 2013 2013 
2013 2013 2013 2013 2013 2013 2013 2013 2013 
2013 2013 2013 2013 2013 2013 2013 2013 2013 
2013 2013 2013 2013 2013 2013 2013 2013 2013 
2013 2013 2013 2013 2013 2013 2013 2013 2013 
2013 2013 2013 2013 2013 2013 2013 2013 2013 
2013 2013 2013 2013 2013 2013 2013 2013 2013 
2013 2013 2013 2013 2013 2013 2013 2013 2013 
2013 2013 2013 2013 2013 2013 2013 2013 2013 
2013 2013 2013 2013 2013 2013 2013 2013 2013 
2013 2013 2013 2013 2013 2013 2013 2013 2013 
2013 2013 2013 2013 2013 2013 2013 2013 2013 
2013 2013 2013 2013 2013 2013 2013 2013 2013 
2013 2013 2013 2013 2013 2013 2013 2013 2013 
2013 2013 2013 2013 2013 2013 2013 2013 2013 
2013 2013 2013 2013 2013 2013 2013 2013 2013 
2013 2013 2013 2013 2013 2013 2013 2013 2013 
2013 2013 2013 2013 2013 2013 2013 2013 2013 
2013 2013 2013 2013 2013 2013 2013 2013 2013 
2013 2013 2013 2013 2013 2013 2013 2013 2013 
2013 2013 2013 2013 2013 2013 2013 2013 2013 
2013 2013 2013 2013 2013 2013 2013 2013 2013 
2013 2013 2013 2013 2013 2013 2013 2013 2013 
2013 2013 2013 2013 2013 2013 2013 2013 2013 
2013 2013 2013 2013 2013 2013 2013 2013 2013 
2013 2013 2013 2013 2013 2013 2013 2013 2013 
2013 2013 2013 2013 2013 2013 2013 2013 2013 
2013 2013 2013 2013 2013 2013 2013 2013 2013 
2013 2013 2013 2013 2013 2013 2013 2013 2013 
2013 2013 2013 2013 2013 2013 2013 2013 2013 
2013 2013 2013 2013 2013 2013 2013 2013 2013 
2013 2013 2013 2013 2013 2013 2013 2013 2013 
2013 2013 2013 2013 2013 2013 2013 2013 2013 
2013 2013 2013 2013 2013 2013 2013 2013 2013 
2013 2013 2013 2013 2013 2013 2013 2013 2013 
2013 2013 2013 2013 2013 2013 2013 2013 2013 
2013 2013 2013 2013 2013 2013 2013 2013 2013 
2013 2013 2013 2013 2013 2013 2013 2013 2013 
2013 2013 2013 2013 2013 2013 2013 2013 2013 
2013 2013 2013 2013 2013 2013 2013 2013 2013 
2013 2013 2013 2013 2013 2013 2013 2013 2013 
2013 2013 2013 2013 2013 2013 2013 2013 2013 
2013 2013 2013 2013 2013 2013 2013 2013 2013 
2013 2013 2013 2013 2013 2013 2013 2013 2013 
2013 2013 2013 2013 2013 2013 2013 2013 2013 
2013 2013 2013 2013 2013 2013 2013 2013 2013 
2013 2013 2013 2013 2013 2013 2013 2013 2013 
2013 2013 2013 2013 2013 2013 2013 2013 2013 
2013 2013 2013 2013 2013 2013 2013 2013 2013 
2013 2013 2013 2013 2013 2013 2013 2013 2013 
2013 2013 2013 2013 2013 2013 2013 2013 2013 
2013 2013 2013 2013 2013 2013 2013 2013 2013 
2013 2013 2013 2013 2013 2013 2013 2013 2013 
2013 2013 2013 2013 2013 2013 2013 2013 2013 
2013 2013 2013 2013 2013 2013 2013 2013 2013 
2013 2013 2013 2013 2013 2013 2013 2013 2013 
2013 2013 2013 2013 2013 2013 2013 2013 2013 
2013 2013 2013 2013 2013 2013 2013 2013 2013 
2013 2013 2013 2013 2013 2013 2013 2013 2013 
2013 2013 2013 2013 2013 2013 2013 2013 2013 
2013 2013 2013 2013 2013 2013 2013 2013 2013 
2013 2013 2013 2013 2013 2013 2013 2013 2013 
2013 2013 2013 2013 2013 2013 2013 2013 2013 
2013 2013 2013 2013 2013 2013 2013 2013 2013 
2013 2013 2013 2013 2013 2013 2013 2013 2013 
2013 2013 2013 2013 2013 2013 2013 2013 2013 
2013 2013 2013 2013 2013 2013 2013 2013 2013 
2013 2013 2013 2013 2013 2013 2013 2013 2013 
2013 2013 2013 2013 2013 2013 2013 2013 2013 
2013 2013 2013 2013 2013 2013 2013 2013 2013 
2013 2013 2013 2013 2013 2013 2013 2013 2013 
2013 2013 2013 2013 2013 2013 2013 2013 2013 
2013 2013 2013 2013 2013 2013 2013 2013 2013 
2013 2013 2013 2013 2013 2013 2013 2013 2013 
2013 2013 2013 2013 2013 2013 2013 2013 2013 
2013 2013 2013 2013 2013 2013 2013 2013 2013 
2013 2013 2013 2013 2013 2013 2013 2013 2013 
2013 2013 2013 2013 2013 2013 2013 2013 2013 
2013 2013 2013 2013 2013 2013 2013 2013 2013 
2013 2013 2013 2013 2013 2013 2013 2013 2013 
2013 2013 2013 2013 2013 2013 2013 2013 2013 
2013 2013 2013 2013 2013 2013 2013 2013 2013 
2013 2013 2013 2013 2013 2013 2013 2013 2013 
2013 2013 2013 2013 2013 2013 2013 2013 2013 
2013 2013 2013 2013 2013 2013 2013 2013 2013 
2013 2013 2013 2013 2013 2013 2013 2013 2013 
2013 2013 2013 2013 2013 2013 2013 2013 2013 
2013 2013 2013 2013 2013 2013 2013 2013 2013 
2013 2013 2013 2013 2013 2013 2013 2013 2013 
2013 2013 2013 2013 2013 2013 2013 2013 2013 
2013 2013 2013 2013 2013 2013 2013 2013 2013 
2013 2013 2013 2013 2013 2013 2013 2013 2013 
2013 2013 2013 2013 2013 2013 2013 2013 2013 
2013 2013 2013 2013 2013 2013 2013 2013 2013 
2013 2013 2013 2013 2013 2013 2013 2013 2013 
2013 2013 2013 2013 2013 2013 2013 2013 2013 
2013 2013 2013 2013 2013 2013 2013 2013 2013 
2013 2013 2013 2013 2013 2013 2013 2013 2013 
2013 2013 2013 2013 2013 2013 2013 2013 2013 
2013 2013 2013 2013 2013 2013 2013 2013 2013 
2013 2013 2013 2013 2013 2013 2013 2013 2013 
2013 2013 2013 2013 2013 2013 2013 2013 2013 
2013 2013 2013 2013 2013 2013 2013 2013 2013 
2013 2013 2013 2013 2013 2013 2013 2013 2013 
2013 2013 2013 2013 2013 2013 2013 2013 2013 
2013 2013 2013 2013 2013 2013 2013 2013 2013 
2013 2013 2013 2013 2013 2013 2013 2013 2013 
2013 2013 2013 2013 2013 2013 2013 2013 2013 
2013 2013 2013 2013 2013 2013 2013 2013 2013 
2013 2013 2013 2013 2013 2013 2013 2013 2013 
2013 2013 2013 2013 2013 2013 2013 2013 2013 
2013 2013 2013 2013 2013 2013 2013 2013 2013 
2013 2013 2013 2013 2013 2013 2013 2013 2013 
2013 2013 2013 2013 2013 2013 2013 2013 2013 
2013 2013 2013 2013 2013 2013 2013 2013 2013 
2013 2013 2013 2013 2013 2013 2013 2013 2013 
2013 2013 2013 2013 2013 2013 2013 2013 2013 
2013 2013 2013 2013 2013 2013 2013 2013 2013 
2013 2013 2013 2013 2013 2013 2013 2013 2013 
2013 2013 2013 2013 2013 2013 2013 2013 2013 
2013 2013 2013 2013 2013 2013 2013 2013 2013 
2013 2013 2013 2013 2013 2013 2013 2013 2013 
2013 2013 2013 2013 2013 2013 2013 2013 2013 
2013 2013 2013 2013 2013 2013 2013 2013 2013 
2013 2013 2013 2013 2013 2013 2013 2013 2013 
2013 2013 2013 2013 2013 2013 2013 2013 2013 
2013 2013 2013 2013 2013 2013 2013 2013 2013 
2013 2013 2013 2013 2013 2013 2013 2013 2013 
2013 2013 2013 2013 2013 2013 2013 2013 2013 
2013 2013 2013 2013 2013 2013 2013 2013 2013 
2013 2013 2013 2013 2013 2013 2013 2013 2013 
2013 2013 2013 2013 2013 2013 2013 2013 2013 
2013 2013 2013 2013 2013 2013 2013 2013 2013 
2013 2013 2013 2013 2013 2013 2013 2013 2013 
2013 2013 2013 2013 2013 2013 2013 2013 2013 
2013 2013 2013 2013 2013 2013 2013 2013 2013 
2013 2013 2013 2013 2013 2013 2013 2013 2013 
2013 2013 2013 2013 2013 2013 2013 2013 2013 
2013 2013 2013 2013 2013 2013 2013 2013 2013 
2013 2013 2013 2013 2013 2013 2013 2013 2013 
2013 2013 2013 2013 2013 2013 2013 2013 2013 
2013 2013 2013 2013 2013 2013 2013 2013 2013 
2013 2013 2013 2013 2013 2013 2013 2013 2013 
2013 2013 2013 2013 2013 2013 2013 2013 2013 
2013 2013 2013 2013 2013 2013 2013 2013 2013 
2013 2013 2013 2013 2013 2013 2013 2013 2013 
2013 2013 2013 2013 2013 2013 2013 2013 2013 
2013 2013 2013 2013 2013 2013 2013 2013 2013 
2013 2013 2013 2013 2013 2013 2013 2013 2013 
2013 2013 2013 2013 2013 2013 2013 2013 2013 
2013 2013 2013 2013 2013 2013 2013 2013 2013 
2013 2013 2013 2013 2013 2013 2013 2013 2013 
2013 2013 2013 2013 2013 2013 2013 2013 2013 
2013 2013 2013 2013 2013 2013 2013 2013 2013 
2013 2013 2013 2013 2013 2013 2013 2013 2013 
2013 2013 2013 2013 2013 2013 2013 2013 2013 
2013 2013 2013 2013 2013 2013 2013 2013 2013 
2013 2013 2013 2013 2013 2013 2013 2013 2013 
2013 2013 2013 2013 2013 2013 2013 2013 2013 
2013 2013 2013 2013 2013 2013 2013 2013 2013 
2013 2013 2013 2013 2013 2013 2013 2013 2013 
2013 2013 2013 2013 2013 2013 2013 2013 2013 
2013 2013 2013 2013 2013 2013 2013 2013 2013 
2013 2013 2013 2013 2013 2013 2013 2013 2013 
2013 2013 2013 2013 2013 2013 2013 2013 2013 
2013 2013 2013 2013 2013 2013 2013 2013 2013 
2013 2013 2013 2013 2013 2013 2013 2013 2013 
2013 2013 2013 2013 2013 2013 2013 2013 2013 
2013 2013 2013 2013 2013 2013 2013 2013 2013 
2013 2013 2013 2013 2013 2013 2013 2013 2013 
2013 2013 2013 2013 2013 2013 2013 2013 2013 
2013 2013 2013 2013 2013 2013 2013 2013 2013 
2013 2013 2013 2013 2013 2013 2013 2013 2013 
2013 2013 2013 2013 2013 2013 2013 2013 2013 
2013 2013 2013 2013 2013 2013 2013 2013 2013 
2013 2013 2013 2013 2013 2013 2013 2013 2013 
2013 2013 2013 2013 2013 2013 2013 2013 2013 
2013 2013 2013 2013 2013 2013 2013 2013 2013 
2013 2013 2013 2013 2013 2013 2013 2013 2013 
2013 2013 2013 2013 2013 2013 2013 2013 2013 
2013 2013 2013 2013 2013 2013 2013 2013 2013 
2013 2013 2013 2013 2013 2013 2013 2013 2013 
2013 2013 2013 2013 2013 2013 2013 2013 2013 
2013 2013 2013 2013 2013 2013 2013 2013 2013 
2013 2013 2013 2013 2013 2013 2013 2013 2013 
2013 2013 2013 2013 2013 2013 2013 2013 2013 
2013 2013 2013 2013 2013 2013 2013 2013 2013 
2013 2013 2013 2013 2013 2013 2013 2013 2013 
2013 2013 2013 2013 2013 2013 2013 2013 2013 
2013 2013 2013 2013 2013 2013 2013 2013 2013 
2013 2013 2013 2013 2013 2013 2013 2013 2013 
2013 2013 2013 2013 2013 2013 2013 2013 2013 
2013 2013 2013 2013 2013 2013 2013 2013 2013 
2013 2013 2013 2013 2013 2013 2013 2013 2013 
2013 2013 2013 2013 2013 2013 2013 2013 2013 
2013 2013 2013 2013 2013 2013 2013 2013 2013 
2013 2013 2013 2013 2013 2013 2013 2013 2013 
2013 2013 2013 2013 2013 2013 2013 2013 2013 
2013 2013 2013 2013 2013 2013 2013 2013 2013 
2013 2013 2013 2013 2013 2013 2013 2013 2013 
2013 2013 2013 2013 2013 2013 2013 2013 2013 
2013 2013 2013 2013 2013 2013 2013 2013 2013 
2013 2013 2013 2013 2013 2013 2013 2013 2013 
2013 2013 2013 2013 2013 2013 2013 2013 2013 
2013 2013 2013 2013 2013 2013 2013 2013 2013 
2013 2013 2013 2013 2013 2013 2013 2013 2013 
2013 2013 2013 2013 2013 2013 2013 2013 2013 
2013 2013 2013 2013 2013 2013 2013 2013 2013 
2013 2013 2013 2013 2013 2013 2013 2013 2013 
2013 2013 2013 2013 2013 2013 2013 2013 2013 
2013 2013 2013 2013 2013 2013 2013 2013 2013 
2013 2013 2013 2013 2013 2013 2013 2013 2013 