# vtk DataFile Version 4.2
vtk output
ASCII
DATASET POLYDATA
POINTS 5914 float
48.9345 14.4903 43.7313 48.7647 14.7035 43.4542 48.2157 14.5453 43.273 
49.7061 14.4465 43.8212 49.4136 14.9243 43.3836 50.5082 14.3549 43.7458 
50.382 14.8945 43.547 51.1506 14.3986 43.2918 48.7761 14.1416 43.4646 
49.835 13.9164 43.4805 50.7417 13.9241 43.4067 50.9163 16.2581 42.8585 
50.6195 16.8645 42.43 50.1092 16.3365 42.5205 51.7417 16.2617 42.7905 
51.4286 16.956 42.5206 52.0605 16.6863 42.265 47.8161 15.186 42.8116 
47.6645 15.7041 42.4684 47.2414 15.2848 42.431 48.086 15.6184 42.4166 
50.0368 15.6197 42.9338 49.5258 15.8997 42.364 49.2474 15.3836 42.6333 
50.9658 15.2945 43.1841 51.8158 15.395 42.9449 52.2677 15.6701 42.3302 
47.5156 14.6664 42.8516 47.0858 14.4893 42.3795 48.5967 15.0955 42.8537 
51.7011 14.6953 43.05 52.5832 14.8924 42.5679 52.4481 14.4738 42.7693 
53.0044 14.3318 42.2063 47.7474 14.1136 42.605 48.7 13.7398 42.6561 
49.5925 13.4514 42.8757 49.0398 13.3315 42.3413 50.419 13.4209 42.96 
51.2118 13.6019 42.7938 51.998 13.9135 42.6443 52.7897 13.8947 42.3363 
49.8397 13.0759 42.2367 50.9177 13.0809 42.2252 49.8051 17.3496 41.7407 
49.6353 17.8132 41.4027 49.1132 17.3174 41.5265 50.8676 17.4116 41.9884 
50.6406 18.0005 41.3587 51.7808 17.3622 42.0168 51.5557 17.7779 41.5154 
52.0695 17.3553 41.4478 47.8244 16.156 41.9402 47.6166 16.7598 41.369 
47.1428 16.279 41.507 48.9089 16.6701 41.8026 48.3679 17.0195 41.4507 
49.7574 16.6186 42.103 52.2546 16.4773 41.4598 46.8705 15.6313 41.8237 
46.5498 15.8656 41.3662 46.2458 15.1115 41.4447 48.7927 15.8207 42.1804 
52.4487 15.6648 41.3285 46.6492 14.7788 41.9144 46.3284 14.3306 41.4137 
52.7624 14.949 41.8706 53.1317 14.6072 41.3136 46.9983 13.9806 41.6636 
48.0166 13.6955 41.4238 48.4478 13.485 41.8983 48.333 13.4712 41.461 
51.6985 13.3025 42.1633 52.4758 13.3959 41.9449 53.2553 13.7571 41.5006 
48.883 13.2238 41.7144 49.6787 13.0966 41.3553 50.5485 12.9081 41.6167 
51.7068 12.9012 41.4888 52.8408 13.0661 41.4431 44.8723 18.229 40.8254 
44.7337 18.8669 40.3386 44.0836 18.3755 40.6079 45.9578 18.3382 40.8297 
45.5087 18.8349 40.482 46.9639 18.3241 40.8329 46.389 18.9959 40.3352 
47.9651 18.3315 40.8673 47.4064 18.9776 40.5027 48.8597 18.4807 40.8469 
48.3965 18.9803 40.5257 49.8397 18.3763 40.9717 49.5723 18.9856 40.3954 
50.8511 18.4501 40.7979 50.666 18.7992 40.3319 51.3626 18.5842 40.2978 
42.7961 17.2988 40.8622 42.637 17.7674 40.2807 42.1222 17.2742 40.4037 
43.9268 17.542 40.9018 43.3192 18.0877 40.3676 44.8404 17.2966 40.9688 
45.6944 17.4706 40.9719 46.5751 17.6346 40.9799 47.6089 17.4727 41.0794 
48.7708 17.8006 41.1654 51.6075 18.0816 40.8009 52.1428 17.5353 40.3906 
41.9613 16.5509 40.8935 41.6468 16.7735 40.3535 41.3663 16.1642 40.4339 
42.8053 16.3444 41.0695 43.6662 16.4721 41.0118 44.6777 16.4678 40.9683 
45.522 16.6257 40.9674 46.6338 16.6659 41.1021 52.3979 16.5559 40.3996 
41.7433 15.5328 40.8319 41.3551 15.4483 40.2869 42.6279 15.4905 41.0627 
43.6694 15.4287 41.0377 44.6987 15.4375 40.9883 45.7443 15.7077 41.0634 
52.6366 15.8133 40.6245 52.799 15.2313 41.0963 53.0392 15.4655 40.3628 
41.762 14.9349 40.4979 42.117 14.5099 40.2508 42.4369 14.7096 40.8222 
43.5726 14.4441 40.9129 44.6893 14.4268 40.986 45.695 14.4995 41.0872 
53.3903 14.4583 40.3941 42.7903 13.9717 40.3566 43.8169 13.7614 40.6011 
44.3417 13.2681 40.4552 44.5563 13.6812 40.8009 45.4834 13.5509 40.8493 
46.5595 13.4155 40.9648 47.5557 13.2281 40.948 48.0255 13.2507 40.5158 
48.6648 13.8609 40.396 48.8511 13.5442 41.0456 49.4845 13.7902 40.414 
49.7697 13.4204 40.7491 50.198 13.3113 40.0967 53.7391 13.7837 40.6227 
53.6196 13.1058 40.974 54.0665 13.4364 40.2806 45.0842 12.9751 40.4734 
46.0348 12.8307 40.3263 46.8414 12.7368 40.4381 47.4201 12.5374 40.2553 
47.4609 12.5935 40.6596 47.9084 12.5793 40.5353 50.6896 12.8976 40.7972 
51.6179 12.5214 40.8164 51.2686 12.3007 40.3958 52.6361 12.5317 40.9923 
53.539 12.4565 40.7968 54.105 12.773 40.3501 47.7827 12.2447 40.4363 
52.0406 12.013 40.2931 53.0285 12.09 40.3722 53.8067 12.2247 40.2763 
43.9032 19.475 39.801 43.5678 19.825 39.21 43.231 19.1694 39.3926 
44.6301 19.3261 39.8802 44.586 19.7877 39.3793 45.2568 19.5754 39.3617 
46.9851 19.4889 39.918 46.6493 19.8147 39.121 46.2579 19.4266 39.6512 
47.9276 19.5136 40.0452 47.6987 19.8835 39.3412 48.9341 19.497 40.0209 
48.7171 19.9027 39.3623 49.7925 19.4457 39.8399 49.65 19.8179 39.3516 
50.3146 19.5905 39.33 43.8478 18.8367 40.1047 43.2598 18.5072 39.6117 
45.547 19.2287 39.8382 50.673 19.1794 39.6016 51.833 18.3479 40.0237 
51.4814 18.7991 39.6463 52.0569 18.3599 39.3446 42.8137 17.9869 39.3709 
42.3245 17.5062 39.6862 52.4083 17.6017 39.3561 41.4978 16.3382 39.8753 
41.9541 16.7241 39.4177 52.6509 16.8753 39.605 52.7524 16.2676 40.0495 
53.0317 16.5104 39.353 41.6716 15.9272 39.2757 41.3727 15.7055 39.7248 
53.2192 15.4385 39.4739 41.6164 14.9917 39.8108 41.9828 14.4187 39.3489 
48.0208 14.4357 39.7066 47.2953 14.1116 39.4537 47.6721 14.7962 39.4236 
48.5351 14.9997 39.3737 48.7305 14.3172 39.8212 49.2178 14.5178 39.3054 
53.3456 14.397 39.2061 41.9636 13.5127 39.8146 41.6634 13.7201 39.3144 
41.4843 13.4534 39.5251 42.8176 13.2083 40.1084 43.6445 13.272 40.2478 
47.7652 13.4959 39.9374 47.0857 13.4831 39.4674 49.5874 13.9511 39.7811 
50.0214 13.264 39.4527 53.7827 13.8853 39.8223 54.1278 13.1336 39.4312 
41.7332 13.0418 39.5953 42.1586 12.3957 39.1644 42.4361 12.6927 39.8152 
43.4296 12.5419 39.8987 44.4766 12.5654 39.9988 45.4346 12.3718 39.892 
46.0073 12.4356 39.6017 46.7048 12.8688 39.7114 47.8567 12.6022 40.2751 
50.802 12.3854 40.0986 50.2528 12.3344 39.5589 54.1862 12.3057 39.4742 
42.9911 11.9072 39.4771 44.0323 11.8296 39.3065 44.923 12.0157 39.4292 
45.5 12.1161 39.1667 50.8175 11.422 39.8662 50.2265 11.1547 39.514 
51.4967 11.5155 39.9763 52.2036 11.4385 39.6496 52.8363 11.7181 39.6185 
53.6734 11.8648 39.5471 50.7109 10.6289 39.758 50.3581 10.315 39.4282 
51.3398 10.5961 39.78 52.0897 10.7643 39.5053 51.008 9.99131 39.3241 
51.9086 10.1322 39.2362 32.7915 8.14674 39.8346 32.8449 8.76229 39.3166 
32.0778 8.56939 39.44 33.3332 8.57789 39.3753 31.9523 7.49078 39.9387 
31.4881 8.08215 39.4191 31.2952 7.37216 39.4348 32.6368 7.42659 40.1052 
33.7766 8.1369 39.3485 33.3258 7.39073 39.8225 34.0956 7.60229 39.3642 
31.7465 6.46604 39.8905 31.3662 6.67926 39.2973 32.7708 6.46399 39.9877 
33.4126 6.64453 39.6119 33.8514 7.08975 39.4276 31.8865 6.02777 39.3927 
32.3869 5.46273 39.4357 32.5686 5.46472 39.9154 33.5298 6.00079 39.5982 
33.4915 5.30843 39.8282 34.0125 5.48956 39.4212 32.7785 4.9289 39.6473 
33.202 4.55098 39.1676 33.3953 4.61346 39.757 34.1216 4.69501 39.4838 
33.9304 4.12928 39.2274 40.7201 0.482472 39.6738 40.4743 0.734741 39.3145 
40.4991 0.333635 39.5254 40.955 0.434826 39.2009 40.8578 0.0880956 39.4194 
38.6568 -1.5702 39.6383 38.6312 -1.36286 39.2772 38.4912 -1.62842 39.3356 
39.0927 -1.5605 39.2576 38.666 -1.75135 39.4766 42.7749 19.5587 38.9451 
42.8331 19.8684 38.3302 42.4351 19.4505 38.2787 43.7814 20.046 38.3707 
44.6484 20.0252 38.5183 45.8501 19.5796 39.2309 45.7448 19.9083 38.5955 
46.8511 20.0159 38.2593 47.6905 20.0176 38.4311 48.7369 20.0349 38.4601 
49.7411 20.0173 38.4924 50.9297 19.458 38.8777 50.496 19.8124 38.6542 
51.2097 19.4999 38.0959 42.7096 19.1434 38.5842 42.9624 18.5712 38.577 
51.7061 19.018 38.5747 52.3948 18.4444 38.4805 42.7386 17.951 38.1457 
42.3638 17.3741 38.7175 52.7026 17.9345 38.5689 52.788 17.3367 39.014 
53.0778 17.5621 38.3046 42.3075 16.7064 38.2479 45.9784 16.4107 38.7989 
45.2069 16.2003 38.4922 45.6354 16.8926 38.1602 46.7111 16.9466 38.3594 
46.9586 16.3953 38.8864 47.6919 16.8629 38.3505 47.96 16.2754 38.793 
48.3838 16.6365 38.3187 53.2137 16.4803 38.4751 41.685 15.3022 39.1963 
42.124 15.6462 38.639 45.8011 15.4904 38.8681 45.1703 15.1953 38.4686 
46.5116 15.7041 39.0488 47.5873 15.5046 39.1492 48.6535 16.1377 38.5674 
48.4992 15.6736 38.9534 49.0087 15.4862 38.5357 53.1813 15.4397 38.4927 
42.2859 14.6465 38.4236 45.8327 14.4393 38.808 45.229 14.1372 38.4043 
46.7254 14.7552 39.1248 48.7201 14.9681 38.1821 48.4489 14.2514 38.4864 
48.9511 14.4299 38.8355 53.1678 14.5987 38.3024 41.6452 13.2779 39.245 
42.1677 13.5319 38.5742 45.7543 13.5447 38.7368 45.2777 13.1108 38.3957 
46.489 13.6068 39.1195 48.851 13.4842 38.839 48.2915 13.4782 38.3698 
49.503 13.7043 39.1779 53.6914 13.6128 39.0533 53.3424 13.4823 38.2626 
42.1387 12.4952 38.3766 45.9161 12.7155 38.9802 45.2798 12.3398 38.5534 
48.821 12.4824 38.8137 48.1671 12.3643 38.3439 49.5838 12.7484 39.0966 
53.8438 13.0175 38.6152 54.1109 12.3404 38.5729 42.68 11.4475 39.001 
42.3526 11.6657 38.3906 43.3704 11.2684 38.9107 43.9905 11.355 38.5864 
44.6948 11.8289 38.6519 48.8401 11.4546 38.8372 48.2014 11.1859 38.4711 
49.5806 11.7193 39.1246 52.8476 11.0811 39.1858 53.6451 11.2696 38.9514 
54.1072 11.3932 38.4403 42.9355 11.099 38.5419 43.4988 11.0965 38.3539 
48.8558 10.4432 38.845 48.187 10.1882 38.4952 49.6855 10.5529 39.1163 
52.6629 10.4266 39.057 53.4691 10.5422 38.7412 54.0863 10.6527 38.4207 
31.8541 9.30722 38.8101 31.7562 9.7426 38.1527 31.391 9.25753 38.5187 
32.2869 9.63698 38.334 48.7506 9.33549 38.876 48.0223 9.384 38.5618 
49.5228 9.62465 38.9841 50.3375 9.45957 38.9249 51.0722 9.53649 38.6267 
51.8036 9.74574 38.6295 52.9338 9.92821 38.3959 53.8171 10.1589 38.2078 
31.5142 8.76429 39.0458 31.222 8.40665 38.6124 32.7008 9.14731 38.6487 
33.7553 8.5408 39.0068 33.4602 8.81731 38.7321 34.1312 8.44081 38.3474 
48.0644 8.497 38.8545 47.5303 8.91422 38.4106 47.2629 8.1372 38.4901 
48.8909 8.26552 39.0259 49.6836 8.5521 38.8732 50.3717 8.56279 38.5073 
50.8299 9.04608 38.3607 31.3225 7.55657 38.4614 34.7138 7.1651 38.9543 
34.5348 7.88244 38.7083 35.1532 7.49302 38.1798 47.8075 7.45065 38.9122 
47.1515 7.17212 38.5301 48.5402 7.59295 39.0593 49.3426 7.35944 38.8527 
50.1591 7.75861 38.4718 31.7833 6.95677 38.4113 31.6202 6.42709 39.0474 
32.1657 6.44176 38.5372 34.0435 6.36596 39.2222 34.8779 6.3242 39.0026 
[...]
CELL_DATA 11848
SCALARS scalars float
LOOKUP_TABLE default
1018 1018 1018 1018 1018 1018 1018 1018 1018 
1018 1018 1018 1018 1018 1018 1018 1018 1018 
1018 1018 1018 1018 1018 1018 1018 1018 1018 
1018 1018 1018 1018 1018 1018 1018 1018 1018 
1018 1018 1018 1018 1018 1018 1018 1018 1018 
1018 1018 1018 1018 1018 1018 1018 1018 1018 
1018 1018 1018 1018 1018 1018 1018 1018 1018 
1018 1018 1018 1018 1018 1018 1018 1018 1018 
1018 1018 1018 1018 1018 1018 1018 1018 1018 
1018 1018 1018 1018 1018 1018 1018 1018 1018 
1018 1018 1018 1018 1018 1018 1018 1018 1018 
1018 1018 1018 1018 1018 1018 1018 1018 1018 
1018 1018 1018 1018 1018 1018 1018 1018 1018 
1018 1018 1018 1018 1018 1018 1018 1018 1018 
1018 1018 1018 1018 1018 1018 1018 1018 1018 
1018 1018 1018 1018 1018 1018 1018 1018 1018 
1018 1018 1018 1018 1018 1018 1018 1018 1018 
1018 1018 1018 1018 1018 1018 1018 1018 1018 
1018 1018 1018 1018 1018 1018 1018 1018 1018 
1018 1018 1018 1018 1018 1018 1018 1018 1018 
1018 1018 1018 1018 1018 1018 1018 1018 1018 
1018 1018 1018 1018 1018 1018 1018 1018 1018 
1018 1018 1018 1018 1018 1018 1018 1018 1018 
1018 1018 1018 1018 1018 1018 1018 1018 1018 
1018 1018 1018 1018 1018 1018 1018 1018 1018 
1018 1018 1018 1018 1018 1018 1018 1018 1018 
1018 1018 1018 1018 1018 1018 1018 1018 1018 
1018 1018 1018 1018 1018 1018 1018 1018 1018 
1018 1018 1018 1018 1018 1018 1018 1018 1018 
1018 1018 1018 1018 1018 1018 1018 1018 1018 
1018 1018 1018 1018 1018 1018 1018 1018 1018 
1018 1018 1018 1018 1018 1018 1018 1018 1018 
1018 1018 1018 1018 1018 1018 1018 1018 1018 
1018 1018 1018 1018 1018 1018 1018 1018 1018 
1018 1018 1018 1018 1018 1018 1018 1018 1018 
1018 1018 1018 1018 1018 1018 1018 1018 1018 
1018 1018 1018 1018 1018 1018 1018 1018 1018 
1018 1018 1018 1018 1018 1018 1018 1018 1018 
1018 1018 1018 1018 1018 1018 1018 1018 1018 
1018 1018 1018 1018 1018 1018 1018 1018 1018 
1018 1018 1018 1018 1018 1018 1018 1018 1018 
1018 1018 1018 1018 1018 1018 1018 1018 1018 
1018 1018 1018 1018 1018 1018 1018 1018 1018 
1018 1018 1018 1018 1018 1018 1018 1018 1018 
1018 1018 1018 1018 1018 1018 1018 1018 1018 
1018 1018 1018 1018 1018 1018 1018 1018 1018 
1018 1018 1018 1018 1018 1018 1018 1018 1018 
1018 1018 1018 1018 1018 1018 1018 1018 1018 
1018 1018 1018 1018 1018 1018 1018 1018 1018 
1018 1018 1018 1018 1018 1018 1018 1018 1018 
1018 1018 1018 1018 1018 1018 1018 1018 1018 
1018 1018 1018 1018 1018 1018 1018 1018 1018 
1018 1018 1018 1018 1018 1018 1018 1018 1018 
1018 1018 1018 1018 1018 1018 1018 1018 1018 
1018 1018 1018 1018 1018 1018 1018 1018 1018 
1018 1018 1018 1018 1018 1018 1018 1018 1018 
1018 1018 1018 1018 1018 1018 1018 1018 1018 
1018 1018 1018 1018 1018 1018 1018 1018 1018 
1018 1018 1018 1018 1018 1018 1018 1018 1018 
1018 1018 1018 1018 1018 1018 1018 1018 1018 
1018 1018 1018 1018 1018 1018 1018 1018 1018 
1018 1018 1018 1018 1018 1018 1018 1018 1018 
1018 1018 1018 1018 1018 1018 1018 1018 1018 
1018 1018 1018 1018 1018 1018 1018 1018 1018 
1018 1018 1018 1018 1018 1018 1018 1018 1018 
1018 1018 1018 1018 1018 1018 1018 1018 1018 
1018 1018 1018 1018 1018 1018 1018 1018 1018 
1018 1018 1018 1018 1018 1018 1018 1018 1018 
1018 1018 1018 1018 1018 1018 1018 1018 1018 
1018 1018 1018 1018 1018 1018 1018 1018 1018 
1018 1018 1018 1018 1018 1018 1018 1018 1018 
1018 1018 1018 1018 1018 1018 1018 1018 1018 
1018 1018 1018 1018 1018 1018 1018 1018 1018 
1018 1018 1018 1018 1018 1018 1018 1018 1018 
1018 1018 1018 1018 1018 1018 1018 1018 1018 
1018 1018 1018 1018 1018 1018 1018 1018 1018 
1018 1018 1018 1018 1018 1018 1018 1018 1018 
1018 1018 1018 1018 1018 1018 1018 1018 1018 
1018 1018 1018 1018 1018 1018 1018 1018 1018 
1018 1018 1018 1018 1018 1018 1018 1018 1018 
1018 1018 1018 1018 1018 1018 1018 1018 1018 
1018 1018 1018 1018 1018 1018 1018 1018 1018 
1018 1018 1018 1018 1018 1018 1018 1018 1018 
1018 1018 1018 1018 1018 1018 1018 1018 1018 
1018 1018 1018 1018 1018 1018 1018 1018 1018 
1018 1018 1018 1018 1018 1018 1018 1018 1018 
1018 1018 1018 1018 1018 1018 1018 1018 1018 
1018 1018 1018 1018 1018 1018 1018 1018 1018 
1018 1018 1018 1018 1018 1018 1018 1018 1018 
1018 1018 1018 1018 1018 1018 1018 1018 1018 
1018 1018 1018 1018 1018 1018 1018 1018 1018 
1018 1018 1018 1018 1018 1018 1018 1018 1018 
1018 1018 1018 1018 1018 1018 1018 1018 1018 
1018 1018 1018 1018 1018 1018 1018 1018 1018 
1018 1018 1018 1018 1018 1018 1018 1018 1018 
1018 1018 1018 1018 1018 1018 1018 1018 1018 
1018 1018 1018 1018 1018 1018 1018 1018 1018 
1018 1018 1018 1018 1018 1018 1018 1018 1018 
1018 1018 1018 1018 1018 1018 1018 1018 1018 
1018 1018 1018 1018 1018 1018 1018 1018 1018 
1018 1018 1018 1018 1018 1018 1018 1018 1018 
1018 1018 1018 1018 1018 1018 1018 1018 1018 
1018 1018 1018 1018 1018 1018 1018 1018 1018 
1018 1018 1018 1018 1018 1018 1018 1018 1018 
1018 1018 1018 1018 1018 1018 1018 1018 1018 
1018 1018 1018 1018 1018 1018 1018 1018 1018 
1018 1018 1018 1018 1018 1018 1018 1018 1018 
1018 1018 1018 1018 1018 1018 1018 1018 1018 
1018 1018 1018 1018 1018 1018 1018 1018 1018 
1018 1018 1018 1018 1018 1018 1018 1018 1018 
1018 1018 1018 1018 1018 1018 1018 1018 1018 
1018 1018 1018 1018 1018 1018 1018 1018 1018 
1018 1018 1018 1018 1018 1018 1018 1018 1018 
1018 1018 1018 1018 1018 1018 1018 1018 1018 
1018 1018 1018 1018 1018 1018 1018 1018 1018 
1018 1018 1018 1018 1018 1018 1018 1018 1018 
1018 1018 1018 1018 1018 1018 1018 1018 1018 
1018 1018 1018 1018 1018 1018 1018 1018 1018 
1018 1018 1018 1018 1018 1018 1018 1018 1018 
1018 1018 1018 1018 1018 1018 1018 1018 1018 
1018 1018 1018 1018 1018 1018 1018 1018 1018 
1018 1018 1018 1018 1018 1018 1018 1018 1018 
1018 1018 1018 1018 1018 1018 1018 1018 1018 
1018 1018 1018 1018 1018 1018 1018 1018 1018 
1018 1018 1018 1018 1018 1018 1018 1018 1018 
1018 1018 1018 1018 1018 1018 1018 1018 1018 
1018 1018 1018 1018 1018 1018 1018 1018 1018 
1018 1018 1018 1018 1018 1018 1018 1018 1018 
1018 1018 1018 1018 1018 1018 1018 1018 1018 
1018 1018 1018 1018 1018 1018 1018 1018 1018 
1018 1018 1018 1018 1018 1018 1018 1018 1018 
1018 1018 1018 1018 1018 1018 1018 1018 1018 
1018 1018 1018 1018 1018 1018 1018 1018 1018 
1018 1018 1018 1018 1018 1018 1018 1018 1018 
1018 1018 1018 1018 1018 1018 1018 1018 1018 
1018 1018 1018 1018 1018 1018 1018 1018 1018 
1018 1018 1018 1018 1018 1018 1018 1018 1018 
1018 1018 1018 1018 1018 1018 1018 1018 1018 
1018 1018 1018 1018 1018 1018 1018 1018 1018 
1018 1018 1018 1018 1018 1018 1018 1018 1018 
1018 1018 1018 1018 1018 1018 1018 1018 1018 
1018 1018 1018 1018 1018 1018 1018 1018 1018 
1018 1018 1018 1018 1018 1018 1018 1018 1018 
1018 1018 1018 1018 1018 1018 1018 1018 1018 
1018 1018 1018 1018 1018 1018 1018 1018 1018 
1018 1018 1018 1018 1018 1018 1018 1018 1018 
1018 1018 1018 1018 1018 1018 1018 1018 1018 
1018 1018 1018 1018 1018 1018 1018 1018 1018 
1018 1018 1018 1018 1018 1018 1018 1018 1018 
1018 1018 1018 1018 1018 1018 1018 1018 1018 
1018 1018 1018 1018 1018 1018 1018 1018 1018 
1018 1018 1018 1018 1018 1018 1018 1018 1018 
1018 1018 1018 1018 1018 1018 1018 1018 1018 
1018 1018 1018 1018 1018 1018 1018 1018 1018 
1018 1018 1018 1018 1018 1018 1018 1018 1018 
1018 1018 1018 1018 1018 1018 1018 1018 1018 
1018 1018 1018 1018 1018 1018 1018 1018 1018 
1018 1018 1018 1018 1018 1018 1018 1018 1018 
1018 1018 1018 1018 1018 1018 1018 1018 1018 
1018 1018 1018 1018 1018 1018 1018 1018 1018 
1018 1018 1018 1018 1018 1018 1018 1018 1018 
1018 1018 1018 1018 1018 1018 1018 1018 1018 
1018 1018 1018 1018 1018 1018 1018 1018 1018 
1018 1018 1018 1018 1018 1018 1018 1018 1018 
1018 1018 1018 1018 1018 1018 1018 1018 1018 
1018 1018 1018 1018 1018 1018 1018 1018 1018 
1018 1018 1018 1018 1018 1018 1018 1018 1018 
1018 1018 1018 1018 1018 1018 1018 1018 1018 
1018 1018 1018 1018 1018 1018 1018 1018 1018 
1018 1018 1018 1018 1018 1018 1018 1018 1018 
1018 1018 1018 1018 1018 1018 1018 1018 1018 
1018 1018 1018 1018 1018 1018 1018 1018 1018 
1018 1018 1018 1018 1018 1018 1018 1018 1018 
1018 1018 1018 1018 1018 1018 1018 1018 1018 
1018 1018 1018 1018 1018 1018 1018 1018 1018 
1018 1018 1018 1018 1018 1018 1018 1018 1018 
1018 1018 1018 1018 1018 1018 1018 1018 1018 
1018 1018 1018 1018 1018 1018 1018 1018 1018 
1018 1018 1018 1018 1018 1018 1018 1018 1018 
1018 1018 1018 1018 1018 1018 1018 1018 1018 
1018 1018 1018 1018 1018 1018 1018 1018 1018 
1018 1018 1018 1018 1018 1018 1018 1018 1018 
1018 1018 1018 1018 1018 1018 1018 1018 1018 
1018 1018 1018 1018 1018 1018 1018 1018 1018 
1018 1018 1018 1018 1018 1018 1018 1018 1018 
1018 1018 1018 1018 1018 1018 1018 1018 1018 
1018 1018 1018 1018 1018 1018 1018 1018 1018 
1018 1018 1018 1018 1018 1018 1018 1018 1018 
1018 1018 1018 1018 1018 1018 1018 1018 1018 
1018 1018 1018 1018 1018 1018 1018 1018 1018 
1018 1018 1018 1018 1018 1018 1018 1018 1018 
1018 1018 1018 1018 1018 1018 1018 1018 1018 
1018 1018 1018 1018 1018 1018 1018 1018 1018 
1018 1018 1018 1018 1018 1018 1018 1018 1018 
1018 1018 1018 1018 1018 1018 1018 1018 1018 
1018 1018 1018 1018 1018 1018 1018 1018 1018 
1018 1018 1018 1018 1018 1018 1018 1018 1018 
1018 1018 1018 1018 1018 1018 1018 1018 1018 
1018 1018 1018 1018 1018 1018 1018 1018 1018 
1018 1018 1018 1018 1018 1018 1018 1018 1018 
1018 1018 1018 1018 1018 1018 1018 1018 1018 
1018 1018 1018 1018 1018 1018 1018 1018 1018 
1018 1018 1018 1018 1018 1018 1018 1018 1018 
1018 1018 1018 1018 1018 1018 1018 1018 1018 
1018 1018 1018 1018 1018 1018 1018 1018 1018 
1018 1018 1018 1018 1018 1018 1018 1018 1018 
1018 1018 1018 1018 1018 1018 1018 1018 1018 
1018 1018 1018 1018 1018 1018 1018 1018 1018 
1018 1018 1018 1018 1018 1018 1018 1018 1018 
1018 1018 1018 1018 1018 1018 1018 1018 1018 
1018 1018 1018 1018 1018 1018 1018 1018 1018 
1018 1018 1018 1018 1018 1018 1018 1018 1018 
1018 1018 1018 1018 1018 1018 1018 1018 1018 
1018 1018 1018 1018 1018 1018 1018 1018 1018 
1018 1018 1018 1018 1018 1018 1018 1018 1018 
1018 1018 1018 1018 1018 1018 1018 1018 1018 
1018 1018 1018 1018 1018 1018 1018 1018 1018 
1018 1018 1018 1018 1018 1018 1018 1018 1018 
1018 1018 1018 1018 1018 1018 1018 1018 1018 
1018 1018 1018 1018 1018 1018 1018 1018 1018 
1018 1018 1018 1018 1018 1018 1018 1018 1018 
1018 1018 1018 1018 1018 1018 1018 1018 1018 
1018 1018 1018 1018 1018 1018 1018 1018 1018 
1018 1018 1018 1018 1018 1018 1018 1018 1018 
1018 1018 1018 1018 1018 1018 1018 1018 1018 
1018 1018 1018 1018 1018 1018 1018 1018 1018 
1018 1018 1018 1018 1018 1018 1018 1018 1018 
1018 1018 1018 1018 1018 1018 1018 1018 1018 
1018 1018 1018 1018 1018 1018 1018 1018 1018 
1018 1018 1018 1018 1018 1018 1018 1018 1018 
1018 1018 1018 1018 1018 1018 1018 1018 1018 
1018 1018 1018 1018 1018 1018 1018 1018 1018 
1018 1018 1018 1018 1018 1018 1018 1018 1018 
1018 1018 1018 1018 1018 1018 1018 1018 1018 
1018 1018 1018 1018 1018 1018 1018 1018 1018 
1018 1018 1018 1018 1018 1018 1018 1018 1018 
1018 1018 1018 1018 1018 1018 1018 1018 1018 
1018 1018 1018 1018 1018 1018 1018 1018 1018 
1018 1018 1018 1018 1018 1018 1018 1018 1018 
1018 1018 1018 1018 1018 1018 1018 1018 1018 
1018 1018 1018 1018 1018 1018 1018 1018 1018 
1018 1018 1018 1018 1018 1018 1018 1018 1018 
1018 1018 1018 1018 1018 1018 1018 1018 1018 
1018 1018 1018 1018 1018 1018 1018 1018 1018 
1018 1018 1018 1018 1018 1018 1018 1018 1018 
1018 1018 1018 1018 1018 1018 1018 1018 1018 
1018 1018 1018 1018 1018 1018 1018 1018 1018 
1018 1018 1018 1018 1018 1018 1018 1018 1018 
1018 1018 1018 1018 1018 1018 1018 1018 1018 
1018 1018 1018 1018 1018 1018 1018 1018 1018 
1018 1018 1018 1018 1018 1018 1018 1018 1018 
1018 1018 1018 1018 1018 1018 1018 1018 1018 
1018 1018 1018 1018 1018 1018 1018 1018 1018 
1018 1018 1018 1018 1018 1018 1018 1018 1018 
1018 1018 1018 1018 1018 1018 1018 1018 1018 
1018 1018 1018 1018 1018 1018 1018 1018 1018 
1018 1018 1018 1018 1018 1018 1018 1018 1018 
1018 1018 1018 1018 1018 1018 1018 1018 1018 
1018 1018 1018 1018 1018 1018 1018 1018 1018 
1018 1018 1018 1018 1018 1018 1018 1018 1018 
1018 1018 1018 1018 1018 1018 1018 1018 1018 
1018 1018 1018 1018 1018 1018 1018 1018 1018 
1018 1018 1018 1018 1018 1018 1018 1018 1018 
1018 1018 1018 1018 1018 1018 1018 1018 1018 
1018 1018 1018 1018 1018 1018 1018 1018 1018 
1018 1018 1018 1018 1018 1018 1018 1018 1018 
1018 1018 1018 1018 1018 1018 1018 1018 1018 
1018 1018 1018 1018 1018 1018 1018 1018 1018 
1018 1018 1018 1018 1018 1018 1018 1018 1018 
1018 1018 1018 1018 1018 1018 1018 1018 1018 
1018 1018 1018 1018 1018 1018 1018 1018 1018 
1018 1018 1018 1018 1018 1018 1018 1018 1018 
1018 1018 1018 1018 1018 1018 1018 1018 1018 
1018 1018 1018 1018 1018 1018 1018 1018 1018 
1018 1018 1018 1018 1018 1018 1018 1018 1018 
1018 1018 1018 1018 1018 1018 1018 1018 1018 
1018 1018 1018 1018 1018 1018 1018 1018 1018 
1018 1018 1018 1018 1018 1018 1018 1018 1018 
1018 1018 1018 1018 1018 1018 1018 1018 1018 
1018 1018 1018 1018 1018 1018 1018 1018 1018 
1018 1018 1018 1018 1018 1018 1018 1018 1018 
1018 1018 1018 1018 1018 1018 1018 1018 1018 
1018 1018 1018 1018 1018 1018 1018 1018 1018 
1018 1018 1018 1018 1018 1018 1018 1018 1018 
1018 1018 1018 1018 1018 1018 1018 1018 1018 
1018 1018 1018 1018 1018 1018 1018 1018 1018 
1018 1018 1018 1018 1018 1018 1018 1018 1018 
1018 1018 1018 1018 1018 1018 1018 1018 1018 
1018 1018 1018 1018 1018 1018 1018 1018 1018 
1018 1018 1018 1018 1018 1018 1018 1018 1018 
1018 1018 1018 1018 1018 1018 1018 1018 1018 
1018 1018 1018 1018 1018 1018 1018 1018 1018 
1018 1018 1018 1018 1018 1018 1018 1018 1018 
1018 1018 1018 1018 1018 1018 1018 1018 1018 
1018 1018 1018 1018 1018 1018 1018 1018 1018 
1018 1018 1018 1018 1018 1018 1018 1018 1018 
1018 1018 1018 1018 1018 1018 1018 1018 1018 
1018 1018 1018 1018 1018 1018 1018 1018 1018 
1018 1018 1018 1018 1018 1018 1018 1018 1018 
1018 1018 1018 1018 1018 1018 1018 1018 1018 
1018 1018 1018 1018 1018 1018 1018 1018 1018 
1018 1018 1018 1018 1018 1018 1018 1018 1018 
1018 1018 1018 1018 1018 1018 1018 1018 1018 
1018 1018 1018 1018 1018 1018 1018 1018 1018 
1018 1018 1018 1018 1018 1018 1018 1018 1018 
1018 1018 1018 1018 1018 1018 1018 1018 1018 
1018 1018 1018 1018 1018 1018 1018 1018 1018 
1018 1018 1018 1018 1018 1018 1018 1018 1018 
1018 1018 1018 1018 1018 1018 1018 1018 1018 
1018 1018 1018 1018 1018 1018 1018 1018 1018 
1018 1018 1018 1018 1018 1018 1018 1018 1018 
1018 1018 1018 1018 1018 1018 1018 1018 1018 
1018 1018 1018 1018 1018 1018 1018 1018 1018 
1018 1018 1018 1018 1018 1018 1018 1018 1018 
1018 1018 1018 1018 1018 1018 1018 1018 1018 
1018 1018 1018 1018 1018 1018 1018 1018 1018 
1018 1018 1018 1018 1018 1018 1018 1018 1018 
1018 1018 1018 1018 1018 1018 1018 1018 1018 
1018 1018 1018 1018 1018 1018 1018 1018 1018 
1018 1018 1018 1018 1018 1018 1018 1018 1018 
1018 1018 1018 1018 1018 1018 1018 1018 1018 
1018 1018 1018 1018 1018 1018 1018 1018 1018 
1018 1018 1018 1018 1018 1018 1018 1018 1018 
1018 1018 1018 1018 1018 1018 1018 1018 1018 
1018 1018 1018 1018 1018 1018 1018 1018 1018 
1018 1018 1018 1018 1018 1018 1018 1018 1018 
1018 1018 1018 1018 1018 1018 1018 1018 1018 
1018 1018 1018 1018 1018 1018 1018 1018 1018 
1018 1018 1018 1018 1018 1018 1018 1018 1018 
1018 1018 1018 1018 1018 1018 1018 1018 1018 
1018 1018 1018 1018 1018 1018 1018 1018 1018 
1018 1018 1018 1018 1018 1018 1018 1018 1018 
1018 1018 1018 1018 1018 1018 1018 1018 1018 
1018 1018 1018 1018 1018 1018 1018 1018 1018 
1018 1018 1018 1018 1018 1018 1018 1018 1018 
1018 1018 1018 1018 1018 1018 1018 1018 1018 
1018 1018 1018 1018 1018 1018 1018 1018 1018 
1018 1018 1018 1018 1018 1018 1018 1018 1018 
1018 1018 1018 1018 1018 1018 1018 1018 1018 
1018 1018 1018 1018 1018 1018 1018 1018 1018 
1018 1018 1018 1018 1018 1018 1018 1018 1018 
1018 1018 1018 1018 1018 1018 1018 1018 1018 
1018 1018 1018 1018 1018 1018 1018 1018 1018 
1018 1018 1018 1018 1018 1018 1018 1018 1018 
1018 1018 1018 1018 1018 1018 1018 1018 1018 
1018 1018 1018 1018 1018 1018 1018 1018 1018 
1018 1018 1018 1018 1018 1018 1018 1018 1018 
1018 1018 1018 1018 1018 1018 1018 1018 1018 
1018 1018 1018 1018 1018 1018 1018 1018 1018 
1018 1018 1018 1018 1018 1018 1018 1018 1018 
1018 1018 1018 1018 1018 1018 1018 1018 1018 
1018 1018 1018 1018 1018 1018 1018 1018 1018 
1018 1018 1018 1018 1018 1018 1018 1018 1018 
1018 1018 1018 1018 1018 1018 1018 1018 1018 
1018 1018 1018 1018 1018 1018 1018 1018 1018 
1018 1018 1018 1018 1018 1018 1018 1018 1018 
1018 1018 1018 1018 1018 1018 1018 1018 1018 
1018 1018 1018 1018 1018 1018 1018 1018 1018 
1018 1018 1018 1018 1018 1018 1018 1018 1018 
1018 1018 1018 1018 1018 1018 1018 1018 1018 
1018 1018 1018 1018 1018 1018 1018 1018 1018 
1018 1018 1018 1018 1018 1018 1018 1018 1018 
1018 1018 1018 1018 1018 1018 1018 1018 1018 
1018 1018 1018 1018 1018 1018 1018 1018 1018 
1018 1018 1018 1018 1018 1018 1018 1018 1018 
1018 1018 1018 1018 1018 1018 1018 1018 1018 
1018 1018 1018 1018 1018 1018 1018 1018 1018 
1018 1018 1018 1018 1018 1018 1018 1018 1018 
1018 1018 1018 1018 1018 1018 1018 1018 1018 
1018 1018 1018 1018 1018 1018 1018 1018 1018 
1018 1018 1018 1018 1018 1018 1018 1018 1018 
1018 1018 1018 1018 1018 1018 1018 1018 1018 
1018 1018 1018 1018 1018 1018 1018 1018 1018 
1018 1018 1018 1018 1018 1018 1018 1018 1018 
1018 1018 1018 1018 1018 1018 1018 1018 1018 
1018 1018 1018 1018 1018 1018 1018 1018 1018 
1018 1018 1018 1018 1018 1018 1018 1018 1018 
1018 1018 1018 1018 1018 1018 1018 1018 1018 
1018 1018 1018 1018 1018 1018 1018 1018 1018 
1018 1018 1018 1018 1018 1018 1018 1018 1018 
1018 1018 1018 1018 1018 1018 1018 1018 1018 
1018 1018 1018 1018 1018 1018 1018 1018 1018 
1018 1018 1018 1018 1018 1018 1018 1018 1018 
1018 1018 1018 1018 1018 1018 1018 1018 1018 
1018 1018 1018 1018 1018 1018 1018 1018 1018 
1018 1018 1018 1018 1018 1018 1018 1018 1018 
1018 1018 1018 1018 1018 1018 1018 1018 1018 
1018 1018 1018 1018 1018 1018 1018 1018 1018 
1018 1018 1018 1018 1018 1018 1018 1018 1018 
1018 1018 1018 1018 1018 1018 1018 1018 1018 
1018 1018 1018 1018 1018 1018 1018 1018 1018 
1018 1018 1018 1018 1018 1018 1018 1018 1018 
1018 1018 1018 1018 1018 1018 1018 1018 1018 
1018 1018 1018 1018 1018 1018 1018 1018 1018 
1018 1018 1018 1018 1018 1018 1018 1018 1018 
1018 1018 1018 1018 1018 1018 1018 1018 1018 
1018 1018 1018 1018 1018 1018 1018 1018 1018 
1018 1018 1018 1018 1018 1018 1018 1018 1018 
1018 1018 1018 1018 1018 1018 1018 1018 1018 
1018 1018 1018 1018 1018 1018 1018 1018 1018 
1018 1018 1018 1018 1018 1018 1018 1018 1018 
1018 1018 1018 1018 1018 1018 1018 1018 1018 
1018 1018 1018 1018 1018 1018 1018 1018 1018 
1018 1018 1018 1018 1018 1018 1018 1018 1018 
1018 1018 1018 1018 1018 1018 1018 1018 1018 
1018 1018 1018 1018 1018 1018 1018 1018 1018 
1018 1018 1018 1018 1018 1018 1018 1018 1018 
1018 1018 1018 1018 1018 1018 1018 1018 1018 
1018 1018 1018 1018 1018 1018 1018 1018 1018 
1018 1018 1018 1018 1018 1018 1018 1018 1018 
1018 1018 1018 1018 1018 1018 1018 1018 1018 
1018 1018 1018 1018 1018 1018 1018 1018 1018 
1018 1018 1018 1018 1018 1018 1018 1018 1018 
1018 1018 1018 1018 1018 1018 1018 1018 1018 
1018 1018 1018 1018 1018 1018 1018 1018 1018 
1018 1018 1018 1018 1018 1018 1018 1018 1018 
1018 1018 1018 1018 1018 1018 1018 1018 1018 
1018 1018 1018 1018 1018 1018 1018 1018 1018 
1018 1018 1018 1018 1018 1018 1018 1018 1018 
1018 1018 1018 1018 1018 1018 1018 1018 1018 
1018 1018 1018 1018 1018 1018 1018 1018 1018 
1018 1018 1018 1018 1018 1018 1018 1018 1018 
1018 1018 1018 1018 1018 1018 1018 1018 1018 
1018 1018 1018 1018 1018 1018 1018 1018 1018 
1018 1018 1018 1018 1018 1018 1018 1018 1018 
1018 1018 1018 1018 1018 1018 1018 1018 1018 
1018 1018 1018 1018 1018 1018 1018 1018 1018 
1018 1018 1018 1018 1018 1018 1018 1018 1018 
1018 1018 1018 1018 1018 1018 1018 1018 1018 
1018 1018 1018 1018 1018 1018 1018 1018 1018 
1018 1018 1018 1018 1018 1018 1018 1018 1018 
1018 1018 1018 1018 1018 1018 1018 1018 1018 
1018 1018 1018 1018 1018 1018 1018 1018 1018 