# vtk DataFile Version 4.2
vtk output
ASCII
DATASET POLYDATA
POINTS 5366 float
42.0211 68.8333 -6.59028 42.1352 68.3527 -6.12697 42.6643 68.3614 -6.43232 
41.2072 68.9314 -6.77095 41.416 68.4461 -6.22279 40.7478 68.4283 -6.45677 
42.011 68.3641 -7.16929 41.65 68.6394 -7.52094 41.5711 68.9474 -7.27183 
40.2563 68.5284 -6.8975 40.4813 68.9025 -7.41884 39.3223 68.8432 -7.55599 
39.308 68.4564 -7.17627 38.5168 68.7776 -7.58066 38.3276 68.4485 -7.25263 
37.8224 68.4116 -7.43142 41.0392 68.5605 -7.75295 40.0276 68.471 -7.9104 
38.9978 68.4612 -7.91855 38.0495 68.3123 -7.79548 46.0278 67.859 -5.5791 
46.2981 67.5669 -5.0427 46.7306 67.4847 -5.62135 45.0619 67.9183 -5.58722 
45.6248 67.5643 -4.92328 44.0302 67.9066 -5.64065 44.4561 67.4313 -4.95004 
43.1943 67.9144 -5.75403 43.4108 67.3772 -5.19104 42.7459 67.3622 -5.42637 
46.2055 67.9227 -6.51798 46.86 67.5529 -6.77894 45.2994 68.0684 -6.49838 
44.2935 68.0814 -6.50766 43.3923 68.1289 -6.50903 42.4554 67.8118 -5.83747 
41.4534 67.548 -5.8824 40.1193 67.944 -6.57885 40.4612 67.5805 -6.17542 
39.6917 67.2985 -6.48881 46.3292 67.8882 -7.41425 46.8123 67.5517 -7.83176 
45.4339 67.9606 -7.65938 44.4917 68.0604 -7.36516 43.5894 67.9507 -7.58968 
42.6483 67.9791 -7.37303 41.9238 67.3431 -7.61604 41.4577 67.3514 -7.26145 
41.3131 68.0312 -7.51953 40.9789 67.1877 -7.42897 39.2985 67.6068 -6.87241 
38.2414 67.53 -7.04368 37.3545 67.9688 -7.54384 37.213 67.5418 -7.2296 
36.8836 67.555 -7.53615 46.2295 67.7753 -8.23606 46.6991 67.5224 -8.4865 
45.7071 67.6503 -8.42819 45.1219 67.6512 -8.33912 44.7751 67.3167 -8.75004 
44.3895 67.7883 -8.20789 43.6869 67.5974 -8.41085 42.977 67.5481 -8.16079 
42.3989 67.4952 -7.95357 40.4886 67.5074 -8.04456 39.2899 67.6972 -8.22697 
38.2423 67.6972 -8.18244 37.2813 67.6242 -7.89119 46.4213 67.3117 -8.82578 
44.0147 67.238 -8.76703 46.2602 67.0566 -4.62492 46.3909 66.1976 -4.1247 
46.9323 66.6227 -4.59949 45.082 67.0489 -4.44788 45.2954 66.4061 -4.07384 
44.2409 66.8723 -4.52646 44.3503 66.3887 -4.16069 43.7117 66.3732 -4.39381 
47.1453 66.8985 -5.24228 47.342 66.5472 -4.97053 47.7197 66.4581 -5.64567 
43.5255 66.7862 -4.77222 41.9743 67.0505 -5.50854 42.4537 66.5453 -5.00658 
41.1837 66.7756 -5.60044 41.374 66.3175 -5.24163 40.6969 66.2711 -5.45472 
47.3524 67.0143 -6.23463 47.8556 66.5067 -6.80006 40.4995 66.7387 -5.8074 
39.1289 66.8374 -6.62317 39.6104 66.6121 -6.10263 38.8567 66.349 -6.39754 
47.3526 67.0324 -7.3266 47.8289 66.497 -7.8257 41.4302 66.6234 -7.39274 
41.1568 66.6052 -7.27641 40.9856 66.6564 -7.68179 38.4591 66.7111 -6.82403 
37.5036 66.6241 -6.86795 36.5475 66.556 -7.0298 36.3294 67.0499 -7.8232 
35.7805 66.1731 -7.35621 47.2096 67.0227 -8.37261 47.7169 66.5006 -8.48753 
45.5605 67.3042 -8.83962 43.3344 67.1732 -8.64769 42.3405 66.9653 -8.39641 
41.4729 66.6034 -7.8432 41.2535 66.7753 -8.41626 40.4503 66.8808 -8.65579 
39.5568 66.9975 -8.60952 38.5534 67.0097 -8.59991 37.3852 67.0362 -8.46116 
36.404 66.8999 -8.60586 35.3961 66.5447 -8.05243 35.5462 66.8093 -8.54823 
34.8278 66.3515 -8.38613 47.3151 66.4975 -9.06352 46.2426 66.8827 -9.3797 
46.7231 66.4517 -9.75287 45.2784 66.8375 -9.36705 44.2944 66.658 -9.20358 
44.7853 66.5142 -9.5185 43.1527 66.4434 -9.01359 41.9937 66.3064 -8.89769 
41.0078 66.3025 -8.94326 40.0219 66.3411 -8.97 39.1226 66.4524 -8.92638 
38.3402 66.3319 -8.84836 37.1613 66.4204 -8.84365 35.9727 66.4241 -8.99723 
34.9958 66.2693 -8.93934 45.9583 66.4979 -9.95878 45.1894 66.4213 -9.85614 
47.4199 66.1544 -4.65838 47.2911 65.3205 -4.09457 47.9654 65.617 -4.59404 
46.137 65.331 -3.93456 45.278 65.5133 -3.92236 44.2909 65.5326 -3.95513 
42.9653 66.0758 -4.48945 43.3336 65.5613 -4.09186 42.2233 65.8115 -4.57652 
42.3571 65.3501 -4.19608 41.7285 65.3161 -4.41307 48.1549 65.8775 -5.28216 
48.434 65.356 -4.87523 48.6537 65.363 -5.56058 41.5338 65.7403 -4.81078 
39.9731 66.0384 -5.50685 40.5815 65.6469 -5.00142 39.0009 65.9368 -5.71449 
39.4231 65.3772 -4.99554 38.0612 65.7484 -5.77638 38.4133 65.3499 -5.22885 
37.7444 65.3029 -5.46645 48.3206 65.9883 -6.26781 48.8623 65.4015 -6.65245 
38.1907 66.1385 -6.38502 37.2078 65.4113 -5.87655 37.1538 65.9716 -6.41022 
36.268 65.9712 -6.68954 36.5115 65.5219 -6.25394 35.8368 65.4589 -6.55651 
48.3526 66.0006 -7.33534 48.8582 65.5146 -7.81004 41.2152 66.2936 -7.45976 
35.523 65.5011 -7.28021 34.2988 65.7527 -7.85637 34.2273 65.4468 -7.38982 
34.4904 65.4742 -7.48451 34.034 65.386 -7.74302 48.226 65.9918 -8.35255 
48.749 65.4969 -8.45258 37.9779 65.95 -8.58361 38.7304 65.6685 -8.63883 
38.2563 65.3452 -8.166 37.4135 65.3859 -8.23987 37.2514 65.8718 -8.63165 
36.7761 65.3268 -8.49579 34.9375 65.4973 -7.85205 34.3343 65.9997 -8.5825 
34.0194 65.5404 -8.31654 48.3329 65.5087 -9.04809 47.3391 66.0152 -9.72897 
47.8795 65.501 -9.86754 44.5171 66.2107 -9.79441 43.6408 65.9315 -9.67953 
42.8864 65.6513 -9.4219 42.2432 65.6177 -9.25423 41.2269 65.407 -9.18705 
40.4257 65.6273 -9.09169 39.4486 65.6638 -8.95404 36.3454 65.638 -8.92724 
35.3858 65.6804 -9.14367 34.5485 65.3743 -8.87245 47.3187 65.7796 -10.3187 
47.6764 65.4973 -10.4224 46.5734 66.0204 -10.3892 45.3673 66.0279 -10.4208 
44.3472 65.7996 -10.4151 43.6624 65.3307 -10.5695 43.1301 65.4219 -9.91481 
47.2498 65.3681 -10.9243 46.0289 65.5536 -11.075 45.0022 65.5203 -11.0604 
44.2783 65.3723 -11.0306 48.2165 65.1031 -4.3748 48.0807 64.3265 -4.12993 
48.6612 64.7275 -4.74105 47.1477 64.3201 -3.93883 46.2911 64.4805 -3.93341 
45.2625 64.518 -3.94635 44.4009 64.6803 -3.9581 43.3166 64.3717 -4.08158 
42.3145 64.4988 -3.98219 40.9836 65.0797 -4.47195 41.3623 64.5419 -4.08731 
40.0549 64.9934 -4.49453 40.2781 64.3662 -4.11586 39.2382 64.8424 -4.53829 
39.3557 64.3634 -4.19148 38.7166 64.3508 -4.4206 49.0282 64.6273 -5.56019 
38.3971 64.6296 -4.82233 37.1478 64.9083 -5.5696 37.6038 64.6888 -5.20502 
36.7936 64.3079 -5.32775 35.3758 64.7941 -5.83326 35.2356 64.3916 -5.28274 
35.7354 64.3296 -5.30747 34.9503 64.2818 -5.46443 49.2952 64.854 -6.4352 
49.4244 64.3513 -5.9126 49.6541 64.3997 -6.58857 36.3291 64.8556 -5.79624 
35.3034 65.0162 -6.79222 34.7486 64.3605 -6.21597 49.356 65.0243 -7.29849 
49.738 64.386 -7.52946 41.1234 64.7624 -7.39457 41.7928 64.4086 -7.52671 
41.3989 64.2491 -7.16303 40.3053 64.4651 -7.13337 40.1927 64.8308 -7.57254 
39.2701 64.4554 -7.1278 39.1388 64.9028 -7.48606 38.343 64.4243 -7.19081 
38.368 64.9062 -7.65971 37.7133 64.384 -7.40836 35.2771 65.1266 -7.43628 
34.86 64.5014 -7.48279 34.3484 65.2891 -7.61262 49.2337 65.0107 -8.32666 
49.6902 64.1812 -8.59884 41.2269 64.4004 -7.76936 40.3602 64.3837 -8.13269 
39.3809 65.0063 -8.25921 39.9715 64.4318 -8.51981 37.3881 64.6338 -7.82545 
36.4322 64.5177 -8.20814 36.1496 64.8529 -8.63704 35.6846 64.2474 -8.53042 
34.851 64.5579 -8.46348 34.2823 65.1527 -8.24642 49.1034 64.6908 -9.11662 
48.5013 64.9909 -9.56656 48.933 64.4971 -9.848 42.5113 65.2157 -9.79224 
41.651 64.9295 -9.74372 40.8907 64.5244 -9.36104 40.1825 64.7978 -8.93504 
35.4005 64.7647 -8.894 48.2201 64.9867 -10.3136 48.7593 64.4758 -10.4105 
43.0302 65.084 -10.3777 42.351 64.8002 -10.4277 41.5693 64.2642 -10.2254 
41.2426 64.4742 -9.81774 48.3233 64.5021 -11.0049 47.2502 64.8699 -11.6154 
47.7449 64.4524 -11.7094 46.4709 65.1735 -11.5707 45.5569 65.0341 -11.7294 
44.6232 64.9563 -11.5372 43.9548 64.7258 -11.35 43.1259 64.4235 -11.0346 
42.0545 64.2288 -10.8663 47.1321 64.5908 -12.1485 46.6995 64.4522 -12.6979 
46.4049 64.7956 -12.2199 45.6838 64.5832 -12.399 44.9517 64.3385 -12.105 
44.3126 64.2755 -11.7866 46.1178 64.4365 -12.8241 48.1752 63.2163 -4.13332 
48.8344 63.7664 -4.65636 47.2977 63.4387 -3.97384 46.2829 63.4836 -3.97634 
45.4045 63.6658 -3.98391 44.2912 63.7006 -4.16427 43.4202 63.7671 -4.45666 
43.8356 63.3357 -4.61799 42.9455 63.6116 -4.43201 42.2789 63.3965 -4.09375 
41.3047 63.4939 -3.9451 40.2804 63.4784 -3.9706 39.2737 63.4917 -4.00312 
38.1066 63.921 -4.56491 38.4011 63.5415 -4.19324 37.6938 63.2907 -4.48535 
36.2612 63.7714 -4.84711 36.2789 63.3802 -4.41631 36.5216 63.3034 -4.57688 
36.0341 63.304 -4.57268 49.2867 63.9057 -5.31697 49.3306 63.1417 -5.03416 
49.6328 63.6721 -5.75251 43.3376 63.2126 -4.77877 37.2265 63.6777 -4.84212 
36.2597 64.2802 -5.36148 35.3447 63.5309 -5.01377 34.579 63.6161 -5.496 
49.8418 63.5375 -6.52578 34.2513 63.6944 -6.01276 34.2294 63.934 -6.82021 
33.8691 63.2201 -6.28507 49.8667 63.4967 -7.53027 45.1792 63.8004 -7.41912 
45.6825 63.3519 -7.75893 45.2987 63.2786 -7.16976 44.401 63.4837 -7.08907 
44.3833 63.8542 -7.47689 43.362 63.4606 -7.11553 43.3596 63.817 -7.48832 
42.2182 63.552 -7.11012 42.4254 64.0027 -7.4862 41.1248 63.3891 -7.01697 
40.3084 63.5491 -7.00959 39.3065 63.5681 -6.98693 38.2956 63.5544 -6.99063 
37.3826 63.5521 -7.17836 37.1206 63.9242 -7.53274 36.6857 63.2914 -7.46369 
34.3138 63.8569 -7.81473 33.8194 63.3464 -7.28679 49.8516 63.3563 -8.39407 
45.1051 63.6273 -7.967 44.1444 63.5895 -8.02991 43.1109 63.5499 -8.00448 
42.0594 63.7156 -7.96935 41.1013 63.7282 -8.19558 40.5273 64.0314 -8.70917 
41.0142 63.5081 -8.67046 36.3511 63.5985 -7.84223 35.1412 63.6896 -8.22421 
35.2513 64.0968 -8.61063 34.4898 63.3084 -8.58986 34.387 63.6602 -8.50198 
33.9922 63.4234 -8.28126 49.4463 64.1705 -9.48191 49.7545 63.5133 -9.43351 
41.1191 63.9109 -9.38859 41.6425 63.167 -9.58648 41.2917 63.3982 -8.9909 
40.3699 63.3784 -9.25244 40.6729 63.4585 -9.44787 40.2626 63.6973 -9.50375 
40.0328 63.3368 -9.43304 34.2169 63.472 -8.74684 49.2546 64.0128 -10.3074 
49.6766 63.1846 -10.5881 41.2789 63.6393 -10.3278 41.3532 63.8976 -10.6778 
40.3926 63.2308 -9.72714 41.1226 63.5256 -10.6047 49.0986 63.7127 -11.0821 
48.3396 64.0199 -11.6541 48.905 63.3249 -11.8658 43.7104 63.5426 -11.7017 
43.0588 63.3514 -11.2382 42.4299 63.7297 -11.0184 41.5884 63.5757 -10.8106 
48.1994 63.7831 -12.4571 48.6312 63.2175 -12.7437 47.4343 64.1992 -12.4725 
45.4301 64.0646 -12.8704 44.7461 63.6698 -12.5401 44.3134 63.5424 -12.1513 
48.1552 63.5766 -13.1183 47.8357 63.5286 -13.549 47.5351 63.8251 -13.2468 
46.4504 64.0068 -13.3282 45.5034 63.7495 -13.5442 44.828 63.4941 -13.2271 
[...]
CELL_DATA 10752
SCALARS scalars float
LOOKUP_TABLE default
2020 2020 2020 2020 2020 2020 2020 2020 2020 
2020 2020 2020 2020 2020 2020 2020 2020 2020 
2020 2020 2020 2020 2020 2020 2020 2020 2020 
2020 2020 2020 2020 2020 2020 2020 2020 2020 
2020 2020 2020 2020 2020 2020 2020 2020 2020 
2020 2020 2020 2020 2020 2020 2020 2020 2020 
2020 2020 2020 2020 2020 2020 2020 2020 2020 
2020 2020 2020 2020 2020 2020 2020 2020 2020 
2020 2020 2020 2020 2020 2020 2020 2020 2020 
2020 2020 2020 2020 2020 2020 2020 2020 2020 
2020 2020 2020 2020 2020 2020 2020 2020 2020 
2020 2020 2020 2020 2020 2020 2020 2020 2020 
2020 2020 2020 2020 2020 2020 2020 2020 2020 
2020 2020 2020 2020 2020 2020 2020 2020 2020 
2020 2020 2020 2020 2020 2020 2020 2020 2020 
2020 2020 2020 2020 2020 2020 2020 2020 2020 
2020 2020 2020 2020 2020 2020 2020 2020 2020 
2020 2020 2020 2020 2020 2020 2020 2020 2020 
2020 2020 2020 2020 2020 2020 2020 2020 2020 
2020 2020 2020 2020 2020 2020 2020 2020 2020 
2020 2020 2020 2020 2020 2020 2020 2020 2020 
2020 2020 2020 2020 2020 2020 2020 2020 2020 
2020 2020 2020 2020 2020 2020 2020 2020 2020 
2020 2020 2020 2020 2020 2020 2020 2020 2020 
2020 2020 2020 2020 2020 2020 2020 2020 2020 
2020 2020 2020 2020 2020 2020 2020 2020 2020 
2020 2020 2020 2020 2020 2020 2020 2020 2020 
2020 2020 2020 2020 2020 2020 2020 2020 2020 
2020 2020 2020 2020 2020 2020 2020 2020 2020 
2020 2020 2020 2020 2020 2020 2020 2020 2020 
2020 2020 2020 2020 2020 2020 2020 2020 2020 
2020 2020 2020 2020 2020 2020 2020 2020 2020 
2020 2020 2020 2020 2020 2020 2020 2020 2020 
2020 2020 2020 2020 2020 2020 2020 2020 2020 
2020 2020 2020 2020 2020 2020 2020 2020 2020 
2020 2020 2020 2020 2020 2020 2020 2020 2020 
2020 2020 2020 2020 2020 2020 2020 2020 2020 
2020 2020 2020 2020 2020 2020 2020 2020 2020 
2020 2020 2020 2020 2020 2020 2020 2020 2020 
2020 2020 2020 2020 2020 2020 2020 2020 2020 
2020 2020 2020 2020 2020 2020 2020 2020 2020 
2020 2020 2020 2020 2020 2020 2020 2020 2020 
2020 2020 2020 2020 2020 2020 2020 2020 2020 
2020 2020 2020 2020 2020 2020 2020 2020 2020 
2020 2020 2020 2020 2020 2020 2020 2020 2020 
2020 2020 2020 2020 2020 2020 2020 2020 2020 
2020 2020 2020 2020 2020 2020 2020 2020 2020 
2020 2020 2020 2020 2020 2020 2020 2020 2020 
2020 2020 2020 2020 2020 2020 2020 2020 2020 
2020 2020 2020 2020 2020 2020 2020 2020 2020 
2020 2020 2020 2020 2020 2020 2020 2020 2020 
2020 2020 2020 2020 2020 2020 2020 2020 2020 
2020 2020 2020 2020 2020 2020 2020 2020 2020 
2020 2020 2020 2020 2020 2020 2020 2020 2020 
2020 2020 2020 2020 2020 2020 2020 2020 2020 
2020 2020 2020 2020 2020 2020 2020 2020 2020 
2020 2020 2020 2020 2020 2020 2020 2020 2020 
2020 2020 2020 2020 2020 2020 2020 2020 2020 
2020 2020 2020 2020 2020 2020 2020 2020 2020 
2020 2020 2020 2020 2020 2020 2020 2020 2020 
2020 2020 2020 2020 2020 2020 2020 2020 2020 
2020 2020 2020 2020 2020 2020 2020 2020 2020 
2020 2020 2020 2020 2020 2020 2020 2020 2020 
2020 2020 2020 2020 2020 2020 2020 2020 2020 
2020 2020 2020 2020 2020 2020 2020 2020 2020 
2020 2020 2020 2020 2020 2020 2020 2020 2020 
2020 2020 2020 2020 2020 2020 2020 2020 2020 
2020 2020 2020 2020 2020 2020 2020 2020 2020 
2020 2020 2020 2020 2020 2020 2020 2020 2020 
2020 2020 2020 2020 2020 2020 2020 2020 2020 
2020 2020 2020 2020 2020 2020 2020 2020 2020 
2020 2020 2020 2020 2020 2020 2020 2020 2020 
2020 2020 2020 2020 2020 2020 2020 2020 2020 
2020 2020 2020 2020 2020 2020 2020 2020 2020 
2020 2020 2020 2020 2020 2020 2020 2020 2020 
2020 2020 2020 2020 2020 2020 2020 2020 2020 
2020 2020 2020 2020 2020 2020 2020 2020 2020 
2020 2020 2020 2020 2020 2020 2020 2020 2020 
2020 2020 2020 2020 2020 2020 2020 2020 2020 
2020 2020 2020 2020 2020 2020 2020 2020 2020 
2020 2020 2020 2020 2020 2020 2020 2020 2020 
2020 2020 2020 2020 2020 2020 2020 2020 2020 
2020 2020 2020 2020 2020 2020 2020 2020 2020 
2020 2020 2020 2020 2020 2020 2020 2020 2020 
2020 2020 2020 2020 2020 2020 2020 2020 2020 
2020 2020 2020 2020 2020 2020 2020 2020 2020 
2020 2020 2020 2020 2020 2020 2020 2020 2020 
2020 2020 2020 2020 2020 2020 2020 2020 2020 
2020 2020 2020 2020 2020 2020 2020 2020 2020 
2020 2020 2020 2020 2020 2020 2020 2020 2020 
2020 2020 2020 2020 2020 2020 2020 2020 2020 
2020 2020 2020 2020 2020 2020 2020 2020 2020 
2020 2020 2020 2020 2020 2020 2020 2020 2020 
2020 2020 2020 2020 2020 2020 2020 2020 2020 
2020 2020 2020 2020 2020 2020 2020 2020 2020 
2020 2020 2020 2020 2020 2020 2020 2020 2020 
2020 2020 2020 2020 2020 2020 2020 2020 2020 
2020 2020 2020 2020 2020 2020 2020 2020 2020 
2020 2020 2020 2020 2020 2020 2020 2020 2020 
2020 2020 2020 2020 2020 2020 2020 2020 2020 
2020 2020 2020 2020 2020 2020 2020 2020 2020 
2020 2020 2020 2020 2020 2020 2020 2020 2020 
2020 2020 2020 2020 2020 2020 2020 2020 2020 
2020 2020 2020 2020 2020 2020 2020 2020 2020 
2020 2020 2020 2020 2020 2020 2020 2020 2020 
2020 2020 2020 2020 2020 2020 2020 2020 2020 
2020 2020 2020 2020 2020 2020 2020 2020 2020 
2020 2020 2020 2020 2020 2020 2020 2020 2020 
2020 2020 2020 2020 2020 2020 2020 2020 2020 
2020 2020 2020 2020 2020 2020 2020 2020 2020 
2020 2020 2020 2020 2020 2020 2020 2020 2020 
2020 2020 2020 2020 2020 2020 2020 2020 2020 
2020 2020 2020 2020 2020 2020 2020 2020 2020 
2020 2020 2020 2020 2020 2020 2020 2020 2020 
2020 2020 2020 2020 2020 2020 2020 2020 2020 
2020 2020 2020 2020 2020 2020 2020 2020 2020 
2020 2020 2020 2020 2020 2020 2020 2020 2020 
2020 2020 2020 2020 2020 2020 2020 2020 2020 
2020 2020 2020 2020 2020 2020 2020 2020 2020 
2020 2020 2020 2020 2020 2020 2020 2020 2020 
2020 2020 2020 2020 2020 2020 2020 2020 2020 
2020 2020 2020 2020 2020 2020 2020 2020 2020 
2020 2020 2020 2020 2020 2020 2020 2020 2020 
2020 2020 2020 2020 2020 2020 2020 2020 2020 
2020 2020 2020 2020 2020 2020 2020 2020 2020 
2020 2020 2020 2020 2020 2020 2020 2020 2020 
2020 2020 2020 2020 2020 2020 2020 2020 2020 
2020 2020 2020 2020 2020 2020 2020 2020 2020 
2020 2020 2020 2020 2020 2020 2020 2020 2020 
2020 2020 2020 2020 2020 2020 2020 2020 2020 
2020 2020 2020 2020 2020 2020 2020 2020 2020 
2020 2020 2020 2020 2020 2020 2020 2020 2020 
2020 2020 2020 2020 2020 2020 2020 2020 2020 
2020 2020 2020 2020 2020 2020 2020 2020 2020 
2020 2020 2020 2020 2020 2020 2020 2020 2020 
2020 2020 2020 2020 2020 2020 2020 2020 2020 
2020 2020 2020 2020 2020 2020 2020 2020 2020 
2020 2020 2020 2020 2020 2020 2020 2020 2020 
2020 2020 2020 2020 2020 2020 2020 2020 2020 
2020 2020 2020 2020 2020 2020 2020 2020 2020 
2020 2020 2020 2020 2020 2020 2020 2020 2020 
2020 2020 2020 2020 2020 2020 2020 2020 2020 
2020 2020 2020 2020 2020 2020 2020 2020 2020 
2020 2020 2020 2020 2020 2020 2020 2020 2020 
2020 2020 2020 2020 2020 2020 2020 2020 2020 
2020 2020 2020 2020 2020 2020 2020 2020 2020 
2020 2020 2020 2020 2020 2020 2020 2020 2020 
2020 2020 2020 2020 2020 2020 2020 2020 2020 
2020 2020 2020 2020 2020 2020 2020 2020 2020 
2020 2020 2020 2020 2020 2020 2020 2020 2020 
2020 2020 2020 2020 2020 2020 2020 2020 2020 
2020 2020 2020 2020 2020 2020 2020 2020 2020 
2020 2020 2020 2020 2020 2020 2020 2020 2020 
2020 2020 2020 2020 2020 2020 2020 2020 2020 
2020 2020 2020 2020 2020 2020 2020 2020 2020 
2020 2020 2020 2020 2020 2020 2020 2020 2020 
2020 2020 2020 2020 2020 2020 2020 2020 2020 
2020 2020 2020 2020 2020 2020 2020 2020 2020 
2020 2020 2020 2020 2020 2020 2020 2020 2020 
2020 2020 2020 2020 2020 2020 2020 2020 2020 
2020 2020 2020 2020 2020 2020 2020 2020 2020 
2020 2020 2020 2020 2020 2020 2020 2020 2020 
2020 2020 2020 2020 2020 2020 2020 2020 2020 
2020 2020 2020 2020 2020 2020 2020 2020 2020 
2020 2020 2020 2020 2020 2020 2020 2020 2020 
2020 2020 2020 2020 2020 2020 2020 2020 2020 
2020 2020 2020 2020 2020 2020 2020 2020 2020 
2020 2020 2020 2020 2020 2020 2020 2020 2020 
2020 2020 2020 2020 2020 2020 2020 2020 2020 
2020 2020 2020 2020 2020 2020 2020 2020 2020 
2020 2020 2020 2020 2020 2020 2020 2020 2020 
2020 2020 2020 2020 2020 2020 2020 2020 2020 
2020 2020 2020 2020 2020 2020 2020 2020 2020 
2020 2020 2020 2020 2020 2020 2020 2020 2020 
2020 2020 2020 2020 2020 2020 2020 2020 2020 
2020 2020 2020 2020 2020 2020 2020 2020 2020 
2020 2020 2020 2020 2020 2020 2020 2020 2020 
2020 2020 2020 2020 2020 2020 2020 2020 2020 
2020 2020 2020 2020 2020 2020 2020 2020 2020 
2020 2020 2020 2020 2020 2020 2020 2020 2020 
2020 2020 2020 2020 2020 2020 2020 2020 2020 
2020 2020 2020 2020 2020 2020 2020 2020 2020 
2020 2020 2020 2020 2020 2020 2020 2020 2020 
2020 2020 2020 2020 2020 2020 2020 2020 2020 
2020 2020 2020 2020 2020 2020 2020 2020 2020 
2020 2020 2020 2020 2020 2020 2020 2020 2020 
2020 2020 2020 2020 2020 2020 2020 2020 2020 
2020 2020 2020 2020 2020 2020 2020 2020 2020 
2020 2020 2020 2020 2020 2020 2020 2020 2020 
2020 2020 2020 2020 2020 2020 2020 2020 2020 
2020 2020 2020 2020 2020 2020 2020 2020 2020 
2020 2020 2020 2020 2020 2020 2020 2020 2020 
2020 2020 2020 2020 2020 2020 2020 2020 2020 
2020 2020 2020 2020 2020 2020 2020 2020 2020 
2020 2020 2020 2020 2020 2020 2020 2020 2020 
2020 2020 2020 2020 2020 2020 2020 2020 2020 
2020 2020 2020 2020 2020 2020 2020 2020 2020 
2020 2020 2020 2020 2020 2020 2020 2020 2020 
2020 2020 2020 2020 2020 2020 2020 2020 2020 
2020 2020 2020 2020 2020 2020 2020 2020 2020 
2020 2020 2020 2020 2020 2020 2020 2020 2020 
2020 2020 2020 2020 2020 2020 2020 2020 2020 
2020 2020 2020 2020 2020 2020 2020 2020 2020 
2020 2020 2020 2020 2020 2020 2020 2020 2020 
2020 2020 2020 2020 2020 2020 2020 2020 2020 
2020 2020 2020 2020 2020 2020 2020 2020 2020 
2020 2020 2020 2020 2020 2020 2020 2020 2020 
2020 2020 2020 2020 2020 2020 2020 2020 2020 
2020 2020 2020 2020 2020 2020 2020 2020 2020 
2020 2020 2020 2020 2020 2020 2020 2020 2020 
2020 2020 2020 2020 2020 2020 2020 2020 2020 
2020 2020 2020 2020 2020 2020 2020 2020 2020 
2020 2020 2020 2020 2020 2020 2020 2020 2020 
2020 2020 2020 2020 2020 2020 2020 2020 2020 
2020 2020 2020 2020 2020 2020 2020 2020 2020 
2020 2020 2020 2020 2020 2020 2020 2020 2020 
2020 2020 2020 2020 2020 2020 2020 2020 2020 
2020 2020 2020 2020 2020 2020 2020 2020 2020 
2020 2020 2020 2020 2020 2020 2020 2020 2020 
2020 2020 2020 2020 2020 2020 2020 2020 2020 
2020 2020 2020 2020 2020 2020 2020 2020 2020 
2020 2020 2020 2020 2020 2020 2020 2020 2020 
2020 2020 2020 2020 2020 2020 2020 2020 2020 
2020 2020 2020 2020 2020 2020 2020 2020 2020 
2020 2020 2020 2020 2020 2020 2020 2020 2020 
2020 2020 2020 2020 2020 2020 2020 2020 2020 
2020 2020 2020 2020 2020 2020 2020 2020 2020 
2020 2020 2020 2020 2020 2020 2020 2020 2020 
2020 2020 2020 2020 2020 2020 2020 2020 2020 
2020 2020 2020 2020 2020 2020 2020 2020 2020 
2020 2020 2020 2020 2020 2020 2020 2020 2020 
2020 2020 2020 2020 2020 2020 2020 2020 2020 
2020 2020 2020 2020 2020 2020 2020 2020 2020 
2020 2020 2020 2020 2020 2020 2020 2020 2020 
2020 2020 2020 2020 2020 2020 2020 2020 2020 
2020 2020 2020 2020 2020 2020 2020 2020 2020 
2020 2020 2020 2020 2020 2020 2020 2020 2020 
2020 2020 2020 2020 2020 2020 2020 2020 2020 
2020 2020 2020 2020 2020 2020 2020 2020 2020 
2020 2020 2020 2020 2020 2020 2020 2020 2020 
2020 2020 2020 2020 2020 2020 2020 2020 2020 
2020 2020 2020 2020 2020 2020 2020 2020 2020 
2020 2020 2020 2020 2020 2020 2020 2020 2020 
2020 2020 2020 2020 2020 2020 2020 2020 2020 
2020 2020 2020 2020 2020 2020 2020 2020 2020 
2020 2020 2020 2020 2020 2020 2020 2020 2020 
2020 2020 2020 2020 2020 2020 2020 2020 2020 
2020 2020 2020 2020 2020 2020 2020 2020 2020 
2020 2020 2020 2020 2020 2020 2020 2020 2020 
2020 2020 2020 2020 2020 2020 2020 2020 2020 
2020 2020 2020 2020 2020 2020 2020 2020 2020 
2020 2020 2020 2020 2020 2020 2020 2020 2020 
2020 2020 2020 2020 2020 2020 2020 2020 2020 
2020 2020 2020 2020 2020 2020 2020 2020 2020 
2020 2020 2020 2020 2020 2020 2020 2020 2020 
2020 2020 2020 2020 2020 2020 2020 2020 2020 
2020 2020 2020 2020 2020 2020 2020 2020 2020 
2020 2020 2020 2020 2020 2020 2020 2020 2020 
2020 2020 2020 2020 2020 2020 2020 2020 2020 
2020 2020 2020 2020 2020 2020 2020 2020 2020 
2020 2020 2020 2020 2020 2020 2020 2020 2020 
2020 2020 2020 2020 2020 2020 2020 2020 2020 
2020 2020 2020 2020 2020 2020 2020 2020 2020 
2020 2020 2020 2020 2020 2020 2020 2020 2020 
2020 2020 2020 2020 2020 2020 2020 2020 2020 
2020 2020 2020 2020 2020 2020 2020 2020 2020 
2020 2020 2020 2020 2020 2020 2020 2020 2020 
2020 2020 2020 2020 2020 2020 2020 2020 2020 
2020 2020 2020 2020 2020 2020 2020 2020 2020 
2020 2020 2020 2020 2020 2020 2020 2020 2020 
2020 2020 2020 2020 2020 2020 2020 2020 2020 
2020 2020 2020 2020 2020 2020 2020 2020 2020 
2020 2020 2020 2020 2020 2020 2020 2020 2020 
2020 2020 2020 2020 2020 2020 2020 2020 2020 
2020 2020 2020 2020 2020 2020 2020 2020 2020 
2020 2020 2020 2020 2020 2020 2020 2020 2020 
2020 2020 2020 2020 2020 2020 2020 2020 2020 
2020 2020 2020 2020 2020 2020 2020 2020 2020 
2020 2020 2020 2020 2020 2020 2020 2020 2020 
2020 2020 2020 2020 2020 2020 2020 2020 2020 
2020 2020 2020 2020 2020 2020 2020 2020 2020 
2020 2020 2020 2020 2020 2020 2020 2020 2020 
2020 2020 2020 2020 2020 2020 2020 2020 2020 
2020 2020 2020 2020 2020 2020 2020 2020 2020 
2020 2020 2020 2020 2020 2020 2020 2020 2020 
2020 2020 2020 2020 2020 2020 2020 2020 2020 
2020 2020 2020 2020 2020 2020 2020 2020 2020 
2020 2020 2020 2020 2020 2020 2020 2020 2020 
2020 2020 2020 2020 2020 2020 2020 2020 2020 
2020 2020 2020 2020 2020 2020 2020 2020 2020 
2020 2020 2020 2020 2020 2020 2020 2020 2020 
2020 2020 2020 2020 2020 2020 2020 2020 2020 
2020 2020 2020 2020 2020 2020 2020 2020 2020 
2020 2020 2020 2020 2020 2020 2020 2020 2020 
2020 2020 2020 2020 2020 2020 2020 2020 2020 
2020 2020 2020 2020 2020 2020 2020 2020 2020 
2020 2020 2020 2020 2020 2020 2020 2020 2020 
2020 2020 2020 2020 2020 2020 2020 2020 2020 
2020 2020 2020 2020 2020 2020 2020 2020 2020 
2020 2020 2020 2020 2020 2020 2020 2020 2020 
2020 2020 2020 2020 2020 2020 2020 2020 2020 
2020 2020 2020 2020 2020 2020 2020 2020 2020 
2020 2020 2020 2020 2020 2020 2020 2020 2020 
2020 2020 2020 2020 2020 2020 2020 2020 2020 
2020 2020 2020 2020 2020 2020 2020 2020 2020 
2020 2020 2020 2020 2020 2020 2020 2020 2020 
2020 2020 2020 2020 2020 2020 2020 2020 2020 
2020 2020 2020 2020 2020 2020 2020 2020 2020 
2020 2020 2020 2020 2020 2020 2020 2020 2020 
2020 2020 2020 2020 2020 2020 2020 2020 2020 
2020 2020 2020 2020 2020 2020 2020 2020 2020 
2020 2020 2020 2020 2020 2020 2020 2020 2020 
2020 2020 2020 2020 2020 2020 2020 2020 2020 
2020 2020 2020 2020 2020 2020 2020 2020 2020 
2020 2020 2020 2020 2020 2020 2020 2020 2020 
2020 2020 2020 2020 2020 2020 2020 2020 2020 
2020 2020 2020 2020 2020 2020 2020 2020 2020 
2020 2020 2020 2020 2020 2020 2020 2020 2020 
2020 2020 2020 2020 2020 2020 2020 2020 2020 
2020 2020 2020 2020 2020 2020 2020 2020 2020 
2020 2020 2020 2020 2020 2020 2020 2020 2020 
2020 2020 2020 2020 2020 2020 2020 2020 2020 
2020 2020 2020 2020 2020 2020 2020 2020 2020 
2020 2020 2020 2020 2020 2020 2020 2020 2020 
2020 2020 2020 2020 2020 2020 2020 2020 2020 
2020 2020 2020 2020 2020 2020 2020 2020 2020 
2020 2020 2020 2020 2020 2020 2020 2020 2020 
2020 2020 2020 2020 2020 2020 2020 2020 2020 
2020 2020 2020 2020 2020 2020 2020 2020 2020 
2020 2020 2020 2020 2020 2020 2020 2020 2020 
2020 2020 2020 2020 2020 2020 2020 2020 2020 
2020 2020 2020 2020 2020 2020 2020 2020 2020 
2020 2020 2020 2020 2020 2020 2020 2020 2020 
2020 2020 2020 2020 2020 2020 2020 2020 2020 
2020 2020 2020 2020 2020 2020 2020 2020 2020 
2020 2020 2020 2020 2020 2020 2020 2020 2020 
2020 2020 2020 2020 2020 2020 2020 2020 2020 
2020 2020 2020 2020 2020 2020 2020 2020 2020 
2020 2020 2020 2020 2020 2020 2020 2020 2020 
2020 2020 2020 2020 2020 2020 2020 2020 2020 
2020 2020 2020 2020 2020 2020 2020 2020 2020 
2020 2020 2020 2020 2020 2020 2020 2020 2020 
2020 2020 2020 2020 2020 2020 2020 2020 2020 
2020 2020 2020 2020 2020 2020 2020 2020 2020 
2020 2020 2020 2020 2020 2020 2020 2020 2020 
2020 2020 2020 2020 2020 2020 2020 2020 2020 
2020 2020 2020 2020 2020 2020 2020 2020 2020 
2020 2020 2020 2020 2020 2020 2020 2020 2020 
2020 2020 2020 2020 2020 2020 2020 2020 2020 
2020 2020 2020 2020 2020 2020 2020 2020 2020 
2020 2020 2020 2020 2020 2020 2020 2020 2020 
2020 2020 2020 2020 2020 2020 2020 2020 2020 
2020 2020 2020 2020 2020 2020 2020 2020 2020 
2020 2020 2020 2020 2020 2020 2020 2020 2020 
2020 2020 2020 2020 2020 2020 2020 2020 2020 
2020 2020 2020 2020 2020 2020 2020 2020 2020 
2020 2020 2020 2020 2020 2020 2020 2020 2020 
2020 2020 2020 2020 2020 2020 2020 2020 2020 
2020 2020 2020 2020 2020 2020 2020 2020 2020 
2020 2020 2020 2020 2020 2020 2020 2020 2020 
2020 2020 2020 2020 2020 2020 2020 2020 2020 
2020 2020 2020 2020 2020 2020 2020 2020 2020 
2020 2020 2020 2020 2020 2020 2020 2020 2020 
2020 2020 2020 2020 2020 2020 2020 2020 2020 
2020 2020 2020 2020 2020 2020 2020 2020 2020 
2020 2020 2020 2020 2020 2020 2020 2020 2020 
2020 2020 2020 2020 2020 2020 2020 2020 2020 
2020 2020 2020 2020 2020 2020 2020 2020 2020 
2020 2020 2020 2020 2020 2020 2020 2020 2020 
2020 2020 2020 2020 2020 2020 2020 2020 2020 
2020 2020 2020 2020 2020 2020 2020 2020 2020 
2020 2020 2020 2020 2020 2020 2020 2020 2020 
2020 2020 2020 2020 2020 2020 2020 2020 2020 
2020 2020 2020 2020 2020 2020 2020 2020 2020 
2020 2020 2020 2020 2020 2020 2020 2020 2020 
2020 2020 2020 2020 2020 2020 2020 2020 2020 
2020 2020 2020 2020 2020 2020 2020 2020 2020 
2020 2020 2020 2020 2020 2020 2020 2020 2020 
2020 2020 2020 2020 2020 2020 2020 2020 2020 
2020 2020 2020 2020 2020 2020 2020 2020 2020 
2020 2020 2020 2020 2020 2020 2020 2020 2020 
2020 2020 2020 2020 2020 2020 2020 2020 2020 
2020 2020 2020 2020 2020 2020 2020 2020 2020 
2020 2020 2020 2020 2020 2020 2020 2020 2020 
2020 2020 2020 2020 2020 2020 2020 2020 2020 
2020 2020 2020 2020 2020 2020 2020 2020 2020 
2020 2020 2020 2020 2020 2020 2020 2020 2020 
2020 2020 2020 2020 2020 2020 2020 2020 2020 
2020 2020 2020 2020 2020 2020 2020 2020 2020 
2020 2020 2020 2020 2020 2020 2020 2020 2020 
2020 2020 2020 2020 2020 2020 2020 2020 2020 
2020 2020 2020 2020 2020 2020 2020 2020 2020 
2020 2020 2020 2020 2020 2020 2020 2020 2020 
2020 2020 2020 2020 2020 2020 2020 2020 2020 
2020 2020 2020 2020 2020 2020 2020 2020 2020 
2020 2020 2020 2020 2020 2020 2020 2020 2020 
2020 2020 2020 2020 2020 2020 2020 2020 2020 
2020 2020 2020 2020 2020 2020 2020 2020 2020 
2020 2020 2020 2020 2020 2020 2020 2020 2020 
2020 2020 2020 2020 2020 2020 2020 2020 2020 
2020 2020 2020 2020 2020 2020 2020 2020 2020 
2020 2020 2020 2020 2020 2020 2020 2020 2020 
2020 2020 2020 2020 2020 2020 2020 2020 2020 
2020 2020 2020 2020 2020 2020 2020 2020 2020 
2020 2020 2020 2020 2020 2020 2020 2020 2020 
2020 2020 2020 2020 2020 2020 2020 2020 2020 
2020 2020 2020 2020 2020 2020 2020 2020 2020 
2020 2020 2020 2020 2020 2020 2020 2020 2020 
2020 2020 2020 2020 2020 2020 2020 2020 2020 
2020 2020 2020 2020 2020 2020 2020 2020 2020 
2020 2020 2020 2020 2020 2020 2020 2020 2020 
2020 2020 2020 2020 2020 2020 2020 2020 2020 
2020 2020 2020 2020 2020 2020 2020 2020 2020 
2020 2020 2020 2020 2020 2020 2020 2020 2020 
2020 2020 2020 2020 2020 2020 2020 2020 2020 
2020 2020 2020 2020 2020 2020 2020 2020 2020 
2020 2020 2020 2020 2020 2020 2020 2020 2020 
2020 2020 2020 2020 2020 2020 2020 2020 2020 
2020 2020 2020 2020 2020 2020 2020 2020 2020 
2020 2020 2020 2020 2020 2020 2020 2020 2020 
2020 2020 2020 2020 2020 2020 2020 2020 2020 
2020 2020 2020 2020 2020 2020 2020 2020 2020 
2020 2020 2020 2020 2020 2020 2020 2020 2020 
2020 2020 2020 2020 2020 2020 2020 2020 2020 
2020 2020 2020 2020 2020 2020 2020 2020 2020 
2020 2020 2020 2020 2020 2020 2020 2020 2020 
2020 2020 2020 2020 2020 2020 2020 2020 2020 
2020 2020 2020 2020 2020 2020 2020 2020 2020 
2020 2020 2020 2020 2020 2020 2020 2020 2020 
2020 2020 2020 2020 2020 2020 2020 2020 2020 
2020 2020 2020 2020 2020 2020 2020 2020 2020 
2020 2020 2020 2020 2020 2020 2020 2020 2020 
2020 2020 2020 2020 2020 2020 2020 2020 2020 