# vtk DataFile Version 4.2
vtk output
ASCII
DATASET POLYDATA
POINTS 18238 float
27.7239 18.4698 -44.2981 27.7075 18.6678 -44.5306 27.375 18.552 -44.6364 
27.8543 18.3735 -44.6936 27.6919 18.1989 -44.4117 28.5521 17.568 -44.5489 
28.3381 17.1119 -44.3579 28.7578 17.1442 -44.2481 29.1526 17.5127 -44.6229 
28.6105 16.6123 -44.2704 28.3928 16.5993 -44.6242 28.9695 16.7039 -44.5465 
28.6649 16.2629 -44.4631 33.6936 0.414649 -44.2805 33.7352 0.647792 -44.7127 
33.4719 0.36613 -44.6439 34.0973 0.485153 -44.5561 33.9508 0.200668 -44.6653 
26.8571 19.258 -45.2281 26.6608 19.6702 -45.5882 26.4588 19.2538 -45.5551 
26.8777 19.5149 -45.6662 26.6866 18.464 -45.045 26.2043 18.4056 -45.5316 
27.456 18.94 -45.3386 28.1149 18.3177 -45.6831 29.6574 18.9612 -45.6574 
29.3165 18.6234 -45.7285 29.6223 18.1464 -45.1741 30.0106 18.7558 -45.7282 
26.5663 17.6859 -45.1946 26.2728 17.69 -45.6917 27.7518 17.6015 -44.9178 
28.8061 18.0276 -45.377 29.5442 17.2865 -45.0128 30.0509 17.7848 -45.6122 
26.9483 17.2056 -45.58 27.816 16.9879 -45.7612 28.7784 16.8235 -45.3584 
28.6946 16.3388 -44.7446 29.7153 17.1405 -45.7113 27.9775 12.3755 -45.2397 
27.5432 12.8043 -45.5457 27.354 12.445 -45.4866 28.9583 12.3299 -45.075 
28.3517 12.9681 -45.46 29.9748 12.3032 -45.0846 29.4174 12.9941 -45.4529 
30.7213 12.2463 -45.2185 30.6187 12.9712 -45.6853 31.223 12.4541 -45.6262 
27.546 11.9559 -45.584 28.1413 11.4657 -45.4592 28.631 11.5758 -45.1212 
29.7058 11.4325 -44.9261 30.5631 11.4604 -45.0621 31.2187 11.7275 -45.4574 
28.5756 10.9689 -45.5765 29.2988 10.2754 -45.521 29.6348 10.5421 -45.1328 
30.5364 10.4498 -45.0943 31.2338 10.7191 -45.4355 29.8848 9.80007 -45.3911 
30.3169 9.22317 -45.5542 30.477 9.6481 -45.2644 31.1761 9.73489 -45.4675 
30.891 9.11759 -45.5733 33.7504 0.866141 -45.4217 33.2537 0.720405 -45.4483 
34.561 0.366707 -45.0063 34.3451 0.890026 -45.4351 34.9779 0.582907 -45.5224 
33.5726 0.0335995 -45.4845 34.6533 0.0715095 -45.3793 25.7861 19.2992 -46.3143 
25.6876 19.8432 -46.7623 25.1917 19.1143 -46.6936 26.6169 19.5951 -45.8271 
26.2415 19.583 -46.6675 29.7702 19.4347 -46.0728 29.74 19.6773 -46.5031 
29.5089 19.2731 -46.4202 29.984 19.3605 -46.3498 25.7974 18.5147 -46.1511 
25.4197 18.486 -46.7578 26.5469 19.1998 -46.0971 27.5676 18.9675 -46.4044 
28.2236 18.5879 -46.5922 29.0772 18.5771 -46.4511 30.3067 18.4756 -46.61 
25.7387 18.2016 -46.6146 26.2947 17.8022 -46.471 26.7662 17.3498 -46.0984 
27.0546 17.295 -46.6448 28.6286 18.2547 -46.3148 30.1155 17.3288 -46.5633 
27.5994 16.9352 -46.4147 28.65 16.7775 -46.4296 29.4522 16.9031 -46.29 
26.9725 14.3447 -46.223 26.5611 14.8286 -46.5747 26.1788 14.1596 -46.5087 
27.9674 14.3558 -46.1579 27.4072 14.9895 -46.5305 29.0073 14.3216 -46.1679 
28.4273 14.9962 -46.5606 29.931 14.1934 -46.2553 29.385 14.8942 -46.5919 
30.152 14.5977 -46.6488 26.626 13.6153 -46.1611 26.0852 13.2064 -46.5024 
27.5246 13.5038 -45.8811 28.6699 13.6312 -45.8338 29.7304 13.6119 -45.8785 
30.5987 14.0296 -46.4802 30.5045 13.622 -46.1154 31.1161 13.5167 -46.4345 
26.8402 12.6961 -45.9877 26.1985 12.5308 -46.5059 31.7308 12.1265 -46.0549 
31.544 12.8704 -46.2397 32.027 12.638 -46.7892 26.6127 11.9445 -46.4913 
27.641 11.4456 -45.977 27.1228 11.4418 -46.4933 31.9277 11.1591 -45.9582 
32.2356 11.6831 -46.7456 27.6457 10.9539 -46.4914 28.6803 10.3157 -45.9715 
28.0879 10.1361 -46.6642 31.8859 10.1385 -45.8053 32.5777 10.9495 -46.4633 
32.6087 10.3611 -46.165 32.9901 10.4812 -46.6968 28.7908 9.50124 -46.1856 
28.351 9.23238 -46.7579 29.5904 9.48439 -45.7956 31.541 9.2084 -45.8199 
32.3975 9.36325 -46.1254 33.0705 9.66031 -46.7189 28.7999 8.85417 -46.4019 
29.1237 8.42611 -46.4712 29.4462 8.72277 -46.184 30.5785 8.65504 -45.9785 
31.671 8.5539 -46.1588 32.3358 8.3702 -46.6515 32.7989 8.8701 -46.6083 
29.7165 8.00881 -46.6223 30.9817 7.92651 -46.4673 31.7534 7.92621 -46.6383 
35.6316 4.48461 -46.3368 35.6844 4.74944 -46.7374 35.405 4.50381 -46.4913 
36.1431 4.38962 -46.7773 35.5124 4.0623 -46.7031 34.9916 2.3269 -46.1793 
34.6293 2.99538 -46.6658 34.3398 2.41064 -46.6277 35.6722 2.24931 -46.219 
35.5257 2.98078 -46.6843 36.1469 2.45228 -46.6767 32.8065 1.30815 -46.2125 
32.6403 1.62334 -46.5363 32.393 1.18381 -46.6091 32.9114 1.55384 -46.5281 
34.8815 1.40799 -45.9524 34.1484 1.63679 -46.4919 35.7446 1.40091 -46.0583 
36.2638 1.77875 -46.4755 32.6872 0.656405 -46.0709 32.2975 0.298238 -46.7714 
33.4221 1.22657 -46.4538 35.448 0.380643 -45.8469 36.7383 1.0661 -46.6492 
36.3622 0.330523 -46.2268 37.1852 0.33693 -46.8438 32.8539 -0.0993455 -46.2907 
33.7393 -0.723242 -46.0293 33.0556 -0.886981 -46.4915 34.809 -0.598087 -45.8526 
35.8485 -0.554055 -46.1168 36.3922 -0.452513 -46.4317 36.7701 -0.135648 -46.6604 
33.1425 -1.5674 -46.6476 33.7815 -1.53582 -46.1852 34.5221 -1.43808 -45.9777 
35.369 -1.64378 -46.144 36.1608 -1.26585 -46.5149 33.6564 -2.10413 -46.5977 
34.2021 -2.62446 -46.8053 34.5557 -2.2688 -46.191 35.2746 -2.47411 -46.3672 
35.8409 -2.06383 -46.5438 34.96 -2.84152 -46.7047 25.6345 21.1529 -47.1934 
25.7433 21.7721 -47.4523 25.2049 21.4635 -47.417 26.0678 21.6328 -47.7333 
34.8761 21.5118 -47.2396 34.7207 21.8292 -47.6015 34.4004 21.4761 -47.4315 
35.4431 21.3747 -47.2379 35.4106 21.7114 -47.411 36.0801 21.6301 -47.6102 
23.9576 20.3657 -47.2096 23.5741 20.9404 -47.6276 23.3198 20.326 -47.8431 
24.8627 20.6454 -47.0395 24.3006 21.0465 -47.4298 25.4306 20.3926 -46.9276 
26.0966 20.6205 -47.5988 33.6836 20.4357 -47.3623 33.5334 20.6808 -47.4947 
33.3851 20.4128 -47.4544 34.9066 21.0301 -47.6424 33.9188 20.5675 -47.5299 
35.9448 21.1429 -47.7327 23.7865 19.8401 -47.3745 24.0766 19.4776 -47.4392 
24.6359 19.7898 -46.9898 27.0134 19.5111 -46.9639 26.6589 19.9379 -47.4569 
28.0275 19.2904 -47.1006 27.5453 19.8015 -47.5417 28.8241 19.3273 -47.3299 
28.3985 19.7076 -47.643 29.9259 19.342 -46.8878 28.9927 19.4491 -47.7471 
33.5699 20.1375 -47.6792 24.4538 19.0805 -47.5523 25.1608 18.4894 -47.4047 
28.7289 18.7393 -46.9527 29.4445 19.0986 -47.4267 30.4197 18.7983 -47.4909 
30.7145 18.3308 -47.2886 30.851 18.4413 -47.5574 25.8484 17.9494 -47.2016 
26.7012 17.3296 -47.0889 26.1503 17.1556 -47.5602 30.5061 17.8865 -47.5805 
30.7929 18.1914 -47.5428 26.7485 16.3767 -47.2064 26.0454 16.3809 -47.5016 
27.6598 16.5636 -46.9916 28.6942 16.3457 -46.9521 29.8228 16.4878 -46.9429 
30.6899 17.0406 -47.5604 30.895 16.2511 -47.2233 31.2676 16.6123 -47.6668 
25.9634 15.6657 -47.2338 25.5182 15.8766 -47.5864 25.2263 15.1368 -47.5089 
26.6863 15.4052 -46.9 27.6893 15.655 -46.9225 28.6897 15.6391 -46.9496 
29.7695 15.4269 -46.9578 30.7228 15.4492 -47.0333 31.8078 16.1256 -47.6924 
31.5856 15.4256 -47.22 32.288 15.3545 -47.7735 25.8124 14.7608 -46.9975 
25.1033 14.1562 -47.6376 30.8652 14.4002 -46.8685 31.5962 14.4647 -47.1367 
32.0767 14.628 -47.5136 25.5954 13.7218 -46.9909 25.2481 13.2873 -47.5317 
31.6911 13.5075 -46.8839 32.127 13.5596 -47.5297 25.7115 12.675 -47.0112 
25.304 12.5633 -47.826 32.2385 12.4787 -47.6038 25.8444 11.9399 -47.3735 
26.6279 11.4326 -47.0139 26.1671 11.4324 -47.8518 29.7487 11.3059 -47.2157 
29.4275 11.7643 -47.6942 29.7712 11.8782 -47.6826 30.2474 11.3817 -47.5195 
32.4562 11.7381 -47.7623 26.9801 10.9692 -47.5487 27.5121 10.562 -47.092 
27.4206 10.5549 -47.6771 29.7592 11.0714 -47.4576 30.3619 10.7251 -47.2666 
30.2309 10.307 -47.7618 30.8714 11.0446 -47.7375 31.1229 10.5126 -47.592 
32.7462 11.0571 -47.1725 33.1391 10.5246 -47.5588 27.7408 10.2339 -47.3566 
28.0614 9.74421 -47.5771 30.8266 10.1411 -47.4961 33.3759 9.67001 -47.6831 
28.7299 8.44321 -46.8256 28.2786 8.48127 -47.6954 32.7312 8.41318 -46.9602 
33.2325 8.57138 -47.5089 28.8753 7.80521 -47.297 29.5622 7.45969 -47.1799 
29.0365 7.3095 -47.6661 30.4393 7.41365 -46.99 31.4042 7.3989 -47.0392 
32.207 7.40418 -47.532 32.6945 7.91103 -47.5127 29.7303 7.0935 -47.6402 
30.7895 6.90019 -47.5955 31.6838 6.90047 -47.6372 35.0529 4.49873 -47.2877 
35.7112 4.99453 -47.7549 36.9096 4.57726 -47.1213 36.6214 4.93704 -47.42 
37.4682 4.46438 -47.3091 37.6351 4.84983 -47.5969 38.1102 4.59356 -47.6378 
34.9089 3.62726 -47.0081 34.4852 4.13502 -47.7044 34.2478 3.40246 -47.4975 
35.5233 3.49979 -46.8759 36.1351 3.57831 -47.135 36.9176 4.01127 -47.3664 
37.7605 4.19587 -47.572 34.023 2.36371 -47.5965 36.6742 2.12635 -47.101 
36.4579 2.87478 -47.2887 37.0166 2.49119 -47.6852 32.6867 1.35927 -46.8788 
33.7274 1.62779 -47.1264 33.7434 1.6749 -47.694 33.3366 1.20929 -47.5682 
36.7128 1.54766 -46.8826 37.1805 1.6384 -47.4478 32.8128 1.08515 -47.3906 
32.1301 0.671314 -47.4895 37.7012 0.445056 -47.2067 37.6864 0.93444 -47.541 
38.1107 0.516108 -47.672 32.5064 -0.476315 -46.8416 32.0918 -0.690836 -47.5885 
36.7048 -0.864178 -46.9344 37.2143 -0.386955 -47.2321 37.7683 0.0946582 -47.4162 
32.602 -1.23163 -47.0795 32.3913 -1.55889 -47.7561 36.5006 -1.88858 -47.0194 
37.196 -1.30937 -47.511 32.9108 -1.87748 -47.2772 33.4878 -2.31815 -47.3801 
33.9659 -2.68 -47.571 35.7612 -2.59648 -46.8265 36.4332 -2.63244 -47.2499 
37.1056 -2.28529 -47.5694 34.6786 -2.97414 -47.6096 35.8044 -3.0082 -47.4915 
36.8875 -2.91832 -47.7922 33.8394 23.3133 -48.124 33.9478 23.788 -48.7478 
33.2526 23.3777 -48.3868 34.669 23.3103 -48.2149 34.482 23.811 -48.4989 
34.9535 23.5511 -48.7447 23.8542 22.2398 -48.3009 23.5091 22.7071 -48.7673 
23.3278 22.262 -48.5001 24.0945 22.7284 -48.7084 25.8543 22.2427 -48.031 
25.7795 22.8382 -48.6727 25.1176 22.3161 -48.3852 26.6249 22.5433 -48.3177 
26.6292 22.8377 -48.6206 27.1299 22.4281 -48.7637 31.9656 22.4354 -48.2617 
31.6023 22.7983 -48.8275 31.404 22.3456 -48.5304 32.9109 22.5851 -48.0572 
32.671 23.0174 -48.6502 33.6392 22.5316 -47.9256 34.499 22.5084 -48.0095 
35.2194 22.7762 -48.738 36.6937 22.1579 -48.2386 36.8056 22.6153 -48.5686 
36.5103 22.5388 -48.4913 37.0194 22.2214 -48.827 23.7167 21.6174 -47.9683 
23.188 21.4722 -48.4327 24.4782 22.24 -48.404 24.6377 21.8 -47.958 
26.4751 22.0287 -48.4932 26.2266 21.2864 -48.374 31.7807 21.91 -48.361 
31.8454 21.31 -48.3755 32.3519 21.5245 -48.0654 33.7699 21.4193 -47.7358 
[...]
CELL_DATA 36732
SCALARS scalars float
LOOKUP_TABLE default
1011 1011 1011 1011 1011 1011 1011 1011 1011 
1011 1011 1011 1011 1011 1011 1011 1011 1011 
1011 1011 1011 1011 1011 1011 1011 1011 1011 
1011 1011 1011 1011 1011 1011 1011 1011 1011 
1011 1011 1011 1011 1011 1011 1011 1011 1011 
1011 1011 1011 1011 1011 1011 1011 1011 1011 
1011 1011 1011 1011 1011 1011 1011 1011 1011 
1011 1011 1011 1011 1011 1011 1011 1011 1011 
1011 1011 1011 1011 1011 1011 1011 1011 1011 
1011 1011 1011 1011 1011 1011 1011 1011 1011 
1011 1011 1011 1011 1011 1011 1011 1011 1011 
1011 1011 1011 1011 1011 1011 1011 1011 1011 
1011 1011 1011 1011 1011 1011 1011 1011 1011 
1011 1011 1011 1011 1011 1011 1011 1011 1011 
1011 1011 1011 1011 1011 1011 1011 1011 1011 
1011 1011 1011 1011 1011 1011 1011 1011 1011 
1011 1011 1011 1011 1011 1011 1011 1011 1011 
1011 1011 1011 1011 1011 1011 1011 1011 1011 
1011 1011 1011 1011 1011 1011 1011 1011 1011 
1011 1011 1011 1011 1011 1011 1011 1011 1011 
1011 1011 1011 1011 1011 1011 1011 1011 1011 
1011 1011 1011 1011 1011 1011 1011 1011 1011 
1011 1011 1011 1011 1011 1011 1011 1011 1011 
1011 1011 1011 1011 1011 1011 1011 1011 1011 
1011 1011 1011 1011 1011 1011 1011 1011 1011 
1011 1011 1011 1011 1011 1011 1011 1011 1011 
1011 1011 1011 1011 1011 1011 1011 1011 1011 
1011 1011 1011 1011 1011 1011 1011 1011 1011 
1011 1011 1011 1011 1011 1011 1011 1011 1011 
1011 1011 1011 1011 1011 1011 1011 1011 1011 
1011 1011 1011 1011 1011 1011 1011 1011 1011 
1011 1011 1011 1011 1011 1011 1011 1011 1011 
1011 1011 1011 1011 1011 1011 1011 1011 1011 
1011 1011 1011 1011 1011 1011 1011 1011 1011 
1011 1011 1011 1011 1011 1011 1011 1011 1011 
1011 1011 1011 1011 1011 1011 1011 1011 1011 
1011 1011 1011 1011 1011 1011 1011 1011 1011 
1011 1011 1011 1011 1011 1011 1011 1011 1011 
1011 1011 1011 1011 1011 1011 1011 1011 1011 
1011 1011 1011 1011 1011 1011 1011 1011 1011 
1011 1011 1011 1011 1011 1011 1011 1011 1011 
1011 1011 1011 1011 1011 1011 1011 1011 1011 
1011 1011 1011 1011 1011 1011 1011 1011 1011 
1011 1011 1011 1011 1011 1011 1011 1011 1011 
1011 1011 1011 1011 1011 1011 1011 1011 1011 
1011 1011 1011 1011 1011 1011 1011 1011 1011 
1011 1011 1011 1011 1011 1011 1011 1011 1011 
1011 1011 1011 1011 1011 1011 1011 1011 1011 
1011 1011 1011 1011 1011 1011 1011 1011 1011 
1011 1011 1011 1011 1011 1011 1011 1011 1011 
1011 1011 1011 1011 1011 1011 1011 1011 1011 
1011 1011 1011 1011 1011 1011 1011 1011 1011 
1011 1011 1011 1011 1011 1011 1011 1011 1011 
1011 1011 1011 1011 1011 1011 1011 1011 1011 
1011 1011 1011 1011 1011 1011 1011 1011 1011 
1011 1011 1011 1011 1011 1011 1011 1011 1011 
1011 1011 1011 1011 1011 1011 1011 1011 1011 
1011 1011 1011 1011 1011 1011 1011 1011 1011 
1011 1011 1011 1011 1011 1011 1011 1011 1011 
1011 1011 1011 1011 1011 1011 1011 1011 1011 
1011 1011 1011 1011 1011 1011 1011 1011 1011 
1011 1011 1011 1011 1011 1011 1011 1011 1011 
1011 1011 1011 1011 1011 1011 1011 1011 1011 
1011 1011 1011 1011 1011 1011 1011 1011 1011 
1011 1011 1011 1011 1011 1011 1011 1011 1011 
1011 1011 1011 1011 1011 1011 1011 1011 1011 
1011 1011 1011 1011 1011 1011 1011 1011 1011 
1011 1011 1011 1011 1011 1011 1011 1011 1011 
1011 1011 1011 1011 1011 1011 1011 1011 1011 
1011 1011 1011 1011 1011 1011 1011 1011 1011 
1011 1011 1011 1011 1011 1011 1011 1011 1011 
1011 1011 1011 1011 1011 1011 1011 1011 1011 
1011 1011 1011 1011 1011 1011 1011 1011 1011 
1011 1011 1011 1011 1011 1011 1011 1011 1011 
1011 1011 1011 1011 1011 1011 1011 1011 1011 
1011 1011 1011 1011 1011 1011 1011 1011 1011 
1011 1011 1011 1011 1011 1011 1011 1011 1011 
1011 1011 1011 1011 1011 1011 1011 1011 1011 
1011 1011 1011 1011 1011 1011 1011 1011 1011 
1011 1011 1011 1011 1011 1011 1011 1011 1011 
1011 1011 1011 1011 1011 1011 1011 1011 1011 
1011 1011 1011 1011 1011 1011 1011 1011 1011 
1011 1011 1011 1011 1011 1011 1011 1011 1011 
1011 1011 1011 1011 1011 1011 1011 1011 1011 
1011 1011 1011 1011 1011 1011 1011 1011 1011 
1011 1011 1011 1011 1011 1011 1011 1011 1011 
1011 1011 1011 1011 1011 1011 1011 1011 1011 
1011 1011 1011 1011 1011 1011 1011 1011 1011 
1011 1011 1011 1011 1011 1011 1011 1011 1011 
1011 1011 1011 1011 1011 1011 1011 1011 1011 
1011 1011 1011 1011 1011 1011 1011 1011 1011 
1011 1011 1011 1011 1011 1011 1011 1011 1011 
1011 1011 1011 1011 1011 1011 1011 1011 1011 
1011 1011 1011 1011 1011 1011 1011 1011 1011 
1011 1011 1011 1011 1011 1011 1011 1011 1011 
1011 1011 1011 1011 1011 1011 1011 1011 1011 
1011 1011 1011 1011 1011 1011 1011 1011 1011 
1011 1011 1011 1011 1011 1011 1011 1011 1011 
1011 1011 1011 1011 1011 1011 1011 1011 1011 
1011 1011 1011 1011 1011 1011 1011 1011 1011 
1011 1011 1011 1011 1011 1011 1011 1011 1011 
1011 1011 1011 1011 1011 1011 1011 1011 1011 
1011 1011 1011 1011 1011 1011 1011 1011 1011 
1011 1011 1011 1011 1011 1011 1011 1011 1011 
1011 1011 1011 1011 1011 1011 1011 1011 1011 
1011 1011 1011 1011 1011 1011 1011 1011 1011 
1011 1011 1011 1011 1011 1011 1011 1011 1011 
1011 1011 1011 1011 1011 1011 1011 1011 1011 
1011 1011 1011 1011 1011 1011 1011 1011 1011 
1011 1011 1011 1011 1011 1011 1011 1011 1011 
1011 1011 1011 1011 1011 1011 1011 1011 1011 
1011 1011 1011 1011 1011 1011 1011 1011 1011 
1011 1011 1011 1011 1011 1011 1011 1011 1011 
1011 1011 1011 1011 1011 1011 1011 1011 1011 
1011 1011 1011 1011 1011 1011 1011 1011 1011 
1011 1011 1011 1011 1011 1011 1011 1011 1011 
1011 1011 1011 1011 1011 1011 1011 1011 1011 
1011 1011 1011 1011 1011 1011 1011 1011 1011 
1011 1011 1011 1011 1011 1011 1011 1011 1011 
1011 1011 1011 1011 1011 1011 1011 1011 1011 
1011 1011 1011 1011 1011 1011 1011 1011 1011 
1011 1011 1011 1011 1011 1011 1011 1011 1011 
1011 1011 1011 1011 1011 1011 1011 1011 1011 
1011 1011 1011 1011 1011 1011 1011 1011 1011 
1011 1011 1011 1011 1011 1011 1011 1011 1011 
1011 1011 1011 1011 1011 1011 1011 1011 1011 
1011 1011 1011 1011 1011 1011 1011 1011 1011 
1011 1011 1011 1011 1011 1011 1011 1011 1011 
1011 1011 1011 1011 1011 1011 1011 1011 1011 
1011 1011 1011 1011 1011 1011 1011 1011 1011 
1011 1011 1011 1011 1011 1011 1011 1011 1011 
1011 1011 1011 1011 1011 1011 1011 1011 1011 
1011 1011 1011 1011 1011 1011 1011 1011 1011 
1011 1011 1011 1011 1011 1011 1011 1011 1011 
1011 1011 1011 1011 1011 1011 1011 1011 1011 
1011 1011 1011 1011 1011 1011 1011 1011 1011 
1011 1011 1011 1011 1011 1011 1011 1011 1011 
1011 1011 1011 1011 1011 1011 1011 1011 1011 
1011 1011 1011 1011 1011 1011 1011 1011 1011 
1011 1011 1011 1011 1011 1011 1011 1011 1011 
1011 1011 1011 1011 1011 1011 1011 1011 1011 
1011 1011 1011 1011 1011 1011 1011 1011 1011 
1011 1011 1011 1011 1011 1011 1011 1011 1011 
1011 1011 1011 1011 1011 1011 1011 1011 1011 
1011 1011 1011 1011 1011 1011 1011 1011 1011 
1011 1011 1011 1011 1011 1011 1011 1011 1011 
1011 1011 1011 1011 1011 1011 1011 1011 1011 
1011 1011 1011 1011 1011 1011 1011 1011 1011 
1011 1011 1011 1011 1011 1011 1011 1011 1011 
1011 1011 1011 1011 1011 1011 1011 1011 1011 
1011 1011 1011 1011 1011 1011 1011 1011 1011 
1011 1011 1011 1011 1011 1011 1011 1011 1011 
1011 1011 1011 1011 1011 1011 1011 1011 1011 
1011 1011 1011 1011 1011 1011 1011 1011 1011 
1011 1011 1011 1011 1011 1011 1011 1011 1011 
1011 1011 1011 1011 1011 1011 1011 1011 1011 
1011 1011 1011 1011 1011 1011 1011 1011 1011 
1011 1011 1011 1011 1011 1011 1011 1011 1011 
1011 1011 1011 1011 1011 1011 1011 1011 1011 
1011 1011 1011 1011 1011 1011 1011 1011 1011 
1011 1011 1011 1011 1011 1011 1011 1011 1011 
1011 1011 1011 1011 1011 1011 1011 1011 1011 
1011 1011 1011 1011 1011 1011 1011 1011 1011 
1011 1011 1011 1011 1011 1011 1011 1011 1011 
1011 1011 1011 1011 1011 1011 1011 1011 1011 
1011 1011 1011 1011 1011 1011 1011 1011 1011 
1011 1011 1011 1011 1011 1011 1011 1011 1011 
1011 1011 1011 1011 1011 1011 1011 1011 1011 
1011 1011 1011 1011 1011 1011 1011 1011 1011 
1011 1011 1011 1011 1011 1011 1011 1011 1011 
1011 1011 1011 1011 1011 1011 1011 1011 1011 
1011 1011 1011 1011 1011 1011 1011 1011 1011 
1011 1011 1011 1011 1011 1011 1011 1011 1011 
1011 1011 1011 1011 1011 1011 1011 1011 1011 
1011 1011 1011 1011 1011 1011 1011 1011 1011 
1011 1011 1011 1011 1011 1011 1011 1011 1011 
1011 1011 1011 1011 1011 1011 1011 1011 1011 
1011 1011 1011 1011 1011 1011 1011 1011 1011 
1011 1011 1011 1011 1011 1011 1011 1011 1011 
1011 1011 1011 1011 1011 1011 1011 1011 1011 
1011 1011 1011 1011 1011 1011 1011 1011 1011 
1011 1011 1011 1011 1011 1011 1011 1011 1011 
1011 1011 1011 1011 1011 1011 1011 1011 1011 
1011 1011 1011 1011 1011 1011 1011 1011 1011 
1011 1011 1011 1011 1011 1011 1011 1011 1011 
1011 1011 1011 1011 1011 1011 1011 1011 1011 
1011 1011 1011 1011 1011 1011 1011 1011 1011 
1011 1011 1011 1011 1011 1011 1011 1011 1011 
1011 1011 1011 1011 1011 1011 1011 1011 1011 
1011 1011 1011 1011 1011 1011 1011 1011 1011 
1011 1011 1011 1011 1011 1011 1011 1011 1011 
1011 1011 1011 1011 1011 1011 1011 1011 1011 
1011 1011 1011 1011 1011 1011 1011 1011 1011 
1011 1011 1011 1011 1011 1011 1011 1011 1011 
1011 1011 1011 1011 1011 1011 1011 1011 1011 
1011 1011 1011 1011 1011 1011 1011 1011 1011 
1011 1011 1011 1011 1011 1011 1011 1011 1011 
1011 1011 1011 1011 1011 1011 1011 1011 1011 
1011 1011 1011 1011 1011 1011 1011 1011 1011 
1011 1011 1011 1011 1011 1011 1011 1011 1011 
1011 1011 1011 1011 1011 1011 1011 1011 1011 
1011 1011 1011 1011 1011 1011 1011 1011 1011 
1011 1011 1011 1011 1011 1011 1011 1011 1011 
1011 1011 1011 1011 1011 1011 1011 1011 1011 
1011 1011 1011 1011 1011 1011 1011 1011 1011 
1011 1011 1011 1011 1011 1011 1011 1011 1011 
1011 1011 1011 1011 1011 1011 1011 1011 1011 
1011 1011 1011 1011 1011 1011 1011 1011 1011 
1011 1011 1011 1011 1011 1011 1011 1011 1011 
1011 1011 1011 1011 1011 1011 1011 1011 1011 
1011 1011 1011 1011 1011 1011 1011 1011 1011 
1011 1011 1011 1011 1011 1011 1011 1011 1011 
1011 1011 1011 1011 1011 1011 1011 1011 1011 
1011 1011 1011 1011 1011 1011 1011 1011 1011 
1011 1011 1011 1011 1011 1011 1011 1011 1011 
1011 1011 1011 1011 1011 1011 1011 1011 1011 
1011 1011 1011 1011 1011 1011 1011 1011 1011 
1011 1011 1011 1011 1011 1011 1011 1011 1011 
1011 1011 1011 1011 1011 1011 1011 1011 1011 
1011 1011 1011 1011 1011 1011 1011 1011 1011 
1011 1011 1011 1011 1011 1011 1011 1011 1011 
1011 1011 1011 1011 1011 1011 1011 1011 1011 
1011 1011 1011 1011 1011 1011 1011 1011 1011 
1011 1011 1011 1011 1011 1011 1011 1011 1011 
1011 1011 1011 1011 1011 1011 1011 1011 1011 
1011 1011 1011 1011 1011 1011 1011 1011 1011 
1011 1011 1011 1011 1011 1011 1011 1011 1011 
1011 1011 1011 1011 1011 1011 1011 1011 1011 
1011 1011 1011 1011 1011 1011 1011 1011 1011 
1011 1011 1011 1011 1011 1011 1011 1011 1011 
1011 1011 1011 1011 1011 1011 1011 1011 1011 
1011 1011 1011 1011 1011 1011 1011 1011 1011 
1011 1011 1011 1011 1011 1011 1011 1011 1011 
1011 1011 1011 1011 1011 1011 1011 1011 1011 
1011 1011 1011 1011 1011 1011 1011 1011 1011 
1011 1011 1011 1011 1011 1011 1011 1011 1011 
1011 1011 1011 1011 1011 1011 1011 1011 1011 
1011 1011 1011 1011 1011 1011 1011 1011 1011 
1011 1011 1011 1011 1011 1011 1011 1011 1011 
1011 1011 1011 1011 1011 1011 1011 1011 1011 
1011 1011 1011 1011 1011 1011 1011 1011 1011 
1011 1011 1011 1011 1011 1011 1011 1011 1011 
1011 1011 1011 1011 1011 1011 1011 1011 1011 
1011 1011 1011 1011 1011 1011 1011 1011 1011 
1011 1011 1011 1011 1011 1011 1011 1011 1011 
1011 1011 1011 1011 1011 1011 1011 1011 1011 
1011 1011 1011 1011 1011 1011 1011 1011 1011 
1011 1011 1011 1011 1011 1011 1011 1011 1011 
1011 1011 1011 1011 1011 1011 1011 1011 1011 
1011 1011 1011 1011 1011 1011 1011 1011 1011 
1011 1011 1011 1011 1011 1011 1011 1011 1011 
1011 1011 1011 1011 1011 1011 1011 1011 1011 
1011 1011 1011 1011 1011 1011 1011 1011 1011 
1011 1011 1011 1011 1011 1011 1011 1011 1011 
1011 1011 1011 1011 1011 1011 1011 1011 1011 
1011 1011 1011 1011 1011 1011 1011 1011 1011 
1011 1011 1011 1011 1011 1011 1011 1011 1011 
1011 1011 1011 1011 1011 1011 1011 1011 1011 
1011 1011 1011 1011 1011 1011 1011 1011 1011 
1011 1011 1011 1011 1011 1011 1011 1011 1011 
1011 1011 1011 1011 1011 1011 1011 1011 1011 
1011 1011 1011 1011 1011 1011 1011 1011 1011 
1011 1011 1011 1011 1011 1011 1011 1011 1011 
1011 1011 1011 1011 1011 1011 1011 1011 1011 
1011 1011 1011 1011 1011 1011 1011 1011 1011 
1011 1011 1011 1011 1011 1011 1011 1011 1011 
1011 1011 1011 1011 1011 1011 1011 1011 1011 
1011 1011 1011 1011 1011 1011 1011 1011 1011 
1011 1011 1011 1011 1011 1011 1011 1011 1011 
1011 1011 1011 1011 1011 1011 1011 1011 1011 
1011 1011 1011 1011 1011 1011 1011 1011 1011 
1011 1011 1011 1011 1011 1011 1011 1011 1011 
1011 1011 1011 1011 1011 1011 1011 1011 1011 
1011 1011 1011 1011 1011 1011 1011 1011 1011 
1011 1011 1011 1011 1011 1011 1011 1011 1011 
1011 1011 1011 1011 1011 1011 1011 1011 1011 
1011 1011 1011 1011 1011 1011 1011 1011 1011 
1011 1011 1011 1011 1011 1011 1011 1011 1011 
1011 1011 1011 1011 1011 1011 1011 1011 1011 
1011 1011 1011 1011 1011 1011 1011 1011 1011 
1011 1011 1011 1011 1011 1011 1011 1011 1011 
1011 1011 1011 1011 1011 1011 1011 1011 1011 
1011 1011 1011 1011 1011 1011 1011 1011 1011 
1011 1011 1011 1011 1011 1011 1011 1011 1011 
1011 1011 1011 1011 1011 1011 1011 1011 1011 
1011 1011 1011 1011 1011 1011 1011 1011 1011 
1011 1011 1011 1011 1011 1011 1011 1011 1011 
1011 1011 1011 1011 1011 1011 1011 1011 1011 
1011 1011 1011 1011 1011 1011 1011 1011 1011 
1011 1011 1011 1011 1011 1011 1011 1011 1011 
1011 1011 1011 1011 1011 1011 1011 1011 1011 
1011 1011 1011 1011 1011 1011 1011 1011 1011 
1011 1011 1011 1011 1011 1011 1011 1011 1011 
1011 1011 1011 1011 1011 1011 1011 1011 1011 
1011 1011 1011 1011 1011 1011 1011 1011 1011 
1011 1011 1011 1011 1011 1011 1011 1011 1011 
1011 1011 1011 1011 1011 1011 1011 1011 1011 
1011 1011 1011 1011 1011 1011 1011 1011 1011 
1011 1011 1011 1011 1011 1011 1011 1011 1011 
1011 1011 1011 1011 1011 1011 1011 1011 1011 
1011 1011 1011 1011 1011 1011 1011 1011 1011 
1011 1011 1011 1011 1011 1011 1011 1011 1011 
1011 1011 1011 1011 1011 1011 1011 1011 1011 
1011 1011 1011 1011 1011 1011 1011 1011 1011 
1011 1011 1011 1011 1011 1011 1011 1011 1011 
1011 1011 1011 1011 1011 1011 1011 1011 1011 
1011 1011 1011 1011 1011 1011 1011 1011 1011 
1011 1011 1011 1011 1011 1011 1011 1011 1011 
1011 1011 1011 1011 1011 1011 1011 1011 1011 
1011 1011 1011 1011 1011 1011 1011 1011 1011 
1011 1011 1011 1011 1011 1011 1011 1011 1011 
1011 1011 1011 1011 1011 1011 1011 1011 1011 
1011 1011 1011 1011 1011 1011 1011 1011 1011 
1011 1011 1011 1011 1011 1011 1011 1011 1011 
1011 1011 1011 1011 1011 1011 1011 1011 1011 
1011 1011 1011 1011 1011 1011 1011 1011 1011 
1011 1011 1011 1011 1011 1011 1011 1011 1011 
1011 1011 1011 1011 1011 1011 1011 1011 1011 
1011 1011 1011 1011 1011 1011 1011 1011 1011 
1011 1011 1011 1011 1011 1011 1011 1011 1011 
1011 1011 1011 1011 1011 1011 1011 1011 1011 
1011 1011 1011 1011 1011 1011 1011 1011 1011 
1011 1011 1011 1011 1011 1011 1011 1011 1011 
1011 1011 1011 1011 1011 1011 1011 1011 1011 
1011 1011 1011 1011 1011 1011 1011 1011 1011 
1011 1011 1011 1011 1011 1011 1011 1011 1011 
1011 1011 1011 1011 1011 1011 1011 1011 1011 
1011 1011 1011 1011 1011 1011 1011 1011 1011 
1011 1011 1011 1011 1011 1011 1011 1011 1011 
1011 1011 1011 1011 1011 1011 1011 1011 1011 
1011 1011 1011 1011 1011 1011 1011 1011 1011 
1011 1011 1011 1011 1011 1011 1011 1011 1011 
1011 1011 1011 1011 1011 1011 1011 1011 1011 
1011 1011 1011 1011 1011 1011 1011 1011 1011 
1011 1011 1011 1011 1011 1011 1011 1011 1011 
1011 1011 1011 1011 1011 1011 1011 1011 1011 
1011 1011 1011 1011 1011 1011 1011 1011 1011 
1011 1011 1011 1011 1011 1011 1011 1011 1011 
1011 1011 1011 1011 1011 1011 1011 1011 1011 
1011 1011 1011 1011 1011 1011 1011 1011 1011 
1011 1011 1011 1011 1011 1011 1011 1011 1011 
1011 1011 1011 1011 1011 1011 1011 1011 1011 
1011 1011 1011 1011 1011 1011 1011 1011 1011 
1011 1011 1011 1011 1011 1011 1011 1011 1011 
1011 1011 1011 1011 1011 1011 1011 1011 1011 
1011 1011 1011 1011 1011 1011 1011 1011 1011 
1011 1011 1011 1011 1011 1011 1011 1011 1011 
1011 1011 1011 1011 1011 1011 1011 1011 1011 
1011 1011 1011 1011 1011 1011 1011 1011 1011 
1011 1011 1011 1011 1011 1011 1011 1011 1011 
1011 1011 1011 1011 1011 1011 1011 1011 1011 
1011 1011 1011 1011 1011 1011 1011 1011 1011 
1011 1011 1011 1011 1011 1011 1011 1011 1011 
1011 1011 1011 1011 1011 1011 1011 1011 1011 
1011 1011 1011 1011 1011 1011 1011 1011 1011 
1011 1011 1011 1011 1011 1011 1011 1011 1011 
1011 1011 1011 1011 1011 1011 1011 1011 1011 
1011 1011 1011 1011 1011 1011 1011 1011 1011 
1011 1011 1011 1011 1011 1011 1011 1011 1011 
1011 1011 1011 1011 1011 1011 1011 1011 1011 
1011 1011 1011 1011 1011 1011 1011 1011 1011 
1011 1011 1011 1011 1011 1011 1011 1011 1011 
1011 1011 1011 1011 1011 1011 1011 1011 1011 
1011 1011 1011 1011 1011 1011 1011 1011 1011 
1011 1011 1011 1011 1011 1011 1011 1011 1011 
1011 1011 1011 1011 1011 1011 1011 1011 1011 
1011 1011 1011 1011 1011 1011 1011 1011 1011 
1011 1011 1011 1011 1011 1011 1011 1011 1011 
1011 1011 1011 1011 1011 1011 1011 1011 1011 
1011 1011 1011 1011 1011 1011 1011 1011 1011 
1011 1011 1011 1011 1011 1011 1011 1011 1011 
1011 1011 1011 1011 1011 1011 1011 1011 1011 
1011 1011 1011 1011 1011 1011 1011 1011 1011 
1011 1011 1011 1011 1011 1011 1011 1011 1011 
1011 1011 1011 1011 1011 1011 1011 1011 1011 
1011 1011 1011 1011 1011 1011 1011 1011 1011 
1011 1011 1011 1011 1011 1011 1011 1011 1011 
1011 1011 1011 1011 1011 1011 1011 1011 1011 
1011 1011 1011 1011 1011 1011 1011 1011 1011 
1011 1011 1011 1011 1011 1011 1011 1011 1011 
1011 1011 1011 1011 1011 1011 1011 1011 1011 
1011 1011 1011 1011 1011 1011 1011 1011 1011 
1011 1011 1011 1011 1011 1011 1011 1011 1011 
1011 1011 1011 1011 1011 1011 1011 1011 1011 
1011 1011 1011 1011 1011 1011 1011 1011 1011 
1011 1011 1011 1011 1011 1011 1011 1011 1011 
1011 1011 1011 1011 1011 1011 1011 1011 1011 
1011 1011 1011 1011 1011 1011 1011 1011 1011 
1011 1011 1011 1011 1011 1011 1011 1011 1011 
1011 1011 1011 1011 1011 1011 1011 1011 1011 
1011 1011 1011 1011 1011 1011 1011 1011 1011 
1011 1011 1011 1011 1011 1011 1011 1011 1011 
1011 1011 1011 1011 1011 1011 1011 1011 1011 
1011 1011 1011 1011 1011 1011 1011 1011 1011 
1011 1011 1011 1011 1011 1011 1011 1011 1011 
1011 1011 1011 1011 1011 1011 1011 1011 1011 
1011 1011 1011 1011 1011 1011 1011 1011 1011 
1011 1011 1011 1011 1011 1011 1011 1011 1011 
1011 1011 1011 1011 1011 1011 1011 1011 1011 
1011 1011 1011 1011 1011 1011 1011 1011 1011 
1011 1011 1011 1011 1011 1011 1011 1011 1011 
1011 1011 1011 1011 1011 1011 1011 1011 1011 
1011 1011 1011 1011 1011 1011 1011 1011 1011 
1011 1011 1011 1011 1011 1011 1011 1011 1011 
1011 1011 1011 1011 1011 1011 1011 1011 1011 
1011 1011 1011 1011 1011 1011 1011 1011 1011 
1011 1011 1011 1011 1011 1011 1011 1011 1011 
1011 1011 1011 1011 1011 1011 1011 1011 1011 
1011 1011 1011 1011 1011 1011 1011 1011 1011 
1011 1011 1011 1011 1011 1011 1011 1011 1011 
1011 1011 1011 1011 1011 1011 1011 1011 1011 
1011 1011 1011 1011 1011 1011 1011 1011 1011 
1011 1011 1011 1011 1011 1011 1011 1011 1011 
1011 1011 1011 1011 1011 1011 1011 1011 1011 
1011 1011 1011 1011 1011 1011 1011 1011 1011 
1011 1011 1011 1011 1011 1011 1011 1011 1011 
1011 1011 1011 1011 1011 1011 1011 1011 1011 
1011 1011 1011 1011 1011 1011 1011 1011 1011 
1011 1011 1011 1011 1011 1011 1011 1011 1011 
1011 1011 1011 1011 1011 1011 1011 1011 1011 
1011 1011 1011 1011 1011 1011 1011 1011 1011 
1011 1011 1011 1011 1011 1011 1011 1011 1011 
1011 1011 1011 1011 1011 1011 1011 1011 1011 
1011 1011 1011 1011 1011 1011 1011 1011 1011 
1011 1011 1011 1011 1011 1011 1011 1011 1011 
1011 1011 1011 1011 1011 1011 1011 1011 1011 
1011 1011 1011 1011 1011 1011 1011 1011 1011 
1011 1011 1011 1011 1011 1011 1011 1011 1011 
1011 1011 1011 1011 1011 1011 1011 1011 1011 
1011 1011 1011 1011 1011 1011 1011 1011 1011 
1011 1011 1011 1011 1011 1011 1011 1011 1011 
1011 1011 1011 1011 1011 1011 1011 1011 1011 
1011 1011 1011 1011 1011 1011 1011 1011 1011 