# vtk DataFile Version 4.2
vtk output
ASCII
DATASET POLYDATA
POINTS 5914 float
-48.9345 43.7313 14.4903 -48.7647 43.4542 14.7035 -48.2157 43.273 14.5453 
-49.7061 43.8212 14.4465 -49.4136 43.3836 14.9243 -50.5082 43.7458 14.3549 
-50.382 43.547 14.8945 -51.1506 43.2918 14.3986 -48.7761 43.4646 14.1416 
-49.835 43.4805 13.9164 -50.7417 43.4067 13.9241 -50.9163 42.8585 16.2581 
-50.6195 42.43 16.8645 -50.1092 42.5205 16.3365 -51.7417 42.7905 16.2617 
-51.4286 42.5206 16.956 -52.0605 42.265 16.6863 -47.8161 42.8116 15.186 
-47.6645 42.4684 15.7041 -47.2414 42.431 15.2848 -48.086 42.4166 15.6184 
-50.0368 42.9338 15.6197 -49.5258 42.364 15.8997 -49.2474 42.6333 15.3836 
-50.9658 43.1841 15.2945 -51.8158 42.9449 15.395 -52.2677 42.3302 15.6701 
-47.5156 42.8516 14.6664 -47.0858 42.3795 14.4893 -48.5967 42.8537 15.0955 
-51.7011 43.05 14.6953 -52.5832 42.5679 14.8924 -52.4481 42.7693 14.4738 
-53.0044 42.2063 14.3318 -47.7474 42.605 14.1136 -48.7 42.6561 13.7398 
-49.5925 42.8757 13.4514 -49.0398 42.3413 13.3315 -50.419 42.96 13.4209 
-51.2118 42.7938 13.6019 -51.998 42.6443 13.9135 -52.7897 42.3363 13.8947 
-49.8397 42.2367 13.0759 -50.9177 42.2252 13.0809 -49.8051 41.7407 17.3496 
-49.6353 41.4027 17.8132 -49.1132 41.5265 17.3174 -50.8676 41.9884 17.4116 
-50.6406 41.3587 18.0005 -51.7808 42.0168 17.3622 -51.5557 41.5154 17.7779 
-52.0695 41.4478 17.3553 -47.8244 41.9402 16.156 -47.6166 41.369 16.7598 
-47.1428 41.507 16.279 -48.9089 41.8026 16.6701 -48.3679 41.4507 17.0195 
-49.7574 42.103 16.6186 -52.2546 41.4598 16.4773 -46.8705 41.8237 15.6313 
-46.5498 41.3662 15.8656 -46.2458 41.4447 15.1115 -48.7927 42.1804 15.8207 
-52.4487 41.3285 15.6648 -46.6492 41.9144 14.7788 -46.3284 41.4137 14.3306 
-52.7624 41.8706 14.949 -53.1317 41.3136 14.6072 -46.9983 41.6636 13.9806 
-48.0166 41.4238 13.6955 -48.4478 41.8983 13.485 -48.333 41.461 13.4712 
-51.6985 42.1633 13.3025 -52.4758 41.9449 13.3959 -53.2553 41.5006 13.7571 
-48.883 41.7144 13.2238 -49.6787 41.3553 13.0966 -50.5485 41.6167 12.9081 
-51.7068 41.4888 12.9012 -52.8408 41.4431 13.0661 -44.8723 40.8254 18.229 
-44.7337 40.3386 18.8669 -44.0836 40.6079 18.3755 -45.9578 40.8297 18.3382 
-45.5087 40.482 18.8349 -46.9639 40.8329 18.3241 -46.389 40.3352 18.9959 
-47.9651 40.8673 18.3315 -47.4064 40.5027 18.9776 -48.8597 40.8469 18.4807 
-48.3965 40.5257 18.9803 -49.8397 40.9717 18.3763 -49.5723 40.3954 18.9856 
-50.8511 40.7979 18.4501 -50.666 40.3319 18.7992 -51.3626 40.2978 18.5842 
-42.7961 40.8622 17.2988 -42.637 40.2807 17.7674 -42.1222 40.4037 17.2742 
-43.9268 40.9018 17.542 -43.3192 40.3676 18.0877 -44.8404 40.9688 17.2966 
-45.6944 40.9719 17.4706 -46.5751 40.9799 17.6346 -47.6089 41.0794 17.4727 
-48.7708 41.1654 17.8006 -51.6075 40.8009 18.0816 -52.1428 40.3906 17.5353 
-41.9613 40.8935 16.5509 -41.6468 40.3535 16.7735 -41.3663 40.4339 16.1642 
-42.8053 41.0695 16.3444 -43.6662 41.0118 16.4721 -44.6777 40.9683 16.4678 
-45.522 40.9674 16.6257 -46.6338 41.1021 16.6659 -52.3979 40.3996 16.5559 
-41.7433 40.8319 15.5328 -41.3551 40.2869 15.4483 -42.6279 41.0627 15.4905 
-43.6694 41.0377 15.4287 -44.6987 40.9883 15.4375 -45.7443 41.0634 15.7077 
-52.6366 40.6245 15.8133 -52.799 41.0963 15.2313 -53.0392 40.3628 15.4655 
-41.762 40.4979 14.9349 -42.117 40.2508 14.5099 -42.4369 40.8222 14.7096 
-43.5726 40.9129 14.4441 -44.6893 40.986 14.4268 -45.695 41.0872 14.4995 
-53.3903 40.3941 14.4583 -42.7903 40.3566 13.9717 -43.8169 40.6011 13.7614 
-44.3417 40.4552 13.2681 -44.5563 40.8009 13.6812 -45.4834 40.8493 13.5509 
-46.5595 40.9648 13.4155 -47.5557 40.948 13.2281 -48.0255 40.5158 13.2507 
-48.6648 40.396 13.8609 -48.8511 41.0456 13.5442 -49.4845 40.414 13.7902 
-49.7697 40.7491 13.4204 -50.198 40.0967 13.3113 -53.7391 40.6227 13.7837 
-53.6196 40.974 13.1058 -54.0665 40.2806 13.4364 -45.0842 40.4734 12.9751 
-46.0348 40.3263 12.8307 -46.8414 40.4381 12.7368 -47.4201 40.2553 12.5374 
-47.4609 40.6596 12.5935 -47.9084 40.5353 12.5793 -50.6896 40.7972 12.8976 
-51.6179 40.8164 12.5214 -51.2686 40.3958 12.3007 -52.6361 40.9923 12.5317 
-53.539 40.7968 12.4565 -54.105 40.3501 12.773 -47.7827 40.4363 12.2447 
-52.0406 40.2931 12.013 -53.0285 40.3722 12.09 -53.8067 40.2763 12.2247 
-43.9032 39.801 19.475 -43.5678 39.21 19.825 -43.231 39.3926 19.1694 
-44.6301 39.8802 19.3261 -44.586 39.3793 19.7877 -45.2568 39.3617 19.5754 
-46.9851 39.918 19.4889 -46.6493 39.121 19.8147 -46.2579 39.6512 19.4266 
-47.9276 40.0452 19.5136 -47.6987 39.3412 19.8835 -48.9341 40.0209 19.497 
-48.7171 39.3623 19.9027 -49.7925 39.8399 19.4457 -49.65 39.3516 19.8179 
-50.3146 39.33 19.5905 -43.8478 40.1047 18.8367 -43.2598 39.6117 18.5072 
-45.547 39.8382 19.2287 -50.673 39.6016 19.1794 -51.833 40.0237 18.3479 
-51.4814 39.6463 18.7991 -52.0569 39.3446 18.3599 -42.8137 39.3709 17.9869 
-42.3245 39.6862 17.5062 -52.4083 39.3561 17.6017 -41.4978 39.8753 16.3382 
-41.9541 39.4177 16.7241 -52.6509 39.605 16.8753 -52.7524 40.0495 16.2676 
-53.0317 39.353 16.5104 -41.6716 39.2757 15.9272 -41.3727 39.7248 15.7055 
-53.2192 39.4739 15.4385 -41.6164 39.8108 14.9917 -41.9828 39.3489 14.4187 
-48.0208 39.7066 14.4357 -47.2953 39.4537 14.1116 -47.6721 39.4236 14.7962 
-48.5351 39.3737 14.9997 -48.7305 39.8212 14.3172 -49.2178 39.3054 14.5178 
-53.3456 39.2061 14.397 -41.9636 39.8146 13.5127 -41.6634 39.3144 13.7201 
-41.4843 39.5251 13.4534 -42.8176 40.1084 13.2083 -43.6445 40.2478 13.272 
-47.7652 39.9374 13.4959 -47.0857 39.4674 13.4831 -49.5874 39.7811 13.9511 
-50.0214 39.4527 13.264 -53.7827 39.8223 13.8853 -54.1278 39.4312 13.1336 
-41.7332 39.5953 13.0418 -42.1586 39.1644 12.3957 -42.4361 39.8152 12.6927 
-43.4296 39.8987 12.5419 -44.4766 39.9988 12.5654 -45.4346 39.892 12.3718 
-46.0073 39.6017 12.4356 -46.7048 39.7114 12.8688 -47.8567 40.2751 12.6022 
-50.802 40.0986 12.3854 -50.2528 39.5589 12.3344 -54.1862 39.4742 12.3057 
-42.9911 39.4771 11.9072 -44.0323 39.3065 11.8296 -44.923 39.4292 12.0157 
-45.5 39.1667 12.1161 -50.8175 39.8662 11.422 -50.2265 39.514 11.1547 
-51.4967 39.9763 11.5155 -52.2036 39.6496 11.4385 -52.8363 39.6185 11.7181 
-53.6734 39.5471 11.8648 -50.7109 39.758 10.6289 -50.3581 39.4282 10.315 
-51.3398 39.78 10.5961 -52.0897 39.5053 10.7643 -51.008 39.3241 9.99131 
-51.9086 39.2362 10.1322 -32.7915 39.8346 8.14674 -32.8449 39.3166 8.76229 
-32.0778 39.44 8.56939 -33.3332 39.3753 8.57789 -31.9523 39.9387 7.49078 
-31.4881 39.4191 8.08215 -31.2952 39.4348 7.37216 -32.6368 40.1052 7.42659 
-33.7766 39.3485 8.1369 -33.3258 39.8225 7.39073 -34.0956 39.3642 7.60229 
-31.7465 39.8905 6.46604 -31.3662 39.2973 6.67926 -32.7708 39.9877 6.46399 
-33.4126 39.6119 6.64453 -33.8514 39.4276 7.08975 -31.8865 39.3927 6.02777 
-32.3869 39.4357 5.46273 -32.5686 39.9154 5.46472 -33.5298 39.5982 6.00079 
-33.4915 39.8282 5.30843 -34.0125 39.4212 5.48956 -32.7785 39.6473 4.9289 
-33.202 39.1676 4.55098 -33.3953 39.757 4.61346 -34.1216 39.4838 4.69501 
-33.9304 39.2274 4.12928 -40.7201 39.6738 0.482472 -40.4743 39.3145 0.734741 
-40.4991 39.5254 0.333635 -40.955 39.2009 0.434826 -40.8578 39.4194 0.0880956 
-38.6568 39.6383 -1.5702 -38.6312 39.2772 -1.36286 -38.4912 39.3356 -1.62842 
-39.0927 39.2576 -1.5605 -38.666 39.4766 -1.75135 -42.7749 38.9451 19.5587 
-42.8331 38.3302 19.8684 -42.4351 38.2787 19.4505 -43.7814 38.3707 20.046 
-44.6484 38.5183 20.0252 -45.8501 39.2309 19.5796 -45.7448 38.5955 19.9083 
-46.8511 38.2593 20.0159 -47.6905 38.4311 20.0176 -48.7369 38.4601 20.0349 
-49.7411 38.4924 20.0173 -50.9297 38.8777 19.458 -50.496 38.6542 19.8124 
-51.2097 38.0959 19.4999 -42.7096 38.5842 19.1434 -42.9624 38.577 18.5712 
-51.7061 38.5747 19.018 -52.3948 38.4805 18.4444 -42.7386 38.1457 17.951 
-42.3638 38.7175 17.3741 -52.7026 38.5689 17.9345 -52.788 39.014 17.3367 
-53.0778 38.3046 17.5621 -42.3075 38.2479 16.7064 -45.9784 38.7989 16.4107 
-45.2069 38.4922 16.2003 -45.6354 38.1602 16.8926 -46.7111 38.3594 16.9466 
-46.9586 38.8864 16.3953 -47.6919 38.3505 16.8629 -47.96 38.793 16.2754 
-48.3838 38.3187 16.6365 -53.2137 38.4751 16.4803 -41.685 39.1963 15.3022 
-42.124 38.639 15.6462 -45.8011 38.8681 15.4904 -45.1703 38.4686 15.1953 
-46.5116 39.0488 15.7041 -47.5873 39.1492 15.5046 -48.6535 38.5674 16.1377 
-48.4992 38.9534 15.6736 -49.0087 38.5357 15.4862 -53.1813 38.4927 15.4397 
-42.2859 38.4236 14.6465 -45.8327 38.808 14.4393 -45.229 38.4043 14.1372 
-46.7254 39.1248 14.7552 -48.7201 38.1821 14.9681 -48.4489 38.4864 14.2514 
-48.9511 38.8355 14.4299 -53.1678 38.3024 14.5987 -41.6452 39.245 13.2779 
-42.1677 38.5742 13.5319 -45.7543 38.7368 13.5447 -45.2777 38.3957 13.1108 
-46.489 39.1195 13.6068 -48.851 38.839 13.4842 -48.2915 38.3698 13.4782 
-49.503 39.1779 13.7043 -53.6914 39.0533 13.6128 -53.3424 38.2626 13.4823 
-42.1387 38.3766 12.4952 -45.9161 38.9802 12.7155 -45.2798 38.5534 12.3398 
-48.821 38.8137 12.4824 -48.1671 38.3439 12.3643 -49.5838 39.0966 12.7484 
-53.8438 38.6152 13.0175 -54.1109 38.5729 12.3404 -42.68 39.001 11.4475 
-42.3526 38.3906 11.6657 -43.3704 38.9107 11.2684 -43.9905 38.5864 11.355 
-44.6948 38.6519 11.8289 -48.8401 38.8372 11.4546 -48.2014 38.4711 11.1859 
-49.5806 39.1246 11.7193 -52.8476 39.1858 11.0811 -53.6451 38.9514 11.2696 
-54.1072 38.4403 11.3932 -42.9355 38.5419 11.099 -43.4988 38.3539 11.0965 
-48.8558 38.845 10.4432 -48.187 38.4952 10.1882 -49.6855 39.1163 10.5529 
-52.6629 39.057 10.4266 -53.4691 38.7412 10.5422 -54.0863 38.4207 10.6527 
-31.8541 38.8101 9.30722 -31.7562 38.1527 9.7426 -31.391 38.5187 9.25753 
-32.2869 38.334 9.63698 -48.7506 38.876 9.33549 -48.0223 38.5618 9.384 
-49.5228 38.9841 9.62465 -50.3375 38.9249 9.45957 -51.0722 38.6267 9.53649 
-51.8036 38.6295 9.74574 -52.9338 38.3959 9.92821 -53.8171 38.2078 10.1589 
-31.5142 39.0458 8.76429 -31.222 38.6124 8.40665 -32.7008 38.6487 9.14731 
-33.7553 39.0068 8.5408 -33.4602 38.7321 8.81731 -34.1312 38.3474 8.44081 
-48.0644 38.8545 8.497 -47.5303 38.4106 8.91422 -47.2629 38.4901 8.1372 
-48.8909 39.0259 8.26552 -49.6836 38.8732 8.5521 -50.3717 38.5073 8.56279 
[...]
CELL_DATA 11848
SCALARS scalars float
LOOKUP_TABLE default
1018 1018 1018 1018 1018 1018 1018 1018 1018 
1018 1018 1018 1018 1018 1018 1018 1018 1018 
1018 1018 1018 1018 1018 1018 1018 1018 1018 
1018 1018 1018 1018 1018 1018 1018 1018 1018 
1018 1018 1018 1018 1018 1018 1018 1018 1018 
1018 1018 1018 1018 1018 1018 1018 1018 1018 
1018 1018 1018 1018 1018 1018 1018 1018 1018 
1018 1018 1018 1018 1018 1018 1018 1018 1018 
1018 1018 1018 1018 1018 1018 1018 1018 1018 
1018 1018 1018 1018 1018 1018 1018 1018 1018 
1018 1018 1018 1018 1018 1018 1018 1018 1018 
1018 1018 1018 1018 1018 1018 1018 1018 1018 
1018 1018 1018 1018 1018 1018 1018 1018 1018 
1018 1018 1018 1018 1018 1018 1018 1018 1018 
1018 1018 1018 1018 1018 1018 1018 1018 1018 
1018 1018 1018 1018 1018 1018 1018 1018 1018 
1018 1018 1018 1018 1018 1018 1018 1018 1018 
1018 1018 1018 1018 1018 1018 1018 1018 1018 
1018 1018 1018 1018 1018 1018 1018 1018 1018 
1018 1018 1018 1018 1018 1018 1018 1018 1018 
1018 1018 1018 1018 1018 1018 1018 1018 1018 
1018 1018 1018 1018 1018 1018 1018 1018 1018 
1018 1018 1018 1018 1018 1018 1018 1018 1018 
1018 1018 1018 1018 1018 1018 1018 1018 1018 
1018 1018 1018 1018 1018 1018 1018 1018 1018 
1018 1018 1018 1018 1018 1018 1018 1018 1018 
1018 1018 1018 1018 1018 1018 1018 1018 1018 
1018 1018 1018 1018 1018 1018 1018 1018 1018 
1018 1018 1018 1018 1018 1018 1018 1018 1018 
1018 1018 1018 1018 1018 1018 1018 1018 1018 
1018 1018 1018 1018 1018 1018 1018 1018 1018 
1018 1018 1018 1018 1018 1018 1018 1018 1018 
1018 1018 1018 1018 1018 1018 1018 1018 1018 
1018 1018 1018 1018 1018 1018 1018 1018 1018 
1018 1018 1018 1018 1018 1018 1018 1018 1018 
1018 1018 1018 1018 1018 1018 1018 1018 1018 
1018 1018 1018 1018 1018 1018 1018 1018 1018 
1018 1018 1018 1018 1018 1018 1018 1018 1018 
1018 1018 1018 1018 1018 1018 1018 1018 1018 
1018 1018 1018 1018 1018 1018 1018 1018 1018 
1018 1018 1018 1018 1018 1018 1018 1018 1018 
1018 1018 1018 1018 1018 1018 1018 1018 1018 
1018 1018 1018 1018 1018 1018 1018 1018 1018 
1018 1018 1018 1018 1018 1018 1018 1018 1018 
1018 1018 1018 1018 1018 1018 1018 1018 1018 
1018 1018 1018 1018 1018 1018 1018 1018 1018 
1018 1018 1018 1018 1018 1018 1018 1018 1018 
1018 1018 1018 1018 1018 1018 1018 1018 1018 
1018 1018 1018 1018 1018 1018 1018 1018 1018 
1018 1018 1018 1018 1018 1018 1018 1018 1018 
1018 1018 1018 1018 1018 1018 1018 1018 1018 
1018 1018 1018 1018 1018 1018 1018 1018 1018 
1018 1018 1018 1018 1018 1018 1018 1018 1018 
1018 1018 1018 1018 1018 1018 1018 1018 1018 
1018 1018 1018 1018 1018 1018 1018 1018 1018 
1018 1018 1018 1018 1018 1018 1018 1018 1018 
1018 1018 1018 1018 1018 1018 1018 1018 1018 
1018 1018 1018 1018 1018 1018 1018 1018 1018 
1018 1018 1018 1018 1018 1018 1018 1018 1018 
1018 1018 1018 1018 1018 1018 1018 1018 1018 
1018 1018 1018 1018 1018 1018 1018 1018 1018 
1018 1018 1018 1018 1018 1018 1018 1018 1018 
1018 1018 1018 1018 1018 1018 1018 1018 1018 
1018 1018 1018 1018 1018 1018 1018 1018 1018 
1018 1018 1018 1018 1018 1018 1018 1018 1018 
1018 1018 1018 1018 1018 1018 1018 1018 1018 
1018 1018 1018 1018 1018 1018 1018 1018 1018 
1018 1018 1018 1018 1018 1018 1018 1018 1018 
1018 1018 1018 1018 1018 1018 1018 1018 1018 
1018 1018 1018 1018 1018 1018 1018 1018 1018 
1018 1018 1018 1018 1018 1018 1018 1018 1018 
1018 1018 1018 1018 1018 1018 1018 1018 1018 
1018 1018 1018 1018 1018 1018 1018 1018 1018 
1018 1018 1018 1018 1018 1018 1018 1018 1018 
1018 1018 1018 1018 1018 1018 1018 1018 1018 
1018 1018 1018 1018 1018 1018 1018 1018 1018 
1018 1018 1018 1018 1018 1018 1018 1018 1018 
1018 1018 1018 1018 1018 1018 1018 1018 1018 
1018 1018 1018 1018 1018 1018 1018 1018 1018 
1018 1018 1018 1018 1018 1018 1018 1018 1018 
1018 1018 1018 1018 1018 1018 1018 1018 1018 
1018 1018 1018 1018 1018 1018 1018 1018 1018 
1018 1018 1018 1018 1018 1018 1018 1018 1018 
1018 1018 1018 1018 1018 1018 1018 1018 1018 
1018 1018 1018 1018 1018 1018 1018 1018 1018 
1018 1018 1018 1018 1018 1018 1018 1018 1018 
1018 1018 1018 1018 1018 1018 1018 1018 1018 
1018 1018 1018 1018 1018 1018 1018 1018 1018 
1018 1018 1018 1018 1018 1018 1018 1018 1018 
1018 1018 1018 1018 1018 1018 1018 1018 1018 
1018 1018 1018 1018 1018 1018 1018 1018 1018 
1018 1018 1018 1018 1018 1018 1018 1018 1018 
1018 1018 1018 1018 1018 1018 1018 1018 1018 
1018 1018 1018 1018 1018 1018 1018 1018 1018 
1018 1018 1018 1018 1018 1018 1018 1018 1018 
1018 1018 1018 1018 1018 1018 1018 1018 1018 
1018 1018 1018 1018 1018 1018 1018 1018 1018 
1018 1018 1018 1018 1018 1018 1018 1018 1018 
1018 1018 1018 1018 1018 1018 1018 1018 1018 
1018 1018 1018 1018 1018 1018 1018 1018 1018 
1018 1018 1018 1018 1018 1018 1018 1018 1018 
1018 1018 1018 1018 1018 1018 1018 1018 1018 
1018 1018 1018 1018 1018 1018 1018 1018 1018 
1018 1018 1018 1018 1018 1018 1018 1018 1018 
1018 1018 1018 1018 1018 1018 1018 1018 1018 
1018 1018 1018 1018 1018 1018 1018 1018 1018 
1018 1018 1018 1018 1018 1018 1018 1018 1018 
1018 1018 1018 1018 1018 1018 1018 1018 1018 
1018 1018 1018 1018 1018 1018 1018 1018 1018 
1018 1018 1018 1018 1018 1018 1018 1018 1018 
1018 1018 1018 1018 1018 1018 1018 1018 1018 
1018 1018 1018 1018 1018 1018 1018 1018 1018 
1018 1018 1018 1018 1018 1018 1018 1018 1018 
1018 1018 1018 1018 1018 1018 1018 1018 1018 
1018 1018 1018 1018 1018 1018 1018 1018 1018 
1018 1018 1018 1018 1018 1018 1018 1018 1018 
1018 1018 1018 1018 1018 1018 1018 1018 1018 
1018 1018 1018 1018 1018 1018 1018 1018 1018 
1018 1018 1018 1018 1018 1018 1018 1018 1018 
1018 1018 1018 1018 1018 1018 1018 1018 1018 
1018 1018 1018 1018 1018 1018 1018 1018 1018 
1018 1018 1018 1018 1018 1018 1018 1018 1018 
1018 1018 1018 1018 1018 1018 1018 1018 1018 
1018 1018 1018 1018 1018 1018 1018 1018 1018 
1018 1018 1018 1018 1018 1018 1018 1018 1018 
1018 1018 1018 1018 1018 1018 1018 1018 1018 
1018 1018 1018 1018 1018 1018 1018 1018 1018 
1018 1018 1018 1018 1018 1018 1018 1018 1018 
1018 1018 1018 1018 1018 1018 1018 1018 1018 
1018 1018 1018 1018 1018 1018 1018 1018 1018 
1018 1018 1018 1018 1018 1018 1018 1018 1018 
1018 1018 1018 1018 1018 1018 1018 1018 1018 
1018 1018 1018 1018 1018 1018 1018 1018 1018 
1018 1018 1018 1018 1018 1018 1018 1018 1018 
1018 1018 1018 1018 1018 1018 1018 1018 1018 
1018 1018 1018 1018 1018 1018 1018 1018 1018 
1018 1018 1018 1018 1018 1018 1018 1018 1018 
1018 1018 1018 1018 1018 1018 1018 1018 1018 
1018 1018 1018 1018 1018 1018 1018 1018 1018 
1018 1018 1018 1018 1018 1018 1018 1018 1018 
1018 1018 1018 1018 1018 1018 1018 1018 1018 
1018 1018 1018 1018 1018 1018 1018 1018 1018 
1018 1018 1018 1018 1018 1018 1018 1018 1018 
1018 1018 1018 1018 1018 1018 1018 1018 1018 
1018 1018 1018 1018 1018 1018 1018 1018 1018 
1018 1018 1018 1018 1018 1018 1018 1018 1018 
1018 1018 1018 1018 1018 1018 1018 1018 1018 
1018 1018 1018 1018 1018 1018 1018 1018 1018 
1018 1018 1018 1018 1018 1018 1018 1018 1018 
1018 1018 1018 1018 1018 1018 1018 1018 1018 
1018 1018 1018 1018 1018 1018 1018 1018 1018 
1018 1018 1018 1018 1018 1018 1018 1018 1018 
1018 1018 1018 1018 1018 1018 1018 1018 1018 
1018 1018 1018 1018 1018 1018 1018 1018 1018 
1018 1018 1018 1018 1018 1018 1018 1018 1018 
1018 1018 1018 1018 1018 1018 1018 1018 1018 
1018 1018 1018 1018 1018 1018 1018 1018 1018 
1018 1018 1018 1018 1018 1018 1018 1018 1018 
1018 1018 1018 1018 1018 1018 1018 1018 1018 
1018 1018 1018 1018 1018 1018 1018 1018 1018 
1018 1018 1018 1018 1018 1018 1018 1018 1018 
1018 1018 1018 1018 1018 1018 1018 1018 1018 
1018 1018 1018 1018 1018 1018 1018 1018 1018 
1018 1018 1018 1018 1018 1018 1018 1018 1018 
1018 1018 1018 1018 1018 1018 1018 1018 1018 
1018 1018 1018 1018 1018 1018 1018 1018 1018 
1018 1018 1018 1018 1018 1018 1018 1018 1018 
1018 1018 1018 1018 1018 1018 1018 1018 1018 
1018 1018 1018 1018 1018 1018 1018 1018 1018 
1018 1018 1018 1018 1018 1018 1018 1018 1018 
1018 1018 1018 1018 1018 1018 1018 1018 1018 
1018 1018 1018 1018 1018 1018 1018 1018 1018 
1018 1018 1018 1018 1018 1018 1018 1018 1018 
1018 1018 1018 1018 1018 1018 1018 1018 1018 
1018 1018 1018 1018 1018 1018 1018 1018 1018 
1018 1018 1018 1018 1018 1018 1018 1018 1018 
1018 1018 1018 1018 1018 1018 1018 1018 1018 
1018 1018 1018 1018 1018 1018 1018 1018 1018 
1018 1018 1018 1018 1018 1018 1018 1018 1018 
1018 1018 1018 1018 1018 1018 1018 1018 1018 
1018 1018 1018 1018 1018 1018 1018 1018 1018 
1018 1018 1018 1018 1018 1018 1018 1018 1018 
1018 1018 1018 1018 1018 1018 1018 1018 1018 
1018 1018 1018 1018 1018 1018 1018 1018 1018 
1018 1018 1018 1018 1018 1018 1018 1018 1018 
1018 1018 1018 1018 1018 1018 1018 1018 1018 
1018 1018 1018 1018 1018 1018 1018 1018 1018 
1018 1018 1018 1018 1018 1018 1018 1018 1018 
1018 1018 1018 1018 1018 1018 1018 1018 1018 
1018 1018 1018 1018 1018 1018 1018 1018 1018 
1018 1018 1018 1018 1018 1018 1018 1018 1018 
1018 1018 1018 1018 1018 1018 1018 1018 1018 
1018 1018 1018 1018 1018 1018 1018 1018 1018 
1018 1018 1018 1018 1018 1018 1018 1018 1018 
1018 1018 1018 1018 1018 1018 1018 1018 1018 
1018 1018 1018 1018 1018 1018 1018 1018 1018 
1018 1018 1018 1018 1018 1018 1018 1018 1018 
1018 1018 1018 1018 1018 1018 1018 1018 1018 
1018 1018 1018 1018 1018 1018 1018 1018 1018 
1018 1018 1018 1018 1018 1018 1018 1018 1018 
1018 1018 1018 1018 1018 1018 1018 1018 1018 
1018 1018 1018 1018 1018 1018 1018 1018 1018 
1018 1018 1018 1018 1018 1018 1018 1018 1018 
1018 1018 1018 1018 1018 1018 1018 1018 1018 
1018 1018 1018 1018 1018 1018 1018 1018 1018 
1018 1018 1018 1018 1018 1018 1018 1018 1018 
1018 1018 1018 1018 1018 1018 1018 1018 1018 
1018 1018 1018 1018 1018 1018 1018 1018 1018 
1018 1018 1018 1018 1018 1018 1018 1018 1018 
1018 1018 1018 1018 1018 1018 1018 1018 1018 
1018 1018 1018 1018 1018 1018 1018 1018 1018 
1018 1018 1018 1018 1018 1018 1018 1018 1018 
1018 1018 1018 1018 1018 1018 1018 1018 1018 
1018 1018 1018 1018 1018 1018 1018 1018 1018 
1018 1018 1018 1018 1018 1018 1018 1018 1018 
1018 1018 1018 1018 1018 1018 1018 1018 1018 
1018 1018 1018 1018 1018 1018 1018 1018 1018 
1018 1018 1018 1018 1018 1018 1018 1018 1018 
1018 1018 1018 1018 1018 1018 1018 1018 1018 
1018 1018 1018 1018 1018 1018 1018 1018 1018 
1018 1018 1018 1018 1018 1018 1018 1018 1018 
1018 1018 1018 1018 1018 1018 1018 1018 1018 
1018 1018 1018 1018 1018 1018 1018 1018 1018 
1018 1018 1018 1018 1018 1018 1018 1018 1018 
1018 1018 1018 1018 1018 1018 1018 1018 1018 
1018 1018 1018 1018 1018 1018 1018 1018 1018 
1018 1018 1018 1018 1018 1018 1018 1018 1018 
1018 1018 1018 1018 1018 1018 1018 1018 1018 
1018 1018 1018 1018 1018 1018 1018 1018 1018 
1018 1018 1018 1018 1018 1018 1018 1018 1018 
1018 1018 1018 1018 1018 1018 1018 1018 1018 
1018 1018 1018 1018 1018 1018 1018 1018 1018 
1018 1018 1018 1018 1018 1018 1018 1018 1018 
1018 1018 1018 1018 1018 1018 1018 1018 1018 
1018 1018 1018 1018 1018 1018 1018 1018 1018 
1018 1018 1018 1018 1018 1018 1018 1018 1018 
1018 1018 1018 1018 1018 1018 1018 1018 1018 
1018 1018 1018 1018 1018 1018 1018 1018 1018 
1018 1018 1018 1018 1018 1018 1018 1018 1018 
1018 1018 1018 1018 1018 1018 1018 1018 1018 
1018 1018 1018 1018 1018 1018 1018 1018 1018 
1018 1018 1018 1018 1018 1018 1018 1018 1018 
1018 1018 1018 1018 1018 1018 1018 1018 1018 
1018 1018 1018 1018 1018 1018 1018 1018 1018 
1018 1018 1018 1018 1018 1018 1018 1018 1018 
1018 1018 1018 1018 1018 1018 1018 1018 1018 
1018 1018 1018 1018 1018 1018 1018 1018 1018 
1018 1018 1018 1018 1018 1018 1018 1018 1018 
1018 1018 1018 1018 1018 1018 1018 1018 1018 
1018 1018 1018 1018 1018 1018 1018 1018 1018 
1018 1018 1018 1018 1018 1018 1018 1018 1018 
1018 1018 1018 1018 1018 1018 1018 1018 1018 
1018 1018 1018 1018 1018 1018 1018 1018 1018 
1018 1018 1018 1018 1018 1018 1018 1018 1018 
1018 1018 1018 1018 1018 1018 1018 1018 1018 
1018 1018 1018 1018 1018 1018 1018 1018 1018 
1018 1018 1018 1018 1018 1018 1018 1018 1018 
1018 1018 1018 1018 1018 1018 1018 1018 1018 
1018 1018 1018 1018 1018 1018 1018 1018 1018 
1018 1018 1018 1018 1018 1018 1018 1018 1018 
1018 1018 1018 1018 1018 1018 1018 1018 1018 
1018 1018 1018 1018 1018 1018 1018 1018 1018 
1018 1018 1018 1018 1018 1018 1018 1018 1018 
1018 1018 1018 1018 1018 1018 1018 1018 1018 
1018 1018 1018 1018 1018 1018 1018 1018 1018 
1018 1018 1018 1018 1018 1018 1018 1018 1018 
1018 1018 1018 1018 1018 1018 1018 1018 1018 
1018 1018 1018 1018 1018 1018 1018 1018 1018 
1018 1018 1018 1018 1018 1018 1018 1018 1018 
1018 1018 1018 1018 1018 1018 1018 1018 1018 
1018 1018 1018 1018 1018 1018 1018 1018 1018 
1018 1018 1018 1018 1018 1018 1018 1018 1018 
1018 1018 1018 1018 1018 1018 1018 1018 1018 
1018 1018 1018 1018 1018 1018 1018 1018 1018 
1018 1018 1018 1018 1018 1018 1018 1018 1018 
1018 1018 1018 1018 1018 1018 1018 1018 1018 
1018 1018 1018 1018 1018 1018 1018 1018 1018 
1018 1018 1018 1018 1018 1018 1018 1018 1018 
1018 1018 1018 1018 1018 1018 1018 1018 1018 
1018 1018 1018 1018 1018 1018 1018 1018 1018 
1018 1018 1018 1018 1018 1018 1018 1018 1018 
1018 1018 1018 1018 1018 1018 1018 1018 1018 
1018 1018 1018 1018 1018 1018 1018 1018 1018 
1018 1018 1018 1018 1018 1018 1018 1018 1018 
1018 1018 1018 1018 1018 1018 1018 1018 1018 
1018 1018 1018 1018 1018 1018 1018 1018 1018 
1018 1018 1018 1018 1018 1018 1018 1018 1018 
1018 1018 1018 1018 1018 1018 1018 1018 1018 
1018 1018 1018 1018 1018 1018 1018 1018 1018 
1018 1018 1018 1018 1018 1018 1018 1018 1018 
1018 1018 1018 1018 1018 1018 1018 1018 1018 
1018 1018 1018 1018 1018 1018 1018 1018 1018 
1018 1018 1018 1018 1018 1018 1018 1018 1018 
1018 1018 1018 1018 1018 1018 1018 1018 1018 
1018 1018 1018 1018 1018 1018 1018 1018 1018 
1018 1018 1018 1018 1018 1018 1018 1018 1018 
1018 1018 1018 1018 1018 1018 1018 1018 1018 
1018 1018 1018 1018 1018 1018 1018 1018 1018 
1018 1018 1018 1018 1018 1018 1018 1018 1018 
1018 1018 1018 1018 1018 1018 1018 1018 1018 
1018 1018 1018 1018 1018 1018 1018 1018 1018 
1018 1018 1018 1018 1018 1018 1018 1018 1018 
1018 1018 1018 1018 1018 1018 1018 1018 1018 
1018 1018 1018 1018 1018 1018 1018 1018 1018 
1018 1018 1018 1018 1018 1018 1018 1018 1018 
1018 1018 1018 1018 1018 1018 1018 1018 1018 
1018 1018 1018 1018 1018 1018 1018 1018 1018 
1018 1018 1018 1018 1018 1018 1018 1018 1018 
1018 1018 1018 1018 1018 1018 1018 1018 1018 
1018 1018 1018 1018 1018 1018 1018 1018 1018 
1018 1018 1018 1018 1018 1018 1018 1018 1018 
1018 1018 1018 1018 1018 1018 1018 1018 1018 
1018 1018 1018 1018 1018 1018 1018 1018 1018 
1018 1018 1018 1018 1018 1018 1018 1018 1018 
1018 1018 1018 1018 1018 1018 1018 1018 1018 
1018 1018 1018 1018 1018 1018 1018 1018 1018 
1018 1018 1018 1018 1018 1018 1018 1018 1018 
1018 1018 1018 1018 1018 1018 1018 1018 1018 
1018 1018 1018 1018 1018 1018 1018 1018 1018 
1018 1018 1018 1018 1018 1018 1018 1018 1018 
1018 1018 1018 1018 1018 1018 1018 1018 1018 
1018 1018 1018 1018 1018 1018 1018 1018 1018 
1018 1018 1018 1018 1018 1018 1018 1018 1018 
1018 1018 1018 1018 1018 1018 1018 1018 1018 
1018 1018 1018 1018 1018 1018 1018 1018 1018 
1018 1018 1018 1018 1018 1018 1018 1018 1018 
1018 1018 1018 1018 1018 1018 1018 1018 1018 
1018 1018 1018 1018 1018 1018 1018 1018 1018 
1018 1018 1018 1018 1018 1018 1018 1018 1018 
1018 1018 1018 1018 1018 1018 1018 1018 1018 
1018 1018 1018 1018 1018 1018 1018 1018 1018 
1018 1018 1018 1018 1018 1018 1018 1018 1018 
1018 1018 1018 1018 1018 1018 1018 1018 1018 
1018 1018 1018 1018 1018 1018 1018 1018 1018 
1018 1018 1018 1018 1018 1018 1018 1018 1018 
1018 1018 1018 1018 1018 1018 1018 1018 1018 
1018 1018 1018 1018 1018 1018 1018 1018 1018 
1018 1018 1018 1018 1018 1018 1018 1018 1018 
1018 1018 1018 1018 1018 1018 1018 1018 1018 
1018 1018 1018 1018 1018 1018 1018 1018 1018 
1018 1018 1018 1018 1018 1018 1018 1018 1018 
1018 1018 1018 1018 1018 1018 1018 1018 1018 
1018 1018 1018 1018 1018 1018 1018 1018 1018 
1018 1018 1018 1018 1018 1018 1018 1018 1018 
1018 1018 1018 1018 1018 1018 1018 1018 1018 
1018 1018 1018 1018 1018 1018 1018 1018 1018 
1018 1018 1018 1018 1018 1018 1018 1018 1018 
1018 1018 1018 1018 1018 1018 1018 1018 1018 
1018 1018 1018 1018 1018 1018 1018 1018 1018 
1018 1018 1018 1018 1018 1018 1018 1018 1018 
1018 1018 1018 1018 1018 1018 1018 1018 1018 
1018 1018 1018 1018 1018 1018 1018 1018 1018 
1018 1018 1018 1018 1018 1018 1018 1018 1018 
1018 1018 1018 1018 1018 1018 1018 1018 1018 
1018 1018 1018 1018 1018 1018 1018 1018 1018 
1018 1018 1018 1018 1018 1018 1018 1018 1018 
1018 1018 1018 1018 1018 1018 1018 1018 1018 
1018 1018 1018 1018 1018 1018 1018 1018 1018 
1018 1018 1018 1018 1018 1018 1018 1018 1018 
1018 1018 1018 1018 1018 1018 1018 1018 1018 
1018 1018 1018 1018 1018 1018 1018 1018 1018 
1018 1018 1018 1018 1018 1018 1018 1018 1018 
1018 1018 1018 1018 1018 1018 1018 1018 1018 
1018 1018 1018 1018 1018 1018 1018 1018 1018 
1018 1018 1018 1018 1018 1018 1018 1018 1018 
1018 1018 1018 1018 1018 1018 1018 1018 1018 
1018 1018 1018 1018 1018 1018 1018 1018 1018 
1018 1018 1018 1018 1018 1018 1018 1018 1018 
1018 1018 1018 1018 1018 1018 1018 1018 1018 
1018 1018 1018 1018 1018 1018 1018 1018 1018 
1018 1018 1018 1018 1018 1018 1018 1018 1018 
1018 1018 1018 1018 1018 1018 1018 1018 1018 
1018 1018 1018 1018 1018 1018 1018 1018 1018 
1018 1018 1018 1018 1018 1018 1018 1018 1018 
1018 1018 1018 1018 1018 1018 1018 1018 1018 
1018 1018 1018 1018 1018 1018 1018 1018 1018 
1018 1018 1018 1018 1018 1018 1018 1018 1018 
1018 1018 1018 1018 1018 1018 1018 1018 1018 
1018 1018 1018 1018 1018 1018 1018 1018 1018 
1018 1018 1018 1018 1018 1018 1018 1018 1018 
1018 1018 1018 1018 1018 1018 1018 1018 1018 
1018 1018 1018 1018 1018 1018 1018 1018 1018 
1018 1018 1018 1018 1018 1018 1018 1018 1018 
1018 1018 1018 1018 1018 1018 1018 1018 1018 
1018 1018 1018 1018 1018 1018 1018 1018 1018 
1018 1018 1018 1018 1018 1018 1018 1018 1018 
1018 1018 1018 1018 1018 1018 1018 1018 1018 
1018 1018 1018 1018 1018 1018 1018 1018 1018 
1018 1018 1018 1018 1018 1018 1018 1018 1018 
1018 1018 1018 1018 1018 1018 1018 1018 1018 
1018 1018 1018 1018 1018 1018 1018 1018 1018 
1018 1018 1018 1018 1018 1018 1018 1018 1018 
1018 1018 1018 1018 1018 1018 1018 1018 1018 
1018 1018 1018 1018 1018 1018 1018 1018 1018 
1018 1018 1018 1018 1018 1018 1018 1018 1018 
1018 1018 1018 1018 1018 1018 1018 1018 1018 
1018 1018 1018 1018 1018 1018 1018 1018 1018 
1018 1018 1018 1018 1018 1018 1018 1018 1018 
1018 1018 1018 1018 1018 1018 1018 1018 1018 
1018 1018 1018 1018 1018 1018 1018 1018 1018 
1018 1018 1018 1018 1018 1018 1018 1018 1018 
1018 1018 1018 1018 1018 1018 1018 1018 1018 
1018 1018 1018 1018 1018 1018 1018 1018 1018 
1018 1018 1018 1018 1018 1018 1018 1018 1018 
1018 1018 1018 1018 1018 1018 1018 1018 1018 
1018 1018 1018 1018 1018 1018 1018 1018 1018 
1018 1018 1018 1018 1018 1018 1018 1018 1018 
1018 1018 1018 1018 1018 1018 1018 1018 1018 
1018 1018 1018 1018 1018 1018 1018 1018 1018 
1018 1018 1018 1018 1018 1018 1018 1018 1018 
1018 1018 1018 1018 1018 1018 1018 1018 1018 
1018 1018 1018 1018 1018 1018 1018 1018 1018 
1018 1018 1018 1018 1018 1018 1018 1018 1018 
1018 1018 1018 1018 1018 1018 1018 1018 1018 
1018 1018 1018 1018 1018 1018 1018 1018 1018 
1018 1018 1018 1018 1018 1018 1018 1018 1018 
1018 1018 1018 1018 1018 1018 1018 1018 1018 
1018 1018 1018 1018 1018 1018 1018 1018 1018 
1018 1018 1018 1018 1018 1018 1018 1018 1018 
1018 1018 1018 1018 1018 1018 1018 1018 1018 
1018 1018 1018 1018 1018 1018 1018 1018 1018 
1018 1018 1018 1018 1018 1018 1018 1018 1018 
1018 1018 1018 1018 1018 1018 1018 1018 1018 
1018 1018 1018 1018 1018 1018 1018 1018 1018 
1018 1018 1018 1018 1018 1018 1018 1018 1018 
1018 1018 1018 1018 1018 1018 1018 1018 1018 
1018 1018 1018 1018 1018 1018 1018 1018 1018 
1018 1018 1018 1018 1018 1018 1018 1018 1018 
1018 1018 1018 1018 1018 1018 1018 1018 1018 
1018 1018 1018 1018 1018 1018 1018 1018 1018 
1018 1018 1018 1018 1018 1018 1018 1018 1018 
1018 1018 1018 1018 1018 1018 1018 1018 1018 
1018 1018 1018 1018 1018 1018 1018 1018 1018 