# vtk DataFile Version 4.2
vtk output
ASCII
DATASET POLYDATA
POINTS 5558 float
4.253 20.7891 64.2646 4.35305 20.346 64.6592 4.5387 20.5829 64.2357 
4.02761 20.3341 64.5271 4.36418 20.759 63.7573 4.62604 20.3345 63.7191 
3.86925 20.4137 63.8541 4.36148 20.3368 63.1434 3.23556 20.6149 62.7696 
3.5083 20.5423 62.6052 3.23167 20.6668 62.5237 3.0055 20.2293 62.5879 
3.42392 20.2664 62.1097 5.27805 19.6306 65.5371 5.19605 19.2331 65.761 
5.49829 19.4658 65.5221 4.90083 19.3672 65.5879 5.34351 19.3246 65.1991 
4.7217 19.707 64.382 4.0427 19.4513 64.9484 3.62099 19.5868 64.4913 
4.93646 19.7719 63.3277 3.1336 19.4293 64.0233 3.46494 20.2413 63.1183 
2.74878 19.4346 63.2455 5.03786 19.8697 62.5151 5.4929 19.4316 62.8059 
5.73617 19.5034 62.0571 4.258 20.103 62.3218 2.75377 19.5644 62.4992 
5.24122 19.7302 61.7569 5.73794 19.4997 61.4935 4.75091 19.5915 61.6314 
4.03924 19.7418 61.7258 3.35899 19.8181 61.3532 3.8675 19.5113 61.0987 
2.89073 19.5971 61.7771 5.46209 19.2648 61.1852 3.36267 19.6712 60.712 
3.59803 19.4439 60.4033 2.82597 19.3548 60.7934 3.08828 19.4592 60.2081 
5.03337 18.4778 66.0263 5.72665 18.7826 65.5208 4.55346 19.1281 65.2421 
4.54157 18.7189 65.8233 3.86873 18.299 65.4796 6.12675 18.8849 64.3788 
6.33655 18.508 64.9695 6.94924 18.2396 64.2213 5.22008 19.1685 64.5791 
3.22157 18.9656 64.5366 3.28933 18.5061 64.9213 2.71909 18.4666 64.5464 
7.38595 18.4637 63.7441 7.46006 18.4798 63.474 7.00516 18.7133 63.5434 
6.33549 18.9637 63.4707 5.55966 19.1807 63.621 2.28737 18.745 63.341 
2.38472 18.7224 63.9895 1.91417 18.1347 63.5999 7.12106 18.4173 63.0658 
6.85635 18.361 62.2288 6.33258 18.9762 62.6988 2.57835 18.7071 62.3883 
2.15192 18.3201 62.8708 6.20313 19.005 61.574 6.77692 18.3301 61.377 
4.58867 19.2737 61.1957 2.6131 18.5302 61.3465 6.19869 18.4867 60.929 
5.16331 18.952 60.447 5.69551 18.4344 60.4069 4.16414 19.165 60.4399 
2.33349 18.5725 60.7659 2.37963 18.985 60.1006 1.96904 18.2455 60.4659 
5.22492 18.9175 59.4577 5.62058 18.4751 59.3076 4.32144 19.0458 59.4555 
3.19333 19.1664 59.5632 2.19588 18.9143 59.2575 1.80283 18.3631 59.7251 
5.37375 18.8317 58.6532 5.67489 18.2978 58.2252 4.60772 18.9134 58.5683 
3.55262 18.9134 58.5693 2.55431 18.8558 58.5536 1.83153 18.2902 58.6385 
5.05443 18.5367 57.9619 4.00014 18.3781 57.923 3.06009 18.5434 58.0716 
2.34039 18.2728 57.9414 5.30976 17.8889 66.2932 5.34079 17.1161 66.8421 
5.85532 17.5649 66.3913 4.65143 17.3305 66.639 6.31294 17.9986 65.522 
6.28469 17.535 66.0519 6.80537 17.4974 65.5137 4.39224 17.8089 66.121 
3.71082 17.1491 65.7061 7.12376 17.7505 64.7315 7.30571 17.4662 64.9766 
7.55741 17.3876 64.6154 3.23521 17.5804 65.1834 2.11837 18.0341 64.3731 
2.54806 17.5731 64.7801 1.94944 17.494 64.1505 9.03988 17.8667 63.3447 
9.10861 17.3657 63.7674 9.62162 17.4884 63.1529 8.53353 17.6093 63.8008 
8.22702 17.8643 63.2427 7.75143 17.4724 63.4705 7.31362 18.2339 63.5716 
7.37428 17.5316 64.0593 7.1054 17.8107 63.2667 1.86084 17.4899 63.3147 
9.37326 17.8109 62.7352 9.64429 17.3206 62.5143 8.43579 17.9069 62.498 
7.43105 17.8485 62.7111 7.23713 17.4545 63.1563 2.3405 17.9123 62.2631 
2.0096 17.7379 62.6905 9.13832 17.5195 62.2209 8.37115 17.4478 61.7885 
7.76509 17.4845 61.4033 7.45671 17.9095 61.7547 5.37199 17.831 61.1518 
5.66901 17.4612 61.6528 5.22716 17.562 61.807 4.88653 17.2801 61.7343 
2.56986 17.4098 61.6658 2.37235 17.3325 62.1537 8.27627 17.669 60.4244 
8.26262 17.5747 60.6846 8.61329 17.3746 60.4655 7.16992 17.6059 61.1339 
8.0989 17.4096 60.5492 6.33892 17.4973 61.1222 5.27962 18.0699 60.1783 
4.82647 17.4053 60.7697 2.24335 17.727 60.9717 1.85032 17.4654 60.3688 
8.38179 17.2287 60.1727 5.37528 17.8951 59.3665 4.93878 17.3896 59.7794 
1.67198 17.4767 59.4721 5.28262 17.1786 59.0029 5.70906 17.7095 58.6027 
1.65914 17.3523 58.5824 5.38196 18.0048 57.5467 5.68507 17.344 57.6167 
4.66539 17.9197 57.4325 3.87977 17.6617 57.488 3.08132 17.8737 57.6881 
2.32203 17.7543 57.5005 2.6217 17.4239 57.2411 1.82198 17.4498 57.6076 
5.13898 17.472 57.1585 4.396 17.2743 57.0659 2.10687 17.3244 57.0239 
6.33621 17.1057 66.3708 6.22215 16.2557 66.8993 6.87643 16.5806 66.3692 
5.06329 16.3246 67.068 4.14405 17.0607 66.3989 4.46462 16.6787 66.8505 
3.93359 16.3897 66.3553 7.31055 16.9978 65.4828 7.33189 16.4979 66.0208 
7.83452 16.4807 65.5222 3.60806 16.1519 65.6148 8.1416 17.0239 64.3367 
8.39986 16.3255 65.0563 8.66934 16.2605 64.5302 3.06645 16.7214 64.9986 
2.3853 16.9431 64.4708 2.75007 16.3181 64.3224 9.45812 16.9595 63.313 
8.95256 16.4888 63.7962 7.40895 17.2891 63.5882 2.20092 16.9368 63.7101 
2.62277 16.3178 63.4302 9.36023 16.1942 63.0314 9.67598 16.7391 62.7076 
5.34591 17.0128 62.2215 5.87218 16.5447 62.3576 5.49559 16.203 62.7776 
4.88181 16.392 62.4442 2.23673 17.0676 62.7598 2.66068 16.5029 62.3697 
9.32862 16.676 61.9072 8.25436 17.1067 61.0747 9.10856 16.591 61.2875 
6.07245 16.9184 61.7926 6.67211 16.5238 61.5414 6.28315 16.4615 62.0138 
4.65006 16.4809 61.5626 2.66976 16.1539 61.4197 9.10864 16.8165 60.6613 
9.54428 16.2765 60.9479 9.49586 16.282 60.3213 7.29373 16.7718 61.0413 
7.92888 16.6891 60.5679 4.79968 16.4999 60.3823 2.27473 16.7705 60.903 
1.94951 16.5934 60.1272 9.03001 16.7424 60.0844 8.56672 16.3675 60.0567 
4.97183 16.7161 59.4351 1.8426 16.6001 59.18 5.2684 16.5776 58.9918 
5.75058 16.6035 58.3405 1.82828 16.6247 58.1488 5.78212 16.4948 57.3266 
3.39261 17.2108 57.0897 1.86694 16.538 57.2245 5.16541 16.7881 56.8629 
4.22688 16.8167 56.6261 4.83076 16.3106 56.2601 3.42805 16.7997 56.4606 
2.55804 16.9255 56.5804 1.9597 16.7821 56.6691 4.02859 16.4598 56.1943 
3.0728 16.2806 56.0064 2.32607 16.5093 56.2332 7.36226 16.0953 66.3467 
7.19062 15.4179 66.803 7.83552 15.4641 66.334 6.47397 15.2863 67.1777 
5.33699 15.4947 67.1836 4.37872 15.8001 66.8919 3.89721 15.4577 66.3336 
8.15631 15.9109 65.7511 8.33388 15.1278 65.9182 8.61511 15.657 65.1972 
3.63931 15.1755 65.6185 8.80362 15.5172 64.4419 3.27476 15.7368 64.9507 
2.93783 15.4659 64.3098 9.00347 15.5427 63.581 2.77558 15.4581 63.4485 
9.33861 15.3893 63.0769 9.76299 15.6497 62.4576 6.34665 16.0608 62.3226 
6.79857 15.4794 62.5119 5.92201 15.47 62.9862 5.18085 15.5929 62.9324 
4.80556 15.4719 62.4113 2.77838 15.4581 62.4516 10.0072 15.8472 61.459 
10.3568 15.151 61.8965 10.55 15.2611 61.3569 9.47556 16.3073 61.4633 
7.31023 15.9872 61.4347 7.8087 15.3555 61.4028 7.38679 15.3506 62.0222 
4.84887 15.5611 61.436 2.79084 15.2907 61.6063 10.3519 15.4268 61.0464 
9.85986 15.4389 60.5459 8.29565 15.1548 60.8293 8.09979 15.9152 60.6215 
8.6332 15.5834 60.253 5.12023 15.7902 60.5549 5.20467 15.4376 60.9981 
5.65084 15.4136 60.3213 2.36453 16.0834 60.5662 2.66201 15.4251 60.5906 
9.19915 15.6457 60.0593 5.39609 16.072 59.4795 5.9734 15.553 59.3891 
2.25915 15.9281 59.7681 2.60464 15.2928 59.4967 6.10374 15.823 58.6473 
6.32997 15.4699 58.9632 6.70153 15.404 58.3079 2.21911 15.9414 58.7579 
2.60566 15.3073 58.4839 6.21099 15.9607 57.5376 6.83753 15.4974 57.1664 
2.21589 15.9536 57.6951 2.73643 15.2094 57.317 6.22676 15.8575 56.4579 
6.82378 15.5349 56.1601 5.62422 16.1761 56.624 2.33858 16.0165 56.5282 
2.6159 15.3486 56.4183 6.27894 15.7401 55.6748 6.65322 15.4321 55.3503 
5.43478 15.8033 55.7262 4.23842 15.8354 55.7569 4.81767 15.2883 55.3211 
3.1246 15.8263 55.285 3.85438 15.5329 55.1579 2.63753 15.338 55.4821 
5.95732 15.3015 55.0421 5.37433 15.3284 55.1825 3.22291 15.7463 54.6758 
3.59835 15.4204 54.3717 2.36677 15.5831 54.8299 2.51547 15.7407 54.5197 
2.10545 15.5404 54.4097 2.85782 15.4075 54.022 2.26093 15.519 54.1923 
5.94912 14.9248 67.5399 6.34023 14.1751 67.8546 6.72403 14.6554 67.4493 
5.15331 14.8417 67.462 5.48599 14.492 67.7871 4.81254 14.1686 67.5319 
7.17838 14.7551 67.0881 7.83327 14.679 66.6174 4.4205 14.7956 67.0082 
3.89389 14.447 66.36 8.38506 14.3247 66.168 8.68721 14.5715 65.4178 
3.56192 14.2224 65.7611 8.93085 14.5573 64.4172 6.2066 14.6939 64.3445 
6.54953 14.547 64.3214 6.33929 14.3186 64.7859 6.01092 14.2654 64.6061 
3.28135 14.7931 65.062 2.87806 14.3802 64.5494 9.17093 14.8653 63.6089 
9.27614 14.229 64.063 9.58813 14.5111 63.3358 6.36254 14.906 63.4594 
6.87627 14.3807 63.6133 5.7456 14.2598 63.6192 2.76139 14.4789 63.4711 
10.034 14.5413 62.6196 7.12339 14.9262 62.7491 7.61087 14.721 62.1715 
7.31328 14.1595 62.9145 5.37493 14.81 62.9971 4.99245 14.7067 62.241 
2.8965 14.5025 62.345 10.431 14.3809 62.1605 10.678 14.3245 61.3836 
8.01161 14.5719 61.5699 5.3458 14.9444 61.3693 5.30401 14.2988 62.045 
5.75929 14.3359 61.4769 2.92664 14.6291 61.199 10.3861 14.8621 60.8363 
9.97752 14.6089 60.3699 8.77606 14.6084 60.4574 8.36649 14.4046 61.0838 
6.06227 14.8497 60.6574 6.29013 14.1736 60.9179 6.5638 14.5155 60.2492 
2.91452 14.6131 60.1674 9.51604 14.2975 60.1047 6.45038 15.0968 59.5233 
6.95002 14.4671 59.5594 2.92301 14.6255 59.1758 7.12403 14.8561 58.6901 
7.30241 14.4938 58.9869 7.70884 14.4512 58.3278 3.00077 14.724 58.266 
7.43153 14.9815 57.5848 8.00436 14.5728 57.3916 3.19753 14.7 57.6132 
3.56134 14.3747 57.328 3.46655 14.3929 57.8981 7.96971 14.8294 56.5434 
8.32859 14.4913 56.9495 8.68381 14.4467 56.2942 7.33209 15.1831 56.6258 
3.19967 14.6176 57.0273 2.93202 14.7013 56.2602 8.16166 14.8672 55.4257 
8.82604 14.5276 55.176 7.33563 15.1385 55.5591 4.32257 15.3022 55.3913 
2.89171 14.4488 55.2475 8.32506 14.8344 54.5624 8.80939 14.5058 54.1579 
7.61713 14.8871 54.4052 6.63759 14.907 54.6225 5.87271 14.6054 54.5542 
5.22575 14.7893 54.7925 4.30041 15.0197 54.6154 4.83379 14.4489 54.1339 
2.37249 15.1961 54.3244 2.75077 14.5201 54.3821 8.24696 14.7226 53.7548 
8.62862 14.4197 53.3592 7.71834 14.576 53.5696 6.95983 14.4657 53.8575 
6.19908 14.3379 54.1427 4.24234 14.7071 53.6722 4.63918 14.249 53.2792 
3.56357 14.9214 53.5847 2.89254 14.6744 53.6136 8.13716 14.4335 53.1754 
3.98939 14.4483 53.1123 3.46564 14.2065 53.1176 12.2157 13.6405 67.4031 
12.3345 13.4511 67.7313 12.4768 13.5532 67.383 12.1576 13.4032 67.4081 
7.37861 14.1057 67.3519 7.25839 13.2616 67.8817 7.90486 13.5383 67.3633 
[...]
CELL_DATA 11120
SCALARS scalars float
LOOKUP_TABLE default
2017 2017 2017 2017 2017 2017 2017 2017 2017 
2017 2017 2017 2017 2017 2017 2017 2017 2017 
2017 2017 2017 2017 2017 2017 2017 2017 2017 
2017 2017 2017 2017 2017 2017 2017 2017 2017 
2017 2017 2017 2017 2017 2017 2017 2017 2017 
2017 2017 2017 2017 2017 2017 2017 2017 2017 
2017 2017 2017 2017 2017 2017 2017 2017 2017 
2017 2017 2017 2017 2017 2017 2017 2017 2017 
2017 2017 2017 2017 2017 2017 2017 2017 2017 
2017 2017 2017 2017 2017 2017 2017 2017 2017 
2017 2017 2017 2017 2017 2017 2017 2017 2017 
2017 2017 2017 2017 2017 2017 2017 2017 2017 
2017 2017 2017 2017 2017 2017 2017 2017 2017 
2017 2017 2017 2017 2017 2017 2017 2017 2017 
2017 2017 2017 2017 2017 2017 2017 2017 2017 
2017 2017 2017 2017 2017 2017 2017 2017 2017 
2017 2017 2017 2017 2017 2017 2017 2017 2017 
2017 2017 2017 2017 2017 2017 2017 2017 2017 
2017 2017 2017 2017 2017 2017 2017 2017 2017 
2017 2017 2017 2017 2017 2017 2017 2017 2017 
2017 2017 2017 2017 2017 2017 2017 2017 2017 
2017 2017 2017 2017 2017 2017 2017 2017 2017 
2017 2017 2017 2017 2017 2017 2017 2017 2017 
2017 2017 2017 2017 2017 2017 2017 2017 2017 
2017 2017 2017 2017 2017 2017 2017 2017 2017 
2017 2017 2017 2017 2017 2017 2017 2017 2017 
2017 2017 2017 2017 2017 2017 2017 2017 2017 
2017 2017 2017 2017 2017 2017 2017 2017 2017 
2017 2017 2017 2017 2017 2017 2017 2017 2017 
2017 2017 2017 2017 2017 2017 2017 2017 2017 
2017 2017 2017 2017 2017 2017 2017 2017 2017 
2017 2017 2017 2017 2017 2017 2017 2017 2017 
2017 2017 2017 2017 2017 2017 2017 2017 2017 
2017 2017 2017 2017 2017 2017 2017 2017 2017 
2017 2017 2017 2017 2017 2017 2017 2017 2017 
2017 2017 2017 2017 2017 2017 2017 2017 2017 
2017 2017 2017 2017 2017 2017 2017 2017 2017 
2017 2017 2017 2017 2017 2017 2017 2017 2017 
2017 2017 2017 2017 2017 2017 2017 2017 2017 
2017 2017 2017 2017 2017 2017 2017 2017 2017 
2017 2017 2017 2017 2017 2017 2017 2017 2017 
2017 2017 2017 2017 2017 2017 2017 2017 2017 
2017 2017 2017 2017 2017 2017 2017 2017 2017 
2017 2017 2017 2017 2017 2017 2017 2017 2017 
2017 2017 2017 2017 2017 2017 2017 2017 2017 
2017 2017 2017 2017 2017 2017 2017 2017 2017 
2017 2017 2017 2017 2017 2017 2017 2017 2017 
2017 2017 2017 2017 2017 2017 2017 2017 2017 
2017 2017 2017 2017 2017 2017 2017 2017 2017 
2017 2017 2017 2017 2017 2017 2017 2017 2017 
2017 2017 2017 2017 2017 2017 2017 2017 2017 
2017 2017 2017 2017 2017 2017 2017 2017 2017 
2017 2017 2017 2017 2017 2017 2017 2017 2017 
2017 2017 2017 2017 2017 2017 2017 2017 2017 
2017 2017 2017 2017 2017 2017 2017 2017 2017 
2017 2017 2017 2017 2017 2017 2017 2017 2017 
2017 2017 2017 2017 2017 2017 2017 2017 2017 
2017 2017 2017 2017 2017 2017 2017 2017 2017 
2017 2017 2017 2017 2017 2017 2017 2017 2017 
2017 2017 2017 2017 2017 2017 2017 2017 2017 
2017 2017 2017 2017 2017 2017 2017 2017 2017 
2017 2017 2017 2017 2017 2017 2017 2017 2017 
2017 2017 2017 2017 2017 2017 2017 2017 2017 
2017 2017 2017 2017 2017 2017 2017 2017 2017 
2017 2017 2017 2017 2017 2017 2017 2017 2017 
2017 2017 2017 2017 2017 2017 2017 2017 2017 
2017 2017 2017 2017 2017 2017 2017 2017 2017 
2017 2017 2017 2017 2017 2017 2017 2017 2017 
2017 2017 2017 2017 2017 2017 2017 2017 2017 
2017 2017 2017 2017 2017 2017 2017 2017 2017 
2017 2017 2017 2017 2017 2017 2017 2017 2017 
2017 2017 2017 2017 2017 2017 2017 2017 2017 
2017 2017 2017 2017 2017 2017 2017 2017 2017 
2017 2017 2017 2017 2017 2017 2017 2017 2017 
2017 2017 2017 2017 2017 2017 2017 2017 2017 
2017 2017 2017 2017 2017 2017 2017 2017 2017 
2017 2017 2017 2017 2017 2017 2017 2017 2017 
2017 2017 2017 2017 2017 2017 2017 2017 2017 
2017 2017 2017 2017 2017 2017 2017 2017 2017 
2017 2017 2017 2017 2017 2017 2017 2017 2017 
2017 2017 2017 2017 2017 2017 2017 2017 2017 
2017 2017 2017 2017 2017 2017 2017 2017 2017 
2017 2017 2017 2017 2017 2017 2017 2017 2017 
2017 2017 2017 2017 2017 2017 2017 2017 2017 
2017 2017 2017 2017 2017 2017 2017 2017 2017 
2017 2017 2017 2017 2017 2017 2017 2017 2017 
2017 2017 2017 2017 2017 2017 2017 2017 2017 
2017 2017 2017 2017 2017 2017 2017 2017 2017 
2017 2017 2017 2017 2017 2017 2017 2017 2017 
2017 2017 2017 2017 2017 2017 2017 2017 2017 
2017 2017 2017 2017 2017 2017 2017 2017 2017 
2017 2017 2017 2017 2017 2017 2017 2017 2017 
2017 2017 2017 2017 2017 2017 2017 2017 2017 
2017 2017 2017 2017 2017 2017 2017 2017 2017 
2017 2017 2017 2017 2017 2017 2017 2017 2017 
2017 2017 2017 2017 2017 2017 2017 2017 2017 
2017 2017 2017 2017 2017 2017 2017 2017 2017 
2017 2017 2017 2017 2017 2017 2017 2017 2017 
2017 2017 2017 2017 2017 2017 2017 2017 2017 
2017 2017 2017 2017 2017 2017 2017 2017 2017 
2017 2017 2017 2017 2017 2017 2017 2017 2017 
2017 2017 2017 2017 2017 2017 2017 2017 2017 
2017 2017 2017 2017 2017 2017 2017 2017 2017 
2017 2017 2017 2017 2017 2017 2017 2017 2017 
2017 2017 2017 2017 2017 2017 2017 2017 2017 
2017 2017 2017 2017 2017 2017 2017 2017 2017 
2017 2017 2017 2017 2017 2017 2017 2017 2017 
2017 2017 2017 2017 2017 2017 2017 2017 2017 
2017 2017 2017 2017 2017 2017 2017 2017 2017 
2017 2017 2017 2017 2017 2017 2017 2017 2017 
2017 2017 2017 2017 2017 2017 2017 2017 2017 
2017 2017 2017 2017 2017 2017 2017 2017 2017 
2017 2017 2017 2017 2017 2017 2017 2017 2017 
2017 2017 2017 2017 2017 2017 2017 2017 2017 
2017 2017 2017 2017 2017 2017 2017 2017 2017 
2017 2017 2017 2017 2017 2017 2017 2017 2017 
2017 2017 2017 2017 2017 2017 2017 2017 2017 
2017 2017 2017 2017 2017 2017 2017 2017 2017 
2017 2017 2017 2017 2017 2017 2017 2017 2017 
2017 2017 2017 2017 2017 2017 2017 2017 2017 
2017 2017 2017 2017 2017 2017 2017 2017 2017 
2017 2017 2017 2017 2017 2017 2017 2017 2017 
2017 2017 2017 2017 2017 2017 2017 2017 2017 
2017 2017 2017 2017 2017 2017 2017 2017 2017 
2017 2017 2017 2017 2017 2017 2017 2017 2017 
2017 2017 2017 2017 2017 2017 2017 2017 2017 
2017 2017 2017 2017 2017 2017 2017 2017 2017 
2017 2017 2017 2017 2017 2017 2017 2017 2017 
2017 2017 2017 2017 2017 2017 2017 2017 2017 
2017 2017 2017 2017 2017 2017 2017 2017 2017 
2017 2017 2017 2017 2017 2017 2017 2017 2017 
2017 2017 2017 2017 2017 2017 2017 2017 2017 
2017 2017 2017 2017 2017 2017 2017 2017 2017 
2017 2017 2017 2017 2017 2017 2017 2017 2017 
2017 2017 2017 2017 2017 2017 2017 2017 2017 
2017 2017 2017 2017 2017 2017 2017 2017 2017 
2017 2017 2017 2017 2017 2017 2017 2017 2017 
2017 2017 2017 2017 2017 2017 2017 2017 2017 
2017 2017 2017 2017 2017 2017 2017 2017 2017 
2017 2017 2017 2017 2017 2017 2017 2017 2017 
2017 2017 2017 2017 2017 2017 2017 2017 2017 
2017 2017 2017 2017 2017 2017 2017 2017 2017 
2017 2017 2017 2017 2017 2017 2017 2017 2017 
2017 2017 2017 2017 2017 2017 2017 2017 2017 
2017 2017 2017 2017 2017 2017 2017 2017 2017 
2017 2017 2017 2017 2017 2017 2017 2017 2017 
2017 2017 2017 2017 2017 2017 2017 2017 2017 
2017 2017 2017 2017 2017 2017 2017 2017 2017 
2017 2017 2017 2017 2017 2017 2017 2017 2017 
2017 2017 2017 2017 2017 2017 2017 2017 2017 
2017 2017 2017 2017 2017 2017 2017 2017 2017 
2017 2017 2017 2017 2017 2017 2017 2017 2017 
2017 2017 2017 2017 2017 2017 2017 2017 2017 
2017 2017 2017 2017 2017 2017 2017 2017 2017 
2017 2017 2017 2017 2017 2017 2017 2017 2017 
2017 2017 2017 2017 2017 2017 2017 2017 2017 
2017 2017 2017 2017 2017 2017 2017 2017 2017 
2017 2017 2017 2017 2017 2017 2017 2017 2017 
2017 2017 2017 2017 2017 2017 2017 2017 2017 
2017 2017 2017 2017 2017 2017 2017 2017 2017 
2017 2017 2017 2017 2017 2017 2017 2017 2017 
2017 2017 2017 2017 2017 2017 2017 2017 2017 
2017 2017 2017 2017 2017 2017 2017 2017 2017 
2017 2017 2017 2017 2017 2017 2017 2017 2017 
2017 2017 2017 2017 2017 2017 2017 2017 2017 
2017 2017 2017 2017 2017 2017 2017 2017 2017 
2017 2017 2017 2017 2017 2017 2017 2017 2017 
2017 2017 2017 2017 2017 2017 2017 2017 2017 
2017 2017 2017 2017 2017 2017 2017 2017 2017 
2017 2017 2017 2017 2017 2017 2017 2017 2017 
2017 2017 2017 2017 2017 2017 2017 2017 2017 
2017 2017 2017 2017 2017 2017 2017 2017 2017 
2017 2017 2017 2017 2017 2017 2017 2017 2017 
2017 2017 2017 2017 2017 2017 2017 2017 2017 
2017 2017 2017 2017 2017 2017 2017 2017 2017 
2017 2017 2017 2017 2017 2017 2017 2017 2017 
2017 2017 2017 2017 2017 2017 2017 2017 2017 
2017 2017 2017 2017 2017 2017 2017 2017 2017 
2017 2017 2017 2017 2017 2017 2017 2017 2017 
2017 2017 2017 2017 2017 2017 2017 2017 2017 
2017 2017 2017 2017 2017 2017 2017 2017 2017 
2017 2017 2017 2017 2017 2017 2017 2017 2017 
2017 2017 2017 2017 2017 2017 2017 2017 2017 
2017 2017 2017 2017 2017 2017 2017 2017 2017 
2017 2017 2017 2017 2017 2017 2017 2017 2017 
2017 2017 2017 2017 2017 2017 2017 2017 2017 
2017 2017 2017 2017 2017 2017 2017 2017 2017 
2017 2017 2017 2017 2017 2017 2017 2017 2017 
2017 2017 2017 2017 2017 2017 2017 2017 2017 
2017 2017 2017 2017 2017 2017 2017 2017 2017 
2017 2017 2017 2017 2017 2017 2017 2017 2017 
2017 2017 2017 2017 2017 2017 2017 2017 2017 
2017 2017 2017 2017 2017 2017 2017 2017 2017 
2017 2017 2017 2017 2017 2017 2017 2017 2017 
2017 2017 2017 2017 2017 2017 2017 2017 2017 
2017 2017 2017 2017 2017 2017 2017 2017 2017 
2017 2017 2017 2017 2017 2017 2017 2017 2017 
2017 2017 2017 2017 2017 2017 2017 2017 2017 
2017 2017 2017 2017 2017 2017 2017 2017 2017 
2017 2017 2017 2017 2017 2017 2017 2017 2017 
2017 2017 2017 2017 2017 2017 2017 2017 2017 
2017 2017 2017 2017 2017 2017 2017 2017 2017 
2017 2017 2017 2017 2017 2017 2017 2017 2017 
2017 2017 2017 2017 2017 2017 2017 2017 2017 
2017 2017 2017 2017 2017 2017 2017 2017 2017 
2017 2017 2017 2017 2017 2017 2017 2017 2017 
2017 2017 2017 2017 2017 2017 2017 2017 2017 
2017 2017 2017 2017 2017 2017 2017 2017 2017 
2017 2017 2017 2017 2017 2017 2017 2017 2017 
2017 2017 2017 2017 2017 2017 2017 2017 2017 
2017 2017 2017 2017 2017 2017 2017 2017 2017 
2017 2017 2017 2017 2017 2017 2017 2017 2017 
2017 2017 2017 2017 2017 2017 2017 2017 2017 
2017 2017 2017 2017 2017 2017 2017 2017 2017 
2017 2017 2017 2017 2017 2017 2017 2017 2017 
2017 2017 2017 2017 2017 2017 2017 2017 2017 
2017 2017 2017 2017 2017 2017 2017 2017 2017 
2017 2017 2017 2017 2017 2017 2017 2017 2017 
2017 2017 2017 2017 2017 2017 2017 2017 2017 
2017 2017 2017 2017 2017 2017 2017 2017 2017 
2017 2017 2017 2017 2017 2017 2017 2017 2017 
2017 2017 2017 2017 2017 2017 2017 2017 2017 
2017 2017 2017 2017 2017 2017 2017 2017 2017 
2017 2017 2017 2017 2017 2017 2017 2017 2017 
2017 2017 2017 2017 2017 2017 2017 2017 2017 
2017 2017 2017 2017 2017 2017 2017 2017 2017 
2017 2017 2017 2017 2017 2017 2017 2017 2017 
2017 2017 2017 2017 2017 2017 2017 2017 2017 
2017 2017 2017 2017 2017 2017 2017 2017 2017 
2017 2017 2017 2017 2017 2017 2017 2017 2017 
2017 2017 2017 2017 2017 2017 2017 2017 2017 
2017 2017 2017 2017 2017 2017 2017 2017 2017 
2017 2017 2017 2017 2017 2017 2017 2017 2017 
2017 2017 2017 2017 2017 2017 2017 2017 2017 
2017 2017 2017 2017 2017 2017 2017 2017 2017 
2017 2017 2017 2017 2017 2017 2017 2017 2017 
2017 2017 2017 2017 2017 2017 2017 2017 2017 
2017 2017 2017 2017 2017 2017 2017 2017 2017 
2017 2017 2017 2017 2017 2017 2017 2017 2017 
2017 2017 2017 2017 2017 2017 2017 2017 2017 
2017 2017 2017 2017 2017 2017 2017 2017 2017 
2017 2017 2017 2017 2017 2017 2017 2017 2017 
2017 2017 2017 2017 2017 2017 2017 2017 2017 
2017 2017 2017 2017 2017 2017 2017 2017 2017 
2017 2017 2017 2017 2017 2017 2017 2017 2017 
2017 2017 2017 2017 2017 2017 2017 2017 2017 
2017 2017 2017 2017 2017 2017 2017 2017 2017 
2017 2017 2017 2017 2017 2017 2017 2017 2017 
2017 2017 2017 2017 2017 2017 2017 2017 2017 
2017 2017 2017 2017 2017 2017 2017 2017 2017 
2017 2017 2017 2017 2017 2017 2017 2017 2017 
2017 2017 2017 2017 2017 2017 2017 2017 2017 
2017 2017 2017 2017 2017 2017 2017 2017 2017 
2017 2017 2017 2017 2017 2017 2017 2017 2017 
2017 2017 2017 2017 2017 2017 2017 2017 2017 
2017 2017 2017 2017 2017 2017 2017 2017 2017 
2017 2017 2017 2017 2017 2017 2017 2017 2017 
2017 2017 2017 2017 2017 2017 2017 2017 2017 
2017 2017 2017 2017 2017 2017 2017 2017 2017 
2017 2017 2017 2017 2017 2017 2017 2017 2017 
2017 2017 2017 2017 2017 2017 2017 2017 2017 
2017 2017 2017 2017 2017 2017 2017 2017 2017 
2017 2017 2017 2017 2017 2017 2017 2017 2017 
2017 2017 2017 2017 2017 2017 2017 2017 2017 
2017 2017 2017 2017 2017 2017 2017 2017 2017 
2017 2017 2017 2017 2017 2017 2017 2017 2017 
2017 2017 2017 2017 2017 2017 2017 2017 2017 
2017 2017 2017 2017 2017 2017 2017 2017 2017 
2017 2017 2017 2017 2017 2017 2017 2017 2017 
2017 2017 2017 2017 2017 2017 2017 2017 2017 
2017 2017 2017 2017 2017 2017 2017 2017 2017 
2017 2017 2017 2017 2017 2017 2017 2017 2017 
2017 2017 2017 2017 2017 2017 2017 2017 2017 
2017 2017 2017 2017 2017 2017 2017 2017 2017 
2017 2017 2017 2017 2017 2017 2017 2017 2017 
2017 2017 2017 2017 2017 2017 2017 2017 2017 
2017 2017 2017 2017 2017 2017 2017 2017 2017 
2017 2017 2017 2017 2017 2017 2017 2017 2017 
2017 2017 2017 2017 2017 2017 2017 2017 2017 
2017 2017 2017 2017 2017 2017 2017 2017 2017 
2017 2017 2017 2017 2017 2017 2017 2017 2017 
2017 2017 2017 2017 2017 2017 2017 2017 2017 
2017 2017 2017 2017 2017 2017 2017 2017 2017 
2017 2017 2017 2017 2017 2017 2017 2017 2017 
2017 2017 2017 2017 2017 2017 2017 2017 2017 
2017 2017 2017 2017 2017 2017 2017 2017 2017 
2017 2017 2017 2017 2017 2017 2017 2017 2017 
2017 2017 2017 2017 2017 2017 2017 2017 2017 
2017 2017 2017 2017 2017 2017 2017 2017 2017 
2017 2017 2017 2017 2017 2017 2017 2017 2017 
2017 2017 2017 2017 2017 2017 2017 2017 2017 
2017 2017 2017 2017 2017 2017 2017 2017 2017 
2017 2017 2017 2017 2017 2017 2017 2017 2017 
2017 2017 2017 2017 2017 2017 2017 2017 2017 
2017 2017 2017 2017 2017 2017 2017 2017 2017 
2017 2017 2017 2017 2017 2017 2017 2017 2017 
2017 2017 2017 2017 2017 2017 2017 2017 2017 
2017 2017 2017 2017 2017 2017 2017 2017 2017 
2017 2017 2017 2017 2017 2017 2017 2017 2017 
2017 2017 2017 2017 2017 2017 2017 2017 2017 
2017 2017 2017 2017 2017 2017 2017 2017 2017 
2017 2017 2017 2017 2017 2017 2017 2017 2017 
2017 2017 2017 2017 2017 2017 2017 2017 2017 
2017 2017 2017 2017 2017 2017 2017 2017 2017 
2017 2017 2017 2017 2017 2017 2017 2017 2017 
2017 2017 2017 2017 2017 2017 2017 2017 2017 
2017 2017 2017 2017 2017 2017 2017 2017 2017 
2017 2017 2017 2017 2017 2017 2017 2017 2017 
2017 2017 2017 2017 2017 2017 2017 2017 2017 
2017 2017 2017 2017 2017 2017 2017 2017 2017 
2017 2017 2017 2017 2017 2017 2017 2017 2017 
2017 2017 2017 2017 2017 2017 2017 2017 2017 
2017 2017 2017 2017 2017 2017 2017 2017 2017 
2017 2017 2017 2017 2017 2017 2017 2017 2017 
2017 2017 2017 2017 2017 2017 2017 2017 2017 
2017 2017 2017 2017 2017 2017 2017 2017 2017 
2017 2017 2017 2017 2017 2017 2017 2017 2017 
2017 2017 2017 2017 2017 2017 2017 2017 2017 
2017 2017 2017 2017 2017 2017 2017 2017 2017 
2017 2017 2017 2017 2017 2017 2017 2017 2017 
2017 2017 2017 2017 2017 2017 2017 2017 2017 
2017 2017 2017 2017 2017 2017 2017 2017 2017 
2017 2017 2017 2017 2017 2017 2017 2017 2017 
2017 2017 2017 2017 2017 2017 2017 2017 2017 
2017 2017 2017 2017 2017 2017 2017 2017 2017 
2017 2017 2017 2017 2017 2017 2017 2017 2017 
2017 2017 2017 2017 2017 2017 2017 2017 2017 
2017 2017 2017 2017 2017 2017 2017 2017 2017 
2017 2017 2017 2017 2017 2017 2017 2017 2017 
2017 2017 2017 2017 2017 2017 2017 2017 2017 
2017 2017 2017 2017 2017 2017 2017 2017 2017 
2017 2017 2017 2017 2017 2017 2017 2017 2017 
2017 2017 2017 2017 2017 2017 2017 2017 2017 
2017 2017 2017 2017 2017 2017 2017 2017 2017 
2017 2017 2017 2017 2017 2017 2017 2017 2017 
2017 2017 2017 2017 2017 2017 2017 2017 2017 
2017 2017 2017 2017 2017 2017 2017 2017 2017 
2017 2017 2017 2017 2017 2017 2017 2017 2017 
2017 2017 2017 2017 2017 2017 2017 2017 2017 
2017 2017 2017 2017 2017 2017 2017 2017 2017 
2017 2017 2017 2017 2017 2017 2017 2017 2017 
2017 2017 2017 2017 2017 2017 2017 2017 2017 
2017 2017 2017 2017 2017 2017 2017 2017 2017 
2017 2017 2017 2017 2017 2017 2017 2017 2017 
2017 2017 2017 2017 2017 2017 2017 2017 2017 
2017 2017 2017 2017 2017 2017 2017 2017 2017 
2017 2017 2017 2017 2017 2017 2017 2017 2017 
2017 2017 2017 2017 2017 2017 2017 2017 2017 
2017 2017 2017 2017 2017 2017 2017 2017 2017 
2017 2017 2017 2017 2017 2017 2017 2017 2017 
2017 2017 2017 2017 2017 2017 2017 2017 2017 
2017 2017 2017 2017 2017 2017 2017 2017 2017 
2017 2017 2017 2017 2017 2017 2017 2017 2017 
2017 2017 2017 2017 2017 2017 2017 2017 2017 
2017 2017 2017 2017 2017 2017 2017 2017 2017 
2017 2017 2017 2017 2017 2017 2017 2017 2017 
2017 2017 2017 2017 2017 2017 2017 2017 2017 
2017 2017 2017 2017 2017 2017 2017 2017 2017 
2017 2017 2017 2017 2017 2017 2017 2017 2017 
2017 2017 2017 2017 2017 2017 2017 2017 2017 
2017 2017 2017 2017 2017 2017 2017 2017 2017 
2017 2017 2017 2017 2017 2017 2017 2017 2017 
2017 2017 2017 2017 2017 2017 2017 2017 2017 
2017 2017 2017 2017 2017 2017 2017 2017 2017 
2017 2017 2017 2017 2017 2017 2017 2017 2017 
2017 2017 2017 2017 2017 2017 2017 2017 2017 
2017 2017 2017 2017 2017 2017 2017 2017 2017 
2017 2017 2017 2017 2017 2017 2017 2017 2017 
2017 2017 2017 2017 2017 2017 2017 2017 2017 
2017 2017 2017 2017 2017 2017 2017 2017 2017 
2017 2017 2017 2017 2017 2017 2017 2017 2017 
2017 2017 2017 2017 2017 2017 2017 2017 2017 
2017 2017 2017 2017 2017 2017 2017 2017 2017 
2017 2017 2017 2017 2017 2017 2017 2017 2017 
2017 2017 2017 2017 2017 2017 2017 2017 2017 
2017 2017 2017 2017 2017 2017 2017 2017 2017 
2017 2017 2017 2017 2017 2017 2017 2017 2017 
2017 2017 2017 2017 2017 2017 2017 2017 2017 
2017 2017 2017 2017 2017 2017 2017 2017 2017 
2017 2017 2017 2017 2017 2017 2017 2017 2017 
2017 2017 2017 2017 2017 2017 2017 2017 2017 
2017 2017 2017 2017 2017 2017 2017 2017 2017 
2017 2017 2017 2017 2017 2017 2017 2017 2017 
2017 2017 2017 2017 2017 2017 2017 2017 2017 
2017 2017 2017 2017 2017 2017 2017 2017 2017 
2017 2017 2017 2017 2017 2017 2017 2017 2017 
2017 2017 2017 2017 2017 2017 2017 2017 2017 
2017 2017 2017 2017 2017 2017 2017 2017 2017 
2017 2017 2017 2017 2017 2017 2017 2017 2017 
2017 2017 2017 2017 2017 2017 2017 2017 2017 
2017 2017 2017 2017 2017 2017 2017 2017 2017 
2017 2017 2017 2017 2017 2017 2017 2017 2017 
2017 2017 2017 2017 2017 2017 2017 2017 2017 
2017 2017 2017 2017 2017 2017 2017 2017 2017 
2017 2017 2017 2017 2017 2017 2017 2017 2017 
2017 2017 2017 2017 2017 2017 2017 2017 2017 
2017 2017 2017 2017 2017 2017 2017 2017 2017 
2017 2017 2017 2017 2017 2017 2017 2017 2017 
2017 2017 2017 2017 2017 2017 2017 2017 2017 
2017 2017 2017 2017 2017 2017 2017 2017 2017 
2017 2017 2017 2017 2017 2017 2017 2017 2017 
2017 2017 2017 2017 2017 2017 2017 2017 2017 
2017 2017 2017 2017 2017 2017 2017 2017 2017 
2017 2017 2017 2017 2017 2017 2017 2017 2017 
2017 2017 2017 2017 2017 2017 2017 2017 2017 
2017 2017 2017 2017 2017 2017 2017 2017 2017 
2017 2017 2017 2017 2017 2017 2017 2017 2017 
2017 2017 2017 2017 2017 2017 2017 2017 2017 
2017 2017 2017 2017 2017 2017 2017 2017 2017 
2017 2017 2017 2017 2017 2017 2017 2017 2017 
2017 2017 2017 2017 2017 2017 2017 2017 2017 
2017 2017 2017 2017 2017 2017 2017 2017 2017 
2017 2017 2017 2017 2017 2017 2017 2017 2017 
2017 2017 2017 2017 2017 2017 2017 2017 2017 
2017 2017 2017 2017 2017 2017 2017 2017 2017 
2017 2017 2017 2017 2017 2017 2017 2017 2017 
2017 2017 2017 2017 2017 2017 2017 2017 2017 
2017 2017 2017 2017 2017 2017 2017 2017 2017 
2017 2017 2017 2017 2017 2017 2017 2017 2017 
2017 2017 2017 2017 2017 2017 2017 2017 2017 
2017 2017 2017 2017 2017 2017 2017 2017 2017 
2017 2017 2017 2017 2017 2017 2017 2017 2017 
2017 2017 2017 2017 2017 2017 2017 2017 2017 
2017 2017 2017 2017 2017 2017 2017 2017 2017 
2017 2017 2017 2017 2017 2017 2017 2017 2017 
2017 2017 2017 2017 2017 2017 2017 2017 2017 
2017 2017 2017 2017 2017 2017 2017 2017 2017 
2017 2017 2017 2017 2017 2017 2017 2017 2017 
2017 2017 2017 2017 2017 2017 2017 2017 2017 
2017 2017 2017 2017 2017 2017 2017 2017 2017 
2017 2017 2017 2017 2017 2017 2017 2017 2017 
2017 2017 2017 2017 2017 2017 2017 2017 2017 
2017 2017 2017 2017 2017 2017 2017 2017 2017 