# vtk DataFile Version 4.2
vtk output
ASCII
DATASET POLYDATA
POINTS 17734 float
39.6765 -32.4924 19.7244 39.5732 -32.254 19.2483 39.3638 -32.5004 19.6108 
40.1097 -32.4645 19.435 39.5641 -32.7756 19.384 35.7442 -31.7693 18.7882 
35.6896 -31.3513 18.5434 35.21 -31.6649 18.3235 35.9375 -31.5202 18.3914 
35.5733 -32.3082 18.7828 35.355 -32.7354 18.2619 36.0745 -32.1894 18.4167 
38.9026 -32.5139 19.0768 38.5851 -32.1954 18.379 38.3457 -32.6589 18.4348 
39.6301 -31.9247 18.2416 40.5428 -32.842 18.9806 40.644 -32.2122 18.6132 
41.3191 -32.5238 18.3608 35.7742 -32.7959 18.5109 38.8807 -33.0737 18.7037 
39.7225 -33.3825 18.8588 39.2375 -33.7211 18.3841 40.4802 -33.5334 18.7354 
41.1969 -33.1977 18.4815 40.0276 -34 18.4354 40.8035 -33.8604 18.4104 
41.8548 -34.7985 18.7559 41.77 -34.2951 18.5605 41.3728 -34.783 18.5128 
42.0762 -34.3493 18.2914 35.9604 -35.6857 18.9091 35.6873 -35.2737 18.3154 
35.3836 -35.7645 18.5771 36.6519 -35.7877 18.818 36.3701 -35.0799 18.3195 
37.083 -35.4067 18.2003 41.2788 -35.6369 18.3911 41.7132 -35.3757 18.763 
42.0797 -35.2566 18.4412 35.6158 -36.2935 18.8913 35.3589 -36.4397 18.2381 
36.3119 -36.4455 18.9172 37.1322 -36.2352 18.3244 38.7383 -36.6129 18.6682 
38.7148 -36.3268 18.5771 38.3862 -36.569 18.3429 39.0017 -36.4604 18.4757 
41.6877 -35.8711 18.2452 35.967 -36.8956 18.4401 36.8668 -36.9183 18.3046 
38.8519 -36.9016 18.1712 34.861 -30.7636 17.8422 34.7309 -30.0943 17.2224 
34.2102 -30.863 17.2943 35.2893 -30.3989 17.3964 38.9707 -30.6098 17.8187 
38.6035 -30.2572 17.3348 38.4386 -30.5973 17.3295 39.678 -30.7533 17.8169 
39.2843 -30.3141 17.492 39.8657 -30.6965 17.3947 34.5872 -31.2878 17.8445 
34.4225 -31.5387 17.2294 35.5867 -31.0148 17.9272 36.162 -31.4808 17.3867 
38.9079 -30.9778 17.4892 39.2394 -31.4843 17.5092 39.6088 -31.3465 17.8732 
40.2002 -31.2454 17.471 34.7535 -31.8321 17.5733 35.0585 -32.4473 17.4818 
36.7743 -32.1503 17.4601 36.6754 -32.7852 18.0319 37.7819 -32.6533 18.0359 
37.7503 -32.1892 17.4895 38.8135 -31.9065 17.4761 40.6877 -31.8529 17.6594 
41.8143 -32.8102 17.8908 41.5481 -32.222 17.6952 42.0508 -32.5225 17.2074 
35.9104 -33.4503 17.9947 35.3179 -33.4165 17.3819 36.807 -33.6705 17.9533 
37.6254 -33.5048 17.9388 38.5075 -33.4668 18.1117 41.5706 -33.81 18.2214 
42.1832 -33.3985 17.4424 35.8652 -34.1109 17.5308 36.1089 -34.6076 17.6205 
36.6974 -34.4623 17.8903 37.6965 -34.4542 17.8509 38.675 -34.5171 17.9131 
39.6295 -34.5084 18.0474 40.6716 -34.4462 18.1998 42.2814 -34.5369 17.529 
35.6618 -35.0177 17.6237 35.1696 -35.7817 17.7532 37.6717 -35.2132 17.6315 
37.4815 -35.6866 17.6597 37.9608 -35.7334 17.4849 38.6053 -35.7462 18.0168 
39.5757 -35.4305 17.9454 40.5083 -35.5623 18.0076 42.0672 -35.4991 17.6149 
35.2494 -36.7106 17.5056 37.6432 -35.971 17.5656 37.7652 -36.4258 17.9678 
39.6209 -36.3727 17.9841 40.1869 -36.477 17.5669 40.7536 -36.1634 17.4877 
41.4873 -35.9546 17.3179 35.8715 -37.1678 17.4363 36.6927 -37.1783 17.5084 
37.8598 -37.0501 17.6588 38.7044 -37.1532 17.4937 39.4089 -36.9128 17.3534 
32.6664 -28.4522 16.6783 32.7061 -28.242 16.2367 32.411 -28.7221 16.2962 
33.0558 -28.3871 16.4429 32.7827 -28.7174 16.5007 33.913 -29.1045 16.3233 
33.2514 -29.6882 16.4499 33.8914 -29.5012 16.7582 34.4333 -29.6145 16.9169 
34.6308 -29.1691 16.3576 35.2086 -29.4869 16.5003 33.7812 -30.1754 16.9358 
33.2127 -30.4129 16.4933 35.7701 -30.6356 17.1259 35.5475 -30.0275 16.7409 
36.0441 -30.4662 16.3461 38.8664 -30.0087 16.4384 38.311 -30.4218 16.42 
39.3093 -30.7521 16.9789 39.2297 -30.4381 16.32 40.7067 -30.7686 16.6313 
40.4532 -30.2859 16.2104 40.2538 -30.549 16.4731 40.9798 -30.5247 16.2263 
32.6012 -31.618 16.6525 32.5376 -31.203 16.3727 32.4005 -31.4949 16.2429 
33.578 -30.9218 16.5347 32.9747 -31.6569 16.293 34.1944 -31.5828 16.5502 
36.2917 -31.4233 16.2185 38.7737 -30.7656 16.6213 40.0473 -30.9404 16.7993 
39.2569 -31.4012 16.5995 40.7986 -31.4532 16.951 41.2449 -31.2973 16.2297 
32.6476 -31.8006 16.4538 34.707 -32.1176 16.7721 34.9375 -32.8322 16.6782 
36.7857 -31.9984 16.4859 37.6606 -32.1229 16.4652 38.5523 -31.9357 16.4405 
41.5949 -32.0277 16.7614 42.1426 -32.6456 16.4133 33.989 -33.703 16.7296 
33.6552 -33.0513 16.2821 33.326 -33.5993 16.3458 34.8246 -33.6533 16.848 
34.3682 -33.0005 16.4014 42.2707 -33.5461 16.4489 33.7519 -34.5463 16.8355 
33.2888 -34.484 16.3475 34.5141 -34.4005 16.95 35.3663 -34.4226 17.1711 
42.0849 -34.6548 16.6086 33.7258 -35.5606 16.8617 33.315 -35.5767 16.5051 
34.6819 -35.2642 17.1179 37.7363 -35.5767 17.2865 41.8325 -35.4792 16.9271 
41.3763 -35.523 16.5348 41.7554 -35.1082 16.4785 33.6882 -36.5232 16.7886 
33.3689 -36.3607 16.4517 34.6122 -36.5116 17.0993 39.9242 -36.5919 17.0258 
39.2942 -36.7054 16.5832 39.6522 -36.2875 16.3212 40.5995 -35.9482 16.4162 
33.7097 -37.0463 16.5438 34.2194 -37.5237 16.3988 34.4181 -37.3987 16.7511 
35.3644 -37.504 16.9016 35.9766 -37.6061 16.5911 36.3968 -37.2755 16.3919 
37.3735 -37.0276 16.3787 38.5269 -36.958 16.6738 34.9164 -37.857 16.4949 
35.5051 -37.8498 16.3721 32.5792 -28.051 15.2803 32.1133 -28.6347 15.4892 
33.509 -28.7646 16.0894 33.5459 -28.1483 15.6147 34.2972 -28.4066 15.3432 
32.7001 -29.3095 16.181 32.2467 -29.5114 15.672 34.6698 -28.8077 15.5879 
35.8156 -29.6373 16.0488 35.4729 -29.1675 15.679 36.0192 -29.6445 15.3875 
38.6174 -29.4837 15.8012 38.7199 -28.963 15.1928 38.2443 -29.6347 15.5703 
39.1653 -29.4857 15.5008 32.8319 -30.563 16.1412 32.1702 -30.6029 15.6293 
36.2773 -30.507 15.4141 38.2228 -30.4342 15.2138 39.5261 -30.7489 16.1142 
39.8136 -30.017 15.6743 40.7116 -30.172 15.6675 41.0931 -30.6463 15.4713 
32.2651 -31.277 15.3623 33.67 -31.6295 16.129 36.3818 -31.3821 15.5112 
38.6878 -30.9463 15.6783 39.0248 -31.4941 15.5011 41.3966 -31.2845 15.2252 
32.8817 -31.9116 15.6062 33.6632 -32.3807 16.0011 33.3245 -32.696 15.5808 
34.4314 -32.3069 16.1852 36.7624 -31.9384 15.5711 37.6737 -32.1517 15.4635 
38.583 -32.0011 15.4087 41.857 -31.9432 15.4755 42.2818 -32.7554 15.379 
33.3049 -33.4514 15.6345 42.0708 -33.7237 15.6401 33.4904 -34.0818 15.655 
33.5517 -34.8647 15.9262 33.9048 -34.2828 15.2066 41.6125 -34.6833 15.9575 
41.2075 -34.7186 15.4289 41.6807 -34.081 15.1212 33.7507 -35.8701 15.9821 
34.169 -35.2114 15.273 40.9234 -35.3333 15.8915 40.2769 -35.6552 15.6022 
40.5095 -35.1328 15.1223 33.8504 -36.8476 16.1862 34.6661 -35.9759 15.2379 
34.7059 -36.7584 15.7684 35.2384 -36.5212 15.2417 37.9843 -36.5853 15.8194 
37.2356 -36.655 15.5402 37.5917 -36.229 15.3186 38.5657 -36.0716 15.4948 
38.7858 -36.52 16.061 39.6134 -35.8901 15.5747 34.7648 -37.5405 16.1383 
35.7548 -36.9877 15.5948 35.6335 -37.4663 16.0596 36.6015 -36.8891 15.5533 
31.7607 -28.3526 14.9669 31.8299 -28.1248 14.371 31.3629 -28.7201 14.238 
32.793 -27.9343 14.3831 33.6756 -27.9671 14.5458 34.9005 -28.5375 14.8556 
34.4729 -28.1854 14.663 35.1866 -28.4983 14.1069 38.6488 -28.4209 14.7734 
38.6917 -28.1986 14.1829 38.2795 -28.7478 14.7268 39.1606 -28.4359 14.5087 
31.6592 -28.8652 14.6746 31.8512 -29.7831 14.5187 35.5584 -28.9863 14.7249 
36.2229 -29.6194 14.364 38.0667 -29.5266 14.5172 39.8478 -29.5995 14.8906 
39.4948 -29.0581 14.7375 40.1398 -29.3728 14.0804 31.8016 -30.5574 14.7803 
31.6124 -30.2269 14.442 31.515 -30.4568 14.4545 36.5744 -30.2221 14.5723 
36.6198 -30.9126 14.9429 36.9072 -30.5473 14.2654 38.3225 -30.3101 14.2492 
40.64 -30.05 14.6107 41.2984 -30.6489 14.4933 31.7278 -30.6752 14.4406 
32.5625 -31.2057 14.288 32.6197 -31.5467 15.0002 33.0506 -31.603 14.6282 
36.7727 -31.6186 15.0199 37.1876 -31.2736 14.3078 38.8386 -31.0045 14.4812 
39.2227 -31.646 14.4637 41.5872 -31.1611 14.5451 41.6501 -31.5527 14.8991 
42.0221 -31.4999 14.4898 33.6645 -31.9894 14.445 33.6615 -32.8196 14.8709 
34.1658 -32.4933 14.2351 37.5918 -31.98 14.5915 38.8015 -32.0255 14.3585 
42.8376 -32.5953 14.7388 42.5389 -32.0391 14.6754 43.7274 -32.5708 14.6864 
43.4018 -32.0184 14.4573 44.5165 -32.6298 14.6845 44.3553 -32.0951 14.502 
44.997 -32.4004 14.47 33.6795 -33.5552 15.1306 34.1602 -33.4078 14.5199 
42.2474 -33.3339 14.7562 43.0236 -33.0901 14.4807 43.9857 -33.0512 14.4853 
44.8275 -32.8973 14.4545 34.3559 -34.4695 14.5688 41.0993 -34.5287 14.7403 
41.6907 -33.9887 14.1439 34.581 -35.1649 14.6058 34.6244 -35.5585 14.9146 
35.0021 -35.5263 14.5155 36.7298 -35.6948 14.7094 36.0782 -35.7361 14.4979 
36.5717 -35.208 14.3381 37.3916 -35.0256 14.4271 37.7399 -35.6497 14.9125 
38.414 -34.9944 14.4538 38.9191 -35.5386 14.9473 39.5584 -35.0254 14.5302 
39.7704 -35.5132 15.0947 40.4156 -34.7858 14.4531 35.4391 -36.0025 14.6846 
36.0134 -36.4088 14.9772 36.8772 -36.3008 15.1018 31.8277 -28.167 13.3304 
31.29 -28.6267 13.56 32.631 -27.9527 13.5204 33.7045 -27.9488 13.4907 
34.728 -28.108 13.5636 35.4161 -28.4176 13.3425 38.7591 -28.095 13.2171 
38.2294 -28.612 13.7647 39.7477 -28.6561 14.0873 39.4048 -28.1775 13.6813 
39.9909 -28.6664 13.3629 31.5323 -29.3334 14.0155 31.2978 -29.546 13.3236 
35.8946 -28.8991 13.4767 36.3975 -29.4309 13.3885 38.2784 -29.413 13.4347 
40.3739 -29.2722 13.1847 31.8132 -30.5788 14.1177 31.6721 -29.9502 13.5481 
31.8423 -30.605 13.4792 36.8447 -29.9242 13.5224 37.3008 -30.5853 13.5627 
38.5829 -30.1395 13.6093 38.6759 -30.5833 13.9566 39.0107 -30.4146 13.3346 
40.6634 -29.7929 13.631 41.978 -30.7409 13.9537 41.3608 -30.0624 13.6147 
42.9494 -30.6448 13.7928 42.3637 -30.0394 13.4386 43.9591 -30.6475 13.8468 
43.5289 -30.0124 13.3674 44.9193 -30.738 13.8042 44.5686 -30.2039 13.386 
45.254 -30.4161 13.3507 32.137 -31.6081 13.6075 32.8071 -31.8132 13.9253 
33.329 -31.6151 13.7006 33.8523 -31.1517 13.3011 33.4884 -31.405 13.9877 
34.1105 -31.5222 13.6075 37.7832 -31.0822 13.3385 37.789 -31.7001 13.8786 
38.2829 -31.5509 13.295 39.5088 -31.2561 13.4621 39.6546 -31.7109 13.7812 
39.9115 -31.6224 13.3791 42.7436 -31.3908 14.1264 43.7005 -31.3731 14.1197 
44.7891 -31.5774 14.1586 45.7823 -30.8402 13.4724 45.8623 -31.5418 13.9406 
46.7579 -31.7603 13.7866 46.4738 -31.2444 13.5571 46.9852 -31.5315 13.2909 
32.6639 -32.3293 13.7582 32.2763 -32.45 13.5083 33.3758 -32.4077 13.7236 
[...]
CELL_DATA 35572
SCALARS scalars float
LOOKUP_TABLE default
1009 1009 1009 1009 1009 1009 1009 1009 1009 
1009 1009 1009 1009 1009 1009 1009 1009 1009 
1009 1009 1009 1009 1009 1009 1009 1009 1009 
1009 1009 1009 1009 1009 1009 1009 1009 1009 
1009 1009 1009 1009 1009 1009 1009 1009 1009 
1009 1009 1009 1009 1009 1009 1009 1009 1009 
1009 1009 1009 1009 1009 1009 1009 1009 1009 
1009 1009 1009 1009 1009 1009 1009 1009 1009 
1009 1009 1009 1009 1009 1009 1009 1009 1009 
1009 1009 1009 1009 1009 1009 1009 1009 1009 
1009 1009 1009 1009 1009 1009 1009 1009 1009 
1009 1009 1009 1009 1009 1009 1009 1009 1009 
1009 1009 1009 1009 1009 1009 1009 1009 1009 
1009 1009 1009 1009 1009 1009 1009 1009 1009 
1009 1009 1009 1009 1009 1009 1009 1009 1009 
1009 1009 1009 1009 1009 1009 1009 1009 1009 
1009 1009 1009 1009 1009 1009 1009 1009 1009 
1009 1009 1009 1009 1009 1009 1009 1009 1009 
1009 1009 1009 1009 1009 1009 1009 1009 1009 
1009 1009 1009 1009 1009 1009 1009 1009 1009 
1009 1009 1009 1009 1009 1009 1009 1009 1009 
1009 1009 1009 1009 1009 1009 1009 1009 1009 
1009 1009 1009 1009 1009 1009 1009 1009 1009 
1009 1009 1009 1009 1009 1009 1009 1009 1009 
1009 1009 1009 1009 1009 1009 1009 1009 1009 
1009 1009 1009 1009 1009 1009 1009 1009 1009 
1009 1009 1009 1009 1009 1009 1009 1009 1009 
1009 1009 1009 1009 1009 1009 1009 1009 1009 
1009 1009 1009 1009 1009 1009 1009 1009 1009 
1009 1009 1009 1009 1009 1009 1009 1009 1009 
1009 1009 1009 1009 1009 1009 1009 1009 1009 
1009 1009 1009 1009 1009 1009 1009 1009 1009 
1009 1009 1009 1009 1009 1009 1009 1009 1009 
1009 1009 1009 1009 1009 1009 1009 1009 1009 
1009 1009 1009 1009 1009 1009 1009 1009 1009 
1009 1009 1009 1009 1009 1009 1009 1009 1009 
1009 1009 1009 1009 1009 1009 1009 1009 1009 
1009 1009 1009 1009 1009 1009 1009 1009 1009 
1009 1009 1009 1009 1009 1009 1009 1009 1009 
1009 1009 1009 1009 1009 1009 1009 1009 1009 
1009 1009 1009 1009 1009 1009 1009 1009 1009 
1009 1009 1009 1009 1009 1009 1009 1009 1009 
1009 1009 1009 1009 1009 1009 1009 1009 1009 
1009 1009 1009 1009 1009 1009 1009 1009 1009 
1009 1009 1009 1009 1009 1009 1009 1009 1009 
1009 1009 1009 1009 1009 1009 1009 1009 1009 
1009 1009 1009 1009 1009 1009 1009 1009 1009 
1009 1009 1009 1009 1009 1009 1009 1009 1009 
1009 1009 1009 1009 1009 1009 1009 1009 1009 
1009 1009 1009 1009 1009 1009 1009 1009 1009 
1009 1009 1009 1009 1009 1009 1009 1009 1009 
1009 1009 1009 1009 1009 1009 1009 1009 1009 
1009 1009 1009 1009 1009 1009 1009 1009 1009 
1009 1009 1009 1009 1009 1009 1009 1009 1009 
1009 1009 1009 1009 1009 1009 1009 1009 1009 
1009 1009 1009 1009 1009 1009 1009 1009 1009 
1009 1009 1009 1009 1009 1009 1009 1009 1009 
1009 1009 1009 1009 1009 1009 1009 1009 1009 
1009 1009 1009 1009 1009 1009 1009 1009 1009 
1009 1009 1009 1009 1009 1009 1009 1009 1009 
1009 1009 1009 1009 1009 1009 1009 1009 1009 
1009 1009 1009 1009 1009 1009 1009 1009 1009 
1009 1009 1009 1009 1009 1009 1009 1009 1009 
1009 1009 1009 1009 1009 1009 1009 1009 1009 
1009 1009 1009 1009 1009 1009 1009 1009 1009 
1009 1009 1009 1009 1009 1009 1009 1009 1009 
1009 1009 1009 1009 1009 1009 1009 1009 1009 
1009 1009 1009 1009 1009 1009 1009 1009 1009 
1009 1009 1009 1009 1009 1009 1009 1009 1009 
1009 1009 1009 1009 1009 1009 1009 1009 1009 
1009 1009 1009 1009 1009 1009 1009 1009 1009 
1009 1009 1009 1009 1009 1009 1009 1009 1009 
1009 1009 1009 1009 1009 1009 1009 1009 1009 
1009 1009 1009 1009 1009 1009 1009 1009 1009 
1009 1009 1009 1009 1009 1009 1009 1009 1009 
1009 1009 1009 1009 1009 1009 1009 1009 1009 
1009 1009 1009 1009 1009 1009 1009 1009 1009 
1009 1009 1009 1009 1009 1009 1009 1009 1009 
1009 1009 1009 1009 1009 1009 1009 1009 1009 
1009 1009 1009 1009 1009 1009 1009 1009 1009 
1009 1009 1009 1009 1009 1009 1009 1009 1009 
1009 1009 1009 1009 1009 1009 1009 1009 1009 
1009 1009 1009 1009 1009 1009 1009 1009 1009 
1009 1009 1009 1009 1009 1009 1009 1009 1009 
1009 1009 1009 1009 1009 1009 1009 1009 1009 
1009 1009 1009 1009 1009 1009 1009 1009 1009 
1009 1009 1009 1009 1009 1009 1009 1009 1009 
1009 1009 1009 1009 1009 1009 1009 1009 1009 
1009 1009 1009 1009 1009 1009 1009 1009 1009 
1009 1009 1009 1009 1009 1009 1009 1009 1009 
1009 1009 1009 1009 1009 1009 1009 1009 1009 
1009 1009 1009 1009 1009 1009 1009 1009 1009 
1009 1009 1009 1009 1009 1009 1009 1009 1009 
1009 1009 1009 1009 1009 1009 1009 1009 1009 
1009 1009 1009 1009 1009 1009 1009 1009 1009 
1009 1009 1009 1009 1009 1009 1009 1009 1009 
1009 1009 1009 1009 1009 1009 1009 1009 1009 
1009 1009 1009 1009 1009 1009 1009 1009 1009 
1009 1009 1009 1009 1009 1009 1009 1009 1009 
1009 1009 1009 1009 1009 1009 1009 1009 1009 
1009 1009 1009 1009 1009 1009 1009 1009 1009 
1009 1009 1009 1009 1009 1009 1009 1009 1009 
1009 1009 1009 1009 1009 1009 1009 1009 1009 
1009 1009 1009 1009 1009 1009 1009 1009 1009 
1009 1009 1009 1009 1009 1009 1009 1009 1009 
1009 1009 1009 1009 1009 1009 1009 1009 1009 
1009 1009 1009 1009 1009 1009 1009 1009 1009 
1009 1009 1009 1009 1009 1009 1009 1009 1009 
1009 1009 1009 1009 1009 1009 1009 1009 1009 
1009 1009 1009 1009 1009 1009 1009 1009 1009 
1009 1009 1009 1009 1009 1009 1009 1009 1009 
1009 1009 1009 1009 1009 1009 1009 1009 1009 
1009 1009 1009 1009 1009 1009 1009 1009 1009 
1009 1009 1009 1009 1009 1009 1009 1009 1009 
1009 1009 1009 1009 1009 1009 1009 1009 1009 
1009 1009 1009 1009 1009 1009 1009 1009 1009 
1009 1009 1009 1009 1009 1009 1009 1009 1009 
1009 1009 1009 1009 1009 1009 1009 1009 1009 
1009 1009 1009 1009 1009 1009 1009 1009 1009 
1009 1009 1009 1009 1009 1009 1009 1009 1009 
1009 1009 1009 1009 1009 1009 1009 1009 1009 
1009 1009 1009 1009 1009 1009 1009 1009 1009 
1009 1009 1009 1009 1009 1009 1009 1009 1009 
1009 1009 1009 1009 1009 1009 1009 1009 1009 
1009 1009 1009 1009 1009 1009 1009 1009 1009 
1009 1009 1009 1009 1009 1009 1009 1009 1009 
1009 1009 1009 1009 1009 1009 1009 1009 1009 
1009 1009 1009 1009 1009 1009 1009 1009 1009 
1009 1009 1009 1009 1009 1009 1009 1009 1009 
1009 1009 1009 1009 1009 1009 1009 1009 1009 
1009 1009 1009 1009 1009 1009 1009 1009 1009 
1009 1009 1009 1009 1009 1009 1009 1009 1009 
1009 1009 1009 1009 1009 1009 1009 1009 1009 
1009 1009 1009 1009 1009 1009 1009 1009 1009 
1009 1009 1009 1009 1009 1009 1009 1009 1009 
1009 1009 1009 1009 1009 1009 1009 1009 1009 
1009 1009 1009 1009 1009 1009 1009 1009 1009 
1009 1009 1009 1009 1009 1009 1009 1009 1009 
1009 1009 1009 1009 1009 1009 1009 1009 1009 
1009 1009 1009 1009 1009 1009 1009 1009 1009 
1009 1009 1009 1009 1009 1009 1009 1009 1009 
1009 1009 1009 1009 1009 1009 1009 1009 1009 
1009 1009 1009 1009 1009 1009 1009 1009 1009 
1009 1009 1009 1009 1009 1009 1009 1009 1009 
1009 1009 1009 1009 1009 1009 1009 1009 1009 
1009 1009 1009 1009 1009 1009 1009 1009 1009 
1009 1009 1009 1009 1009 1009 1009 1009 1009 
1009 1009 1009 1009 1009 1009 1009 1009 1009 
1009 1009 1009 1009 1009 1009 1009 1009 1009 
1009 1009 1009 1009 1009 1009 1009 1009 1009 
1009 1009 1009 1009 1009 1009 1009 1009 1009 
1009 1009 1009 1009 1009 1009 1009 1009 1009 
1009 1009 1009 1009 1009 1009 1009 1009 1009 
1009 1009 1009 1009 1009 1009 1009 1009 1009 
1009 1009 1009 1009 1009 1009 1009 1009 1009 
1009 1009 1009 1009 1009 1009 1009 1009 1009 
1009 1009 1009 1009 1009 1009 1009 1009 1009 
1009 1009 1009 1009 1009 1009 1009 1009 1009 
1009 1009 1009 1009 1009 1009 1009 1009 1009 
1009 1009 1009 1009 1009 1009 1009 1009 1009 
1009 1009 1009 1009 1009 1009 1009 1009 1009 
1009 1009 1009 1009 1009 1009 1009 1009 1009 
1009 1009 1009 1009 1009 1009 1009 1009 1009 
1009 1009 1009 1009 1009 1009 1009 1009 1009 
1009 1009 1009 1009 1009 1009 1009 1009 1009 
1009 1009 1009 1009 1009 1009 1009 1009 1009 
1009 1009 1009 1009 1009 1009 1009 1009 1009 
1009 1009 1009 1009 1009 1009 1009 1009 1009 
1009 1009 1009 1009 1009 1009 1009 1009 1009 
1009 1009 1009 1009 1009 1009 1009 1009 1009 
1009 1009 1009 1009 1009 1009 1009 1009 1009 
1009 1009 1009 1009 1009 1009 1009 1009 1009 
1009 1009 1009 1009 1009 1009 1009 1009 1009 
1009 1009 1009 1009 1009 1009 1009 1009 1009 
1009 1009 1009 1009 1009 1009 1009 1009 1009 
1009 1009 1009 1009 1009 1009 1009 1009 1009 
1009 1009 1009 1009 1009 1009 1009 1009 1009 
1009 1009 1009 1009 1009 1009 1009 1009 1009 
1009 1009 1009 1009 1009 1009 1009 1009 1009 
1009 1009 1009 1009 1009 1009 1009 1009 1009 
1009 1009 1009 1009 1009 1009 1009 1009 1009 
1009 1009 1009 1009 1009 1009 1009 1009 1009 
1009 1009 1009 1009 1009 1009 1009 1009 1009 
1009 1009 1009 1009 1009 1009 1009 1009 1009 
1009 1009 1009 1009 1009 1009 1009 1009 1009 
1009 1009 1009 1009 1009 1009 1009 1009 1009 
1009 1009 1009 1009 1009 1009 1009 1009 1009 
1009 1009 1009 1009 1009 1009 1009 1009 1009 
1009 1009 1009 1009 1009 1009 1009 1009 1009 
1009 1009 1009 1009 1009 1009 1009 1009 1009 
1009 1009 1009 1009 1009 1009 1009 1009 1009 
1009 1009 1009 1009 1009 1009 1009 1009 1009 
1009 1009 1009 1009 1009 1009 1009 1009 1009 
1009 1009 1009 1009 1009 1009 1009 1009 1009 
1009 1009 1009 1009 1009 1009 1009 1009 1009 
1009 1009 1009 1009 1009 1009 1009 1009 1009 
1009 1009 1009 1009 1009 1009 1009 1009 1009 
1009 1009 1009 1009 1009 1009 1009 1009 1009 
1009 1009 1009 1009 1009 1009 1009 1009 1009 
1009 1009 1009 1009 1009 1009 1009 1009 1009 
1009 1009 1009 1009 1009 1009 1009 1009 1009 
1009 1009 1009 1009 1009 1009 1009 1009 1009 
1009 1009 1009 1009 1009 1009 1009 1009 1009 
1009 1009 1009 1009 1009 1009 1009 1009 1009 
1009 1009 1009 1009 1009 1009 1009 1009 1009 
1009 1009 1009 1009 1009 1009 1009 1009 1009 
1009 1009 1009 1009 1009 1009 1009 1009 1009 
1009 1009 1009 1009 1009 1009 1009 1009 1009 
1009 1009 1009 1009 1009 1009 1009 1009 1009 
1009 1009 1009 1009 1009 1009 1009 1009 1009 
1009 1009 1009 1009 1009 1009 1009 1009 1009 
1009 1009 1009 1009 1009 1009 1009 1009 1009 
1009 1009 1009 1009 1009 1009 1009 1009 1009 
1009 1009 1009 1009 1009 1009 1009 1009 1009 
1009 1009 1009 1009 1009 1009 1009 1009 1009 
1009 1009 1009 1009 1009 1009 1009 1009 1009 
1009 1009 1009 1009 1009 1009 1009 1009 1009 
1009 1009 1009 1009 1009 1009 1009 1009 1009 
1009 1009 1009 1009 1009 1009 1009 1009 1009 
1009 1009 1009 1009 1009 1009 1009 1009 1009 
1009 1009 1009 1009 1009 1009 1009 1009 1009 
1009 1009 1009 1009 1009 1009 1009 1009 1009 
1009 1009 1009 1009 1009 1009 1009 1009 1009 
1009 1009 1009 1009 1009 1009 1009 1009 1009 
1009 1009 1009 1009 1009 1009 1009 1009 1009 
1009 1009 1009 1009 1009 1009 1009 1009 1009 
1009 1009 1009 1009 1009 1009 1009 1009 1009 
1009 1009 1009 1009 1009 1009 1009 1009 1009 
1009 1009 1009 1009 1009 1009 1009 1009 1009 
1009 1009 1009 1009 1009 1009 1009 1009 1009 
1009 1009 1009 1009 1009 1009 1009 1009 1009 
1009 1009 1009 1009 1009 1009 1009 1009 1009 
1009 1009 1009 1009 1009 1009 1009 1009 1009 
1009 1009 1009 1009 1009 1009 1009 1009 1009 
1009 1009 1009 1009 1009 1009 1009 1009 1009 
1009 1009 1009 1009 1009 1009 1009 1009 1009 
1009 1009 1009 1009 1009 1009 1009 1009 1009 
1009 1009 1009 1009 1009 1009 1009 1009 1009 
1009 1009 1009 1009 1009 1009 1009 1009 1009 
1009 1009 1009 1009 1009 1009 1009 1009 1009 
1009 1009 1009 1009 1009 1009 1009 1009 1009 
1009 1009 1009 1009 1009 1009 1009 1009 1009 
1009 1009 1009 1009 1009 1009 1009 1009 1009 
1009 1009 1009 1009 1009 1009 1009 1009 1009 
1009 1009 1009 1009 1009 1009 1009 1009 1009 
1009 1009 1009 1009 1009 1009 1009 1009 1009 
1009 1009 1009 1009 1009 1009 1009 1009 1009 
1009 1009 1009 1009 1009 1009 1009 1009 1009 
1009 1009 1009 1009 1009 1009 1009 1009 1009 
1009 1009 1009 1009 1009 1009 1009 1009 1009 
1009 1009 1009 1009 1009 1009 1009 1009 1009 
1009 1009 1009 1009 1009 1009 1009 1009 1009 
1009 1009 1009 1009 1009 1009 1009 1009 1009 
1009 1009 1009 1009 1009 1009 1009 1009 1009 
1009 1009 1009 1009 1009 1009 1009 1009 1009 
1009 1009 1009 1009 1009 1009 1009 1009 1009 
1009 1009 1009 1009 1009 1009 1009 1009 1009 
1009 1009 1009 1009 1009 1009 1009 1009 1009 
1009 1009 1009 1009 1009 1009 1009 1009 1009 
1009 1009 1009 1009 1009 1009 1009 1009 1009 
1009 1009 1009 1009 1009 1009 1009 1009 1009 
1009 1009 1009 1009 1009 1009 1009 1009 1009 
1009 1009 1009 1009 1009 1009 1009 1009 1009 
1009 1009 1009 1009 1009 1009 1009 1009 1009 
1009 1009 1009 1009 1009 1009 1009 1009 1009 
1009 1009 1009 1009 1009 1009 1009 1009 1009 
1009 1009 1009 1009 1009 1009 1009 1009 1009 
1009 1009 1009 1009 1009 1009 1009 1009 1009 
1009 1009 1009 1009 1009 1009 1009 1009 1009 
1009 1009 1009 1009 1009 1009 1009 1009 1009 
1009 1009 1009 1009 1009 1009 1009 1009 1009 
1009 1009 1009 1009 1009 1009 1009 1009 1009 
1009 1009 1009 1009 1009 1009 1009 1009 1009 
1009 1009 1009 1009 1009 1009 1009 1009 1009 
1009 1009 1009 1009 1009 1009 1009 1009 1009 
1009 1009 1009 1009 1009 1009 1009 1009 1009 
1009 1009 1009 1009 1009 1009 1009 1009 1009 
1009 1009 1009 1009 1009 1009 1009 1009 1009 
1009 1009 1009 1009 1009 1009 1009 1009 1009 
1009 1009 1009 1009 1009 1009 1009 1009 1009 
1009 1009 1009 1009 1009 1009 1009 1009 1009 
1009 1009 1009 1009 1009 1009 1009 1009 1009 
1009 1009 1009 1009 1009 1009 1009 1009 1009 
1009 1009 1009 1009 1009 1009 1009 1009 1009 
1009 1009 1009 1009 1009 1009 1009 1009 1009 
1009 1009 1009 1009 1009 1009 1009 1009 1009 
1009 1009 1009 1009 1009 1009 1009 1009 1009 
1009 1009 1009 1009 1009 1009 1009 1009 1009 
1009 1009 1009 1009 1009 1009 1009 1009 1009 
1009 1009 1009 1009 1009 1009 1009 1009 1009 
1009 1009 1009 1009 1009 1009 1009 1009 1009 
1009 1009 1009 1009 1009 1009 1009 1009 1009 
1009 1009 1009 1009 1009 1009 1009 1009 1009 
1009 1009 1009 1009 1009 1009 1009 1009 1009 
1009 1009 1009 1009 1009 1009 1009 1009 1009 
1009 1009 1009 1009 1009 1009 1009 1009 1009 
1009 1009 1009 1009 1009 1009 1009 1009 1009 
1009 1009 1009 1009 1009 1009 1009 1009 1009 
1009 1009 1009 1009 1009 1009 1009 1009 1009 
1009 1009 1009 1009 1009 1009 1009 1009 1009 
1009 1009 1009 1009 1009 1009 1009 1009 1009 
1009 1009 1009 1009 1009 1009 1009 1009 1009 
1009 1009 1009 1009 1009 1009 1009 1009 1009 
1009 1009 1009 1009 1009 1009 1009 1009 1009 
1009 1009 1009 1009 1009 1009 1009 1009 1009 
1009 1009 1009 1009 1009 1009 1009 1009 1009 
1009 1009 1009 1009 1009 1009 1009 1009 1009 
1009 1009 1009 1009 1009 1009 1009 1009 1009 
1009 1009 1009 1009 1009 1009 1009 1009 1009 
1009 1009 1009 1009 1009 1009 1009 1009 1009 
1009 1009 1009 1009 1009 1009 1009 1009 1009 
1009 1009 1009 1009 1009 1009 1009 1009 1009 
1009 1009 1009 1009 1009 1009 1009 1009 1009 
1009 1009 1009 1009 1009 1009 1009 1009 1009 
1009 1009 1009 1009 1009 1009 1009 1009 1009 
1009 1009 1009 1009 1009 1009 1009 1009 1009 
1009 1009 1009 1009 1009 1009 1009 1009 1009 
1009 1009 1009 1009 1009 1009 1009 1009 1009 
1009 1009 1009 1009 1009 1009 1009 1009 1009 
1009 1009 1009 1009 1009 1009 1009 1009 1009 
1009 1009 1009 1009 1009 1009 1009 1009 1009 
1009 1009 1009 1009 1009 1009 1009 1009 1009 
1009 1009 1009 1009 1009 1009 1009 1009 1009 
1009 1009 1009 1009 1009 1009 1009 1009 1009 
1009 1009 1009 1009 1009 1009 1009 1009 1009 
1009 1009 1009 1009 1009 1009 1009 1009 1009 
1009 1009 1009 1009 1009 1009 1009 1009 1009 
1009 1009 1009 1009 1009 1009 1009 1009 1009 
1009 1009 1009 1009 1009 1009 1009 1009 1009 
1009 1009 1009 1009 1009 1009 1009 1009 1009 
1009 1009 1009 1009 1009 1009 1009 1009 1009 
1009 1009 1009 1009 1009 1009 1009 1009 1009 
1009 1009 1009 1009 1009 1009 1009 1009 1009 
1009 1009 1009 1009 1009 1009 1009 1009 1009 
1009 1009 1009 1009 1009 1009 1009 1009 1009 
1009 1009 1009 1009 1009 1009 1009 1009 1009 
1009 1009 1009 1009 1009 1009 1009 1009 1009 
1009 1009 1009 1009 1009 1009 1009 1009 1009 
1009 1009 1009 1009 1009 1009 1009 1009 1009 
1009 1009 1009 1009 1009 1009 1009 1009 1009 
1009 1009 1009 1009 1009 1009 1009 1009 1009 
1009 1009 1009 1009 1009 1009 1009 1009 1009 
1009 1009 1009 1009 1009 1009 1009 1009 1009 
1009 1009 1009 1009 1009 1009 1009 1009 1009 
1009 1009 1009 1009 1009 1009 1009 1009 1009 
1009 1009 1009 1009 1009 1009 1009 1009 1009 
1009 1009 1009 1009 1009 1009 1009 1009 1009 
1009 1009 1009 1009 1009 1009 1009 1009 1009 
1009 1009 1009 1009 1009 1009 1009 1009 1009 
1009 1009 1009 1009 1009 1009 1009 1009 1009 
1009 1009 1009 1009 1009 1009 1009 1009 1009 
1009 1009 1009 1009 1009 1009 1009 1009 1009 
1009 1009 1009 1009 1009 1009 1009 1009 1009 
1009 1009 1009 1009 1009 1009 1009 1009 1009 
1009 1009 1009 1009 1009 1009 1009 1009 1009 
1009 1009 1009 1009 1009 1009 1009 1009 1009 
1009 1009 1009 1009 1009 1009 1009 1009 1009 
1009 1009 1009 1009 1009 1009 1009 1009 1009 
1009 1009 1009 1009 1009 1009 1009 1009 1009 
1009 1009 1009 1009 1009 1009 1009 1009 1009 
1009 1009 1009 1009 1009 1009 1009 1009 1009 
1009 1009 1009 1009 1009 1009 1009 1009 1009 
1009 1009 1009 1009 1009 1009 1009 1009 1009 
1009 1009 1009 1009 1009 1009 1009 1009 1009 
1009 1009 1009 1009 1009 1009 1009 1009 1009 
1009 1009 1009 1009 1009 1009 1009 1009 1009 
1009 1009 1009 1009 1009 1009 1009 1009 1009 
1009 1009 1009 1009 1009 1009 1009 1009 1009 
1009 1009 1009 1009 1009 1009 1009 1009 1009 
1009 1009 1009 1009 1009 1009 1009 1009 1009 
1009 1009 1009 1009 1009 1009 1009 1009 1009 
1009 1009 1009 1009 1009 1009 1009 1009 1009 
1009 1009 1009 1009 1009 1009 1009 1009 1009 
1009 1009 1009 1009 1009 1009 1009 1009 1009 
1009 1009 1009 1009 1009 1009 1009 1009 1009 
1009 1009 1009 1009 1009 1009 1009 1009 1009 
1009 1009 1009 1009 1009 1009 1009 1009 1009 
1009 1009 1009 1009 1009 1009 1009 1009 1009 
1009 1009 1009 1009 1009 1009 1009 1009 1009 
1009 1009 1009 1009 1009 1009 1009 1009 1009 
1009 1009 1009 1009 1009 1009 1009 1009 1009 
1009 1009 1009 1009 1009 1009 1009 1009 1009 
1009 1009 1009 1009 1009 1009 1009 1009 1009 
1009 1009 1009 1009 1009 1009 1009 1009 1009 
1009 1009 1009 1009 1009 1009 1009 1009 1009 
1009 1009 1009 1009 1009 1009 1009 1009 1009 
1009 1009 1009 1009 1009 1009 1009 1009 1009 
1009 1009 1009 1009 1009 1009 1009 1009 1009 
1009 1009 1009 1009 1009 1009 1009 1009 1009 
1009 1009 1009 1009 1009 1009 1009 1009 1009 
1009 1009 1009 1009 1009 1009 1009 1009 1009 
1009 1009 1009 1009 1009 1009 1009 1009 1009 
1009 1009 1009 1009 1009 1009 1009 1009 1009 
1009 1009 1009 1009 1009 1009 1009 1009 1009 
1009 1009 1009 1009 1009 1009 1009 1009 1009 
1009 1009 1009 1009 1009 1009 1009 1009 1009 
1009 1009 1009 1009 1009 1009 1009 1009 1009 
1009 1009 1009 1009 1009 1009 1009 1009 1009 
1009 1009 1009 1009 1009 1009 1009 1009 1009 
1009 1009 1009 1009 1009 1009 1009 1009 1009 
1009 1009 1009 1009 1009 1009 1009 1009 1009 
1009 1009 1009 1009 1009 1009 1009 1009 1009 
1009 1009 1009 1009 1009 1009 1009 1009 1009 
1009 1009 1009 1009 1009 1009 1009 1009 1009 
1009 1009 1009 1009 1009 1009 1009 1009 1009 
1009 1009 1009 1009 1009 1009 1009 1009 1009 
1009 1009 1009 1009 1009 1009 1009 1009 1009 
1009 1009 1009 1009 1009 1009 1009 1009 1009 
1009 1009 1009 1009 1009 1009 1009 1009 1009 
1009 1009 1009 1009 1009 1009 1009 1009 1009 
1009 1009 1009 1009 1009 1009 1009 1009 1009 
1009 1009 1009 1009 1009 1009 1009 1009 1009 
1009 1009 1009 1009 1009 1009 1009 1009 1009 
1009 1009 1009 1009 1009 1009 1009 1009 1009 
1009 1009 1009 1009 1009 1009 1009 1009 1009 
1009 1009 1009 1009 1009 1009 1009 1009 1009 
1009 1009 1009 1009 1009 1009 1009 1009 1009 
1009 1009 1009 1009 1009 1009 1009 1009 1009 
1009 1009 1009 1009 1009 1009 1009 1009 1009 
1009 1009 1009 1009 1009 1009 1009 1009 1009 
1009 1009 1009 1009 1009 1009 1009 1009 1009 
1009 1009 1009 1009 1009 1009 1009 1009 1009 
1009 1009 1009 1009 1009 1009 1009 1009 1009 
1009 1009 1009 1009 1009 1009 1009 1009 1009 
1009 1009 1009 1009 1009 1009 1009 1009 1009 
1009 1009 1009 1009 1009 1009 1009 1009 1009 
1009 1009 1009 1009 1009 1009 1009 1009 1009 
1009 1009 1009 1009 1009 1009 1009 1009 1009 
1009 1009 1009 1009 1009 1009 1009 1009 1009 
1009 1009 1009 1009 1009 1009 1009 1009 1009 
1009 1009 1009 1009 1009 1009 1009 1009 1009 
1009 1009 1009 1009 1009 1009 1009 1009 1009 
1009 1009 1009 1009 1009 1009 1009 1009 1009 