# vtk DataFile Version 4.2
vtk output
ASCII
DATASET POLYDATA
POINTS 5116 float
-48.0407 60.8016 0.331838 -47.6423 60.4275 0.825046 -47.2466 60.522 0.167824 
-48.7461 60.7796 0.274403 -48.6208 60.3106 0.981475 -49.2461 60.3719 0.447887 
-47.7144 60.9117 -0.631676 -46.9835 60.5693 -0.578598 -48.5807 60.9137 -0.484869 
-49.2405 60.5465 -0.280979 -47.0472 60.8422 -1.48213 -46.4977 60.4094 -1.09497 
-46.2419 60.5014 -1.88901 -47.8954 61.0407 -1.71514 -48.5748 60.9115 -1.53287 
-49.2219 60.5487 -1.27757 -46.8105 60.8852 -2.56672 -46.1452 60.5176 -2.84563 
-47.6985 61.0356 -2.56689 -48.5846 60.9054 -2.57091 -49.2466 60.5143 -2.3187 
-46.682 60.7815 -3.34694 -46.3185 60.4363 -3.65698 -47.4226 60.8993 -3.43507 
-48.3739 60.8245 -3.44891 -49.1667 60.4932 -3.27253 -47.0095 60.5203 -4.02377 
-48.0012 60.5302 -4.11394 -48.8431 60.4388 -3.94993 -48.0775 59.8277 4.31034 
-47.6581 59.4575 4.83718 -47.2828 59.5171 4.15885 -48.7387 59.7859 4.25973 
-48.3946 59.5373 4.92795 -49.0474 59.2612 4.70879 -47.7525 59.8891 3.34004 
-47.0192 59.5717 3.39388 -48.6174 59.8878 3.47797 -49.2482 59.3602 3.74024 
-47.0397 59.8132 2.49648 -46.5316 59.4047 2.89548 -46.2469 59.4714 2.12783 
-47.8855 59.9981 2.30846 -48.5863 59.8864 2.47412 -49.2448 59.514 2.68305 
-46.5745 59.8562 1.44641 -45.9952 59.5474 1.35428 -47.5866 60.107 1.49258 
-48.4717 60.003 1.70569 -49.2455 59.6283 1.66719 -46.0158 59.7925 0.515268 
-45.6249 59.2992 1.02787 -45.3921 59.3264 0.343342 -46.876 60.1359 0.683454 
-49.7265 59.9315 0.113311 -49.5569 59.7571 0.871076 -50.0306 59.2068 0.646465 
-45.5742 59.8279 -0.539877 -45.0323 59.435 -0.510438 -46.4328 60.1624 -0.34401 
-49.7332 60.001 -0.827792 -50.0952 59.3173 -0.277159 -45.0025 59.8162 -1.47649 
-44.6648 59.5102 -1.06424 -44.2855 59.4329 -1.71756 -45.8343 60.1215 -1.3411 
-49.7493 59.9951 -1.83995 -50.2261 59.3082 -1.28319 -44.8081 59.7745 -2.47689 
-44.2976 59.4065 -2.62201 -45.53 60.1338 -2.2904 -49.7477 59.9963 -2.84025 
-50.2483 59.4799 -2.32545 -44.8165 59.5513 -3.14364 -45.1262 59.4795 -3.90629 
-45.5883 59.9846 -3.42289 -49.5999 59.9967 -3.87656 -50.2423 59.4983 -3.31963 
-45.6966 59.7175 -4.3503 -45.3963 59.3832 -4.68237 -46.4149 59.9852 -4.39853 
-47.6189 60.01 -4.71193 -48.8578 60.1103 -4.63254 -49.7501 59.8467 -4.75091 
-50.2591 59.4988 -4.32324 -46.0209 59.4501 -4.99637 -46.9377 59.4766 -5.09288 
-47.7861 59.5495 -5.24213 -48.2177 59.4657 -5.56376 -48.5213 59.7828 -5.31978 
-49.4359 59.7921 -5.43412 -50.2015 59.5171 -5.2693 -48.7757 59.3341 -5.96361 
-49.8325 59.4526 -5.92522 -44.6645 58.6524 8.44216 -44.724 58.2634 8.86164 
-44.4021 58.4763 8.31243 -45.0969 58.3686 8.52642 -44.8169 58.4722 8.16947 
-46.0169 58.7711 6.36141 -45.6187 58.394 6.80737 -45.2607 58.4691 6.12046 
-46.9665 58.893 6.37885 -46.5891 58.4001 6.98938 -47.9338 58.8189 6.23005 
-47.4752 58.5197 6.75217 -48.1965 58.1694 6.51034 -45.828 58.8419 5.47353 
-45.1933 58.4827 5.15776 -46.543 59.0117 5.71257 -47.5866 59.1614 5.5254 
-48.7772 58.3717 6.01033 -48.5984 59.0282 5.51224 -49.2758 58.505 5.361 
-45.8307 58.8503 4.4641 -45.224 58.4539 4.15939 -46.7322 59.1246 4.80406 
-49.4879 58.6415 4.54543 -45.7181 58.8003 3.60478 -45.2414 58.2897 3.14318 
-46.4524 59.1599 3.67822 -49.6793 58.6726 3.85528 -49.722 58.9215 3.07799 
-50.0247 58.2203 3.65429 -45.8772 58.9575 2.74522 -45.3913 58.4806 2.27912 
-49.7672 58.9961 2.13186 -50.0932 58.3193 2.69405 -45.6918 59.0435 1.77709 
-45.207 58.5308 1.30568 -49.833 59.146 1.34522 -50.2407 58.4225 1.58182 
-44.9821 58.7629 0.247754 -50.3595 58.5842 0.445314 -44.5428 59.0179 -0.660205 
-44.619 58.3406 0.0463413 -44.2094 58.3236 -0.515876 -50.4337 58.6216 -0.478755 
-43.8822 58.8537 -1.35325 -43.7286 58.1534 -1.08172 -43.4071 58.4907 -1.76158 
-50.6565 58.6307 -1.14996 -50.7224 58.9065 -1.89486 -51.0256 58.2207 -1.38874 
-43.6539 58.9933 -2.52949 -42.996 58.4396 -2.47267 -50.7332 59.0025 -2.83997 
-51.0888 58.3585 -2.3386 -43.0075 58.7543 -3.43783 -42.6252 58.4615 -3.03109 
-42.4154 58.3672 -3.54827 -43.8307 58.9975 -3.68735 -44.4004 59.2031 -3.37492 
-50.7397 58.9946 -3.8263 -51.0929 58.3622 -3.30006 -42.8208 58.5935 -4.18002 
-43.0984 58.5342 -4.93892 -43.6507 58.8799 -4.55079 -44.6697 59.1112 -4.4802 
-50.756 59.0261 -4.8266 -51.244 58.3439 -4.28302 -43.7099 58.7578 -5.39209 
-43.3262 58.4951 -5.51913 -44.4453 58.8598 -5.44418 -45.4477 58.9828 -5.42089 
-46.4542 58.9462 -5.56174 -47.5633 59.0794 -5.63967 -50.5768 59.036 -5.86276 
-51.2622 58.5321 -5.34832 -43.763 58.3292 -5.98108 -44.957 58.4899 -6.10065 
-45.9498 58.4442 -6.06508 -46.9352 58.4416 -6.05669 -47.8994 58.6541 -6.19351 
-48.6381 58.809 -6.4704 -48.1656 58.4473 -6.54387 -49.6301 59.0021 -6.46213 
-50.4991 58.7683 -6.5799 -51.2487 58.325 -6.46776 -48.7668 58.3394 -6.95149 
-50.0093 58.5249 -7.0711 -50.7534 58.3584 -7.04496 -42.8466 57.8539 9.28666 
-42.651 57.1732 9.83823 -42.0532 57.6081 9.38541 -43.836 57.8873 9.52924 
-43.733 57.3672 9.88282 -44.4484 57.9654 9.37035 -44.6682 57.3865 9.82125 
-45.232 57.4991 9.50226 -40.9624 57.8093 8.36802 -40.5167 57.4409 8.84991 
-40.1995 57.5007 8.15698 -41.9306 57.9157 8.54733 -41.3077 57.542 9.10976 
-42.823 58.0113 8.30353 -43.8025 58.139 8.62252 -45.7111 57.9702 8.11356 
-45.7511 57.4833 8.99479 -46.338 57.356 8.51618 -40.7784 57.798 7.5443 
-40.3084 57.443 7.37601 -41.6432 57.9965 7.49754 -42.6491 57.9942 7.41726 
-43.6537 57.9987 7.45878 -44.6258 58.151 7.7365 -45.6833 58.1237 7.33532 
-46.606 57.5427 8.01689 -46.6513 57.8686 7.52246 -47.1792 57.1207 7.65017 
-40.8105 57.5638 6.88748 -41.2765 57.4153 6.28898 -41.4681 57.7929 6.73315 
-42.5581 57.8605 6.44083 -43.6694 57.9494 6.44648 -44.7286 58.0941 6.73915 
-47.6486 57.6418 6.98754 -48.4448 57.3836 6.56424 -42.0404 57.4784 5.997 
-42.8298 57.5276 5.7569 -43.3287 57.3754 5.26432 -43.6686 57.7656 5.55769 
-44.5591 58.0975 5.72856 -48.9348 57.5392 6.2261 -49.8104 57.9142 5.16084 
-49.5213 57.679 5.8138 -50.0472 57.2113 5.4944 -43.9041 57.513 4.83987 
-44.2062 57.474 4.1057 -44.5595 57.9688 4.71682 -49.8583 58.1515 4.4006 
-50.1791 57.4517 4.60662 -44.7553 57.8873 3.72973 -44.3876 57.4524 3.51945 
-50.2513 57.4553 3.52518 -44.5889 57.4149 3.06995 -44.9957 57.7913 2.32146 
-50.4122 57.4211 2.59636 -44.8086 57.7768 1.58459 -44.6609 57.2621 2.06124 
-44.4718 57.2698 1.43295 -50.6664 57.6395 1.87867 -50.7254 57.9097 1.11002 
-51.0438 57.2038 1.67385 -44.7368 58.0173 0.81218 -44.3735 57.5064 0.446384 
-50.751 57.993 0.144941 -51.1129 57.324 0.728572 -44.0532 57.5201 -0.383564 
-50.8054 58.1425 -0.659715 -51.1216 57.4708 -0.444641 -43.7296 57.5773 -0.909618 
-43.2012 57.7238 -1.58186 -51.2191 57.4866 -1.56408 -42.5283 57.981 -2.64952 
-42.6787 57.4759 -2.02208 -42.163 57.4567 -2.52691 -51.2259 57.4934 -2.5573 
-41.9171 57.8595 -3.49792 -41.6502 57.4773 -3.05766 -41.2665 57.4221 -3.70543 
-51.4034 57.437 -3.42892 -41.7563 57.758 -4.46486 -41.228 57.4626 -4.46053 
-42.3809 58.1989 -4.38281 -51.6776 57.6577 -4.13033 -51.7416 57.9646 -4.87881 
-52.0374 57.2349 -4.35585 -40.9328 57.7609 -5.79541 -40.6379 57.5172 -5.22086 
-40.2501 57.3223 -5.72295 -41.6561 57.4449 -5.0399 -41.0881 57.4505 -5.33331 
-42.1911 57.4313 -5.553 -42.613 57.9637 -5.33165 -51.7523 58.024 -5.83548 
-52.1085 57.3748 -5.29814 -40.8538 57.8573 -6.52815 -40.4304 57.3151 -6.55543 
-41.5477 57.5596 -5.93318 -41.5846 57.8207 -6.59598 -42.8291 57.5405 -6.07815 
-42.0759 57.4175 -6.45941 -43.6364 57.7724 -6.49399 -43.3211 57.3484 -6.69927 
-44.4607 57.9747 -6.57671 -45.456 57.9661 -6.57207 -46.4376 57.9143 -6.52964 
-47.5244 58.0516 -6.58933 -51.7502 57.8949 -6.49337 -52.0607 57.2813 -6.38735 
-40.8874 57.5672 -7.07134 -41.2056 57.3306 -7.51572 -41.4746 57.7851 -7.28324 
-42.169 57.4992 -7.23692 -44.0449 57.4415 -6.97314 -44.963 57.4627 -7.04915 
-45.935 57.4216 -7.01672 -46.9234 57.4273 -7.01854 -47.8973 57.6377 -7.15767 
-48.7934 57.8427 -7.61098 -48.1885 57.4483 -7.54419 -49.743 58.1554 -7.70136 
-50.6274 58.0518 -7.70361 -51.2621 57.7801 -7.45516 -51.7352 57.5187 -7.07154 
-41.6767 57.3073 -7.92027 -48.5979 57.3561 -8.04758 -49.2505 57.504 -8.55223 
-49.5407 57.8204 -8.30298 -50.4195 57.8321 -8.4452 -51.2572 57.3195 -8.49897 
-49.7809 57.3717 -8.9591 -50.743 57.3555 -9.07974 -39.8638 56.778 9.5342 
-39.7648 56.1805 9.83422 -39.339 56.5417 9.30081 -40.7351 57.0415 9.44279 
-40.6654 56.3795 9.9017 -41.714 57.2062 9.61608 -41.8356 56.5027 9.89586 
-42.9141 56.3171 9.97225 -43.7419 56.4785 9.99225 -44.7412 56.4883 10.0047 
-45.8038 56.9534 9.53368 -45.6451 56.5158 9.852 -46.2734 56.4393 9.50513 
-39.6639 57.0325 8.66702 -39.0222 56.4104 8.60198 -46.822 57.0428 8.31598 
-46.5881 56.7118 8.91689 -47.064 56.3132 8.52984 -38.9679 56.8648 7.5418 
-38.5915 56.1996 7.94496 -38.3701 56.5491 7.20819 -39.7736 57.1705 7.47085 
-47.345 56.1601 7.60735 -38.7851 56.8595 6.47642 -38.2626 56.2174 6.36894 
-39.6402 57.035 6.44649 -40.5498 57.1855 6.47492 -47.7076 56.6395 7.10968 
-48.9586 56.8587 6.41149 -48.4201 56.5757 6.72167 -49.0673 56.3956 6.45778 
-38.7538 56.6406 5.79585 -39.0702 56.3926 5.28716 -39.4451 56.8271 5.64644 
-40.4132 56.8602 5.56605 -41.5843 56.9721 5.47307 -42.6815 57.1661 5.3094 
-49.4923 56.562 6.00753 -50.1322 56.4012 5.15382 -39.8625 56.244 5.06419 
-40.8875 56.4645 5.06999 -41.6908 56.4017 4.80011 -42.2591 56.4377 4.43513 
-42.674 56.7905 4.56532 -43.4932 57.1541 4.60739 -50.298 56.64 4.29651 
-42.6492 56.346 3.94731 -43.2706 56.473 3.43121 -43.7162 56.956 3.67197 
-50.3986 56.3376 3.4758 -43.7541 56.4519 2.96258 -44.5677 57.0377 2.54636 
-44.2225 56.4118 2.12731 -50.6782 56.54 2.82083 -50.8079 57.0526 2.31676 
-51.0541 56.3906 2.35965 -44.2993 56.5878 1.27062 -47.8517 56.7365 1.25916 
-47.3216 56.5583 1.14604 -47.5954 56.4902 1.77818 -48.0843 56.2734 1.69657 
-51.277 56.4352 1.529 -44.1812 56.5022 0.410157 -47.7691 56.7954 0.45047 
-47.2076 56.5523 0.203951 -48.197 56.395 0.794345 -51.2833 56.4656 0.510662 
-43.6603 56.9571 -0.610329 -43.6418 56.0618 -0.0831257 -43.2117 56.5056 -0.650594 
-47.6474 56.8557 -0.688658 -47.0482 56.6199 -0.61822 -48.1564 56.4017 -0.245127 
[...]
CELL_DATA 10244
SCALARS scalars float
LOOKUP_TABLE default
1020 1020 1020 1020 1020 1020 1020 1020 1020 
1020 1020 1020 1020 1020 1020 1020 1020 1020 
1020 1020 1020 1020 1020 1020 1020 1020 1020 
1020 1020 1020 1020 1020 1020 1020 1020 1020 
1020 1020 1020 1020 1020 1020 1020 1020 1020 
1020 1020 1020 1020 1020 1020 1020 1020 1020 
1020 1020 1020 1020 1020 1020 1020 1020 1020 
1020 1020 1020 1020 1020 1020 1020 1020 1020 
1020 1020 1020 1020 1020 1020 1020 1020 1020 
1020 1020 1020 1020 1020 1020 1020 1020 1020 
1020 1020 1020 1020 1020 1020 1020 1020 1020 
1020 1020 1020 1020 1020 1020 1020 1020 1020 
1020 1020 1020 1020 1020 1020 1020 1020 1020 
1020 1020 1020 1020 1020 1020 1020 1020 1020 
1020 1020 1020 1020 1020 1020 1020 1020 1020 
1020 1020 1020 1020 1020 1020 1020 1020 1020 
1020 1020 1020 1020 1020 1020 1020 1020 1020 
1020 1020 1020 1020 1020 1020 1020 1020 1020 
1020 1020 1020 1020 1020 1020 1020 1020 1020 
1020 1020 1020 1020 1020 1020 1020 1020 1020 
1020 1020 1020 1020 1020 1020 1020 1020 1020 
1020 1020 1020 1020 1020 1020 1020 1020 1020 
1020 1020 1020 1020 1020 1020 1020 1020 1020 
1020 1020 1020 1020 1020 1020 1020 1020 1020 
1020 1020 1020 1020 1020 1020 1020 1020 1020 
1020 1020 1020 1020 1020 1020 1020 1020 1020 
1020 1020 1020 1020 1020 1020 1020 1020 1020 
1020 1020 1020 1020 1020 1020 1020 1020 1020 
1020 1020 1020 1020 1020 1020 1020 1020 1020 
1020 1020 1020 1020 1020 1020 1020 1020 1020 
1020 1020 1020 1020 1020 1020 1020 1020 1020 
1020 1020 1020 1020 1020 1020 1020 1020 1020 
1020 1020 1020 1020 1020 1020 1020 1020 1020 
1020 1020 1020 1020 1020 1020 1020 1020 1020 
1020 1020 1020 1020 1020 1020 1020 1020 1020 
1020 1020 1020 1020 1020 1020 1020 1020 1020 
1020 1020 1020 1020 1020 1020 1020 1020 1020 
1020 1020 1020 1020 1020 1020 1020 1020 1020 
1020 1020 1020 1020 1020 1020 1020 1020 1020 
1020 1020 1020 1020 1020 1020 1020 1020 1020 
1020 1020 1020 1020 1020 1020 1020 1020 1020 
1020 1020 1020 1020 1020 1020 1020 1020 1020 
1020 1020 1020 1020 1020 1020 1020 1020 1020 
1020 1020 1020 1020 1020 1020 1020 1020 1020 
1020 1020 1020 1020 1020 1020 1020 1020 1020 
1020 1020 1020 1020 1020 1020 1020 1020 1020 
1020 1020 1020 1020 1020 1020 1020 1020 1020 
1020 1020 1020 1020 1020 1020 1020 1020 1020 
1020 1020 1020 1020 1020 1020 1020 1020 1020 
1020 1020 1020 1020 1020 1020 1020 1020 1020 
1020 1020 1020 1020 1020 1020 1020 1020 1020 
1020 1020 1020 1020 1020 1020 1020 1020 1020 
1020 1020 1020 1020 1020 1020 1020 1020 1020 
1020 1020 1020 1020 1020 1020 1020 1020 1020 
1020 1020 1020 1020 1020 1020 1020 1020 1020 
1020 1020 1020 1020 1020 1020 1020 1020 1020 
1020 1020 1020 1020 1020 1020 1020 1020 1020 
1020 1020 1020 1020 1020 1020 1020 1020 1020 
1020 1020 1020 1020 1020 1020 1020 1020 1020 
1020 1020 1020 1020 1020 1020 1020 1020 1020 
1020 1020 1020 1020 1020 1020 1020 1020 1020 
1020 1020 1020 1020 1020 1020 1020 1020 1020 
1020 1020 1020 1020 1020 1020 1020 1020 1020 
1020 1020 1020 1020 1020 1020 1020 1020 1020 
1020 1020 1020 1020 1020 1020 1020 1020 1020 
1020 1020 1020 1020 1020 1020 1020 1020 1020 
1020 1020 1020 1020 1020 1020 1020 1020 1020 
1020 1020 1020 1020 1020 1020 1020 1020 1020 
1020 1020 1020 1020 1020 1020 1020 1020 1020 
1020 1020 1020 1020 1020 1020 1020 1020 1020 
1020 1020 1020 1020 1020 1020 1020 1020 1020 
1020 1020 1020 1020 1020 1020 1020 1020 1020 
1020 1020 1020 1020 1020 1020 1020 1020 1020 
1020 1020 1020 1020 1020 1020 1020 1020 1020 
1020 1020 1020 1020 1020 1020 1020 1020 1020 
1020 1020 1020 1020 1020 1020 1020 1020 1020 
1020 1020 1020 1020 1020 1020 1020 1020 1020 
1020 1020 1020 1020 1020 1020 1020 1020 1020 
1020 1020 1020 1020 1020 1020 1020 1020 1020 
1020 1020 1020 1020 1020 1020 1020 1020 1020 
1020 1020 1020 1020 1020 1020 1020 1020 1020 
1020 1020 1020 1020 1020 1020 1020 1020 1020 
1020 1020 1020 1020 1020 1020 1020 1020 1020 
1020 1020 1020 1020 1020 1020 1020 1020 1020 
1020 1020 1020 1020 1020 1020 1020 1020 1020 
1020 1020 1020 1020 1020 1020 1020 1020 1020 
1020 1020 1020 1020 1020 1020 1020 1020 1020 
1020 1020 1020 1020 1020 1020 1020 1020 1020 
1020 1020 1020 1020 1020 1020 1020 1020 1020 
1020 1020 1020 1020 1020 1020 1020 1020 1020 
1020 1020 1020 1020 1020 1020 1020 1020 1020 
1020 1020 1020 1020 1020 1020 1020 1020 1020 
1020 1020 1020 1020 1020 1020 1020 1020 1020 
1020 1020 1020 1020 1020 1020 1020 1020 1020 
1020 1020 1020 1020 1020 1020 1020 1020 1020 
1020 1020 1020 1020 1020 1020 1020 1020 1020 
1020 1020 1020 1020 1020 1020 1020 1020 1020 
1020 1020 1020 1020 1020 1020 1020 1020 1020 
1020 1020 1020 1020 1020 1020 1020 1020 1020 
1020 1020 1020 1020 1020 1020 1020 1020 1020 
1020 1020 1020 1020 1020 1020 1020 1020 1020 
1020 1020 1020 1020 1020 1020 1020 1020 1020 
1020 1020 1020 1020 1020 1020 1020 1020 1020 
1020 1020 1020 1020 1020 1020 1020 1020 1020 
1020 1020 1020 1020 1020 1020 1020 1020 1020 
1020 1020 1020 1020 1020 1020 1020 1020 1020 
1020 1020 1020 1020 1020 1020 1020 1020 1020 
1020 1020 1020 1020 1020 1020 1020 1020 1020 
1020 1020 1020 1020 1020 1020 1020 1020 1020 
1020 1020 1020 1020 1020 1020 1020 1020 1020 
1020 1020 1020 1020 1020 1020 1020 1020 1020 
1020 1020 1020 1020 1020 1020 1020 1020 1020 
1020 1020 1020 1020 1020 1020 1020 1020 1020 
1020 1020 1020 1020 1020 1020 1020 1020 1020 
1020 1020 1020 1020 1020 1020 1020 1020 1020 
1020 1020 1020 1020 1020 1020 1020 1020 1020 
1020 1020 1020 1020 1020 1020 1020 1020 1020 
1020 1020 1020 1020 1020 1020 1020 1020 1020 
1020 1020 1020 1020 1020 1020 1020 1020 1020 
1020 1020 1020 1020 1020 1020 1020 1020 1020 
1020 1020 1020 1020 1020 1020 1020 1020 1020 
1020 1020 1020 1020 1020 1020 1020 1020 1020 
1020 1020 1020 1020 1020 1020 1020 1020 1020 
1020 1020 1020 1020 1020 1020 1020 1020 1020 
1020 1020 1020 1020 1020 1020 1020 1020 1020 
1020 1020 1020 1020 1020 1020 1020 1020 1020 
1020 1020 1020 1020 1020 1020 1020 1020 1020 
1020 1020 1020 1020 1020 1020 1020 1020 1020 
1020 1020 1020 1020 1020 1020 1020 1020 1020 
1020 1020 1020 1020 1020 1020 1020 1020 1020 
1020 1020 1020 1020 1020 1020 1020 1020 1020 
1020 1020 1020 1020 1020 1020 1020 1020 1020 
1020 1020 1020 1020 1020 1020 1020 1020 1020 
1020 1020 1020 1020 1020 1020 1020 1020 1020 
1020 1020 1020 1020 1020 1020 1020 1020 1020 
1020 1020 1020 1020 1020 1020 1020 1020 1020 
1020 1020 1020 1020 1020 1020 1020 1020 1020 
1020 1020 1020 1020 1020 1020 1020 1020 1020 
1020 1020 1020 1020 1020 1020 1020 1020 1020 
1020 1020 1020 1020 1020 1020 1020 1020 1020 
1020 1020 1020 1020 1020 1020 1020 1020 1020 
1020 1020 1020 1020 1020 1020 1020 1020 1020 
1020 1020 1020 1020 1020 1020 1020 1020 1020 
1020 1020 1020 1020 1020 1020 1020 1020 1020 
1020 1020 1020 1020 1020 1020 1020 1020 1020 
1020 1020 1020 1020 1020 1020 1020 1020 1020 
1020 1020 1020 1020 1020 1020 1020 1020 1020 
1020 1020 1020 1020 1020 1020 1020 1020 1020 
1020 1020 1020 1020 1020 1020 1020 1020 1020 
1020 1020 1020 1020 1020 1020 1020 1020 1020 
1020 1020 1020 1020 1020 1020 1020 1020 1020 
1020 1020 1020 1020 1020 1020 1020 1020 1020 
1020 1020 1020 1020 1020 1020 1020 1020 1020 
1020 1020 1020 1020 1020 1020 1020 1020 1020 
1020 1020 1020 1020 1020 1020 1020 1020 1020 
1020 1020 1020 1020 1020 1020 1020 1020 1020 
1020 1020 1020 1020 1020 1020 1020 1020 1020 
1020 1020 1020 1020 1020 1020 1020 1020 1020 
1020 1020 1020 1020 1020 1020 1020 1020 1020 
1020 1020 1020 1020 1020 1020 1020 1020 1020 
1020 1020 1020 1020 1020 1020 1020 1020 1020 
1020 1020 1020 1020 1020 1020 1020 1020 1020 
1020 1020 1020 1020 1020 1020 1020 1020 1020 
1020 1020 1020 1020 1020 1020 1020 1020 1020 
1020 1020 1020 1020 1020 1020 1020 1020 1020 
1020 1020 1020 1020 1020 1020 1020 1020 1020 
1020 1020 1020 1020 1020 1020 1020 1020 1020 
1020 1020 1020 1020 1020 1020 1020 1020 1020 
1020 1020 1020 1020 1020 1020 1020 1020 1020 
1020 1020 1020 1020 1020 1020 1020 1020 1020 
1020 1020 1020 1020 1020 1020 1020 1020 1020 
1020 1020 1020 1020 1020 1020 1020 1020 1020 
1020 1020 1020 1020 1020 1020 1020 1020 1020 
1020 1020 1020 1020 1020 1020 1020 1020 1020 
1020 1020 1020 1020 1020 1020 1020 1020 1020 
1020 1020 1020 1020 1020 1020 1020 1020 1020 
1020 1020 1020 1020 1020 1020 1020 1020 1020 
1020 1020 1020 1020 1020 1020 1020 1020 1020 
1020 1020 1020 1020 1020 1020 1020 1020 1020 
1020 1020 1020 1020 1020 1020 1020 1020 1020 
1020 1020 1020 1020 1020 1020 1020 1020 1020 
1020 1020 1020 1020 1020 1020 1020 1020 1020 
1020 1020 1020 1020 1020 1020 1020 1020 1020 
1020 1020 1020 1020 1020 1020 1020 1020 1020 
1020 1020 1020 1020 1020 1020 1020 1020 1020 
1020 1020 1020 1020 1020 1020 1020 1020 1020 
1020 1020 1020 1020 1020 1020 1020 1020 1020 
1020 1020 1020 1020 1020 1020 1020 1020 1020 
1020 1020 1020 1020 1020 1020 1020 1020 1020 
1020 1020 1020 1020 1020 1020 1020 1020 1020 
1020 1020 1020 1020 1020 1020 1020 1020 1020 
1020 1020 1020 1020 1020 1020 1020 1020 1020 
1020 1020 1020 1020 1020 1020 1020 1020 1020 
1020 1020 1020 1020 1020 1020 1020 1020 1020 
1020 1020 1020 1020 1020 1020 1020 1020 1020 
1020 1020 1020 1020 1020 1020 1020 1020 1020 
1020 1020 1020 1020 1020 1020 1020 1020 1020 
1020 1020 1020 1020 1020 1020 1020 1020 1020 
1020 1020 1020 1020 1020 1020 1020 1020 1020 
1020 1020 1020 1020 1020 1020 1020 1020 1020 
1020 1020 1020 1020 1020 1020 1020 1020 1020 
1020 1020 1020 1020 1020 1020 1020 1020 1020 
1020 1020 1020 1020 1020 1020 1020 1020 1020 
1020 1020 1020 1020 1020 1020 1020 1020 1020 
1020 1020 1020 1020 1020 1020 1020 1020 1020 
1020 1020 1020 1020 1020 1020 1020 1020 1020 
1020 1020 1020 1020 1020 1020 1020 1020 1020 
1020 1020 1020 1020 1020 1020 1020 1020 1020 
1020 1020 1020 1020 1020 1020 1020 1020 1020 
1020 1020 1020 1020 1020 1020 1020 1020 1020 
1020 1020 1020 1020 1020 1020 1020 1020 1020 
1020 1020 1020 1020 1020 1020 1020 1020 1020 
1020 1020 1020 1020 1020 1020 1020 1020 1020 
1020 1020 1020 1020 1020 1020 1020 1020 1020 
1020 1020 1020 1020 1020 1020 1020 1020 1020 
1020 1020 1020 1020 1020 1020 1020 1020 1020 
1020 1020 1020 1020 1020 1020 1020 1020 1020 
1020 1020 1020 1020 1020 1020 1020 1020 1020 
1020 1020 1020 1020 1020 1020 1020 1020 1020 
1020 1020 1020 1020 1020 1020 1020 1020 1020 
1020 1020 1020 1020 1020 1020 1020 1020 1020 
1020 1020 1020 1020 1020 1020 1020 1020 1020 
1020 1020 1020 1020 1020 1020 1020 1020 1020 
1020 1020 1020 1020 1020 1020 1020 1020 1020 
1020 1020 1020 1020 1020 1020 1020 1020 1020 
1020 1020 1020 1020 1020 1020 1020 1020 1020 
1020 1020 1020 1020 1020 1020 1020 1020 1020 
1020 1020 1020 1020 1020 1020 1020 1020 1020 
1020 1020 1020 1020 1020 1020 1020 1020 1020 
1020 1020 1020 1020 1020 1020 1020 1020 1020 
1020 1020 1020 1020 1020 1020 1020 1020 1020 
1020 1020 1020 1020 1020 1020 1020 1020 1020 
1020 1020 1020 1020 1020 1020 1020 1020 1020 
1020 1020 1020 1020 1020 1020 1020 1020 1020 
1020 1020 1020 1020 1020 1020 1020 1020 1020 
1020 1020 1020 1020 1020 1020 1020 1020 1020 
1020 1020 1020 1020 1020 1020 1020 1020 1020 
1020 1020 1020 1020 1020 1020 1020 1020 1020 
1020 1020 1020 1020 1020 1020 1020 1020 1020 
1020 1020 1020 1020 1020 1020 1020 1020 1020 
1020 1020 1020 1020 1020 1020 1020 1020 1020 
1020 1020 1020 1020 1020 1020 1020 1020 1020 
1020 1020 1020 1020 1020 1020 1020 1020 1020 
1020 1020 1020 1020 1020 1020 1020 1020 1020 
1020 1020 1020 1020 1020 1020 1020 1020 1020 
1020 1020 1020 1020 1020 1020 1020 1020 1020 
1020 1020 1020 1020 1020 1020 1020 1020 1020 
1020 1020 1020 1020 1020 1020 1020 1020 1020 
1020 1020 1020 1020 1020 1020 1020 1020 1020 
1020 1020 1020 1020 1020 1020 1020 1020 1020 
1020 1020 1020 1020 1020 1020 1020 1020 1020 
1020 1020 1020 1020 1020 1020 1020 1020 1020 
1020 1020 1020 1020 1020 1020 1020 1020 1020 
1020 1020 1020 1020 1020 1020 1020 1020 1020 
1020 1020 1020 1020 1020 1020 1020 1020 1020 
1020 1020 1020 1020 1020 1020 1020 1020 1020 
1020 1020 1020 1020 1020 1020 1020 1020 1020 
1020 1020 1020 1020 1020 1020 1020 1020 1020 
1020 1020 1020 1020 1020 1020 1020 1020 1020 
1020 1020 1020 1020 1020 1020 1020 1020 1020 
1020 1020 1020 1020 1020 1020 1020 1020 1020 
1020 1020 1020 1020 1020 1020 1020 1020 1020 
1020 1020 1020 1020 1020 1020 1020 1020 1020 
1020 1020 1020 1020 1020 1020 1020 1020 1020 
1020 1020 1020 1020 1020 1020 1020 1020 1020 
1020 1020 1020 1020 1020 1020 1020 1020 1020 
1020 1020 1020 1020 1020 1020 1020 1020 1020 
1020 1020 1020 1020 1020 1020 1020 1020 1020 
1020 1020 1020 1020 1020 1020 1020 1020 1020 
1020 1020 1020 1020 1020 1020 1020 1020 1020 
1020 1020 1020 1020 1020 1020 1020 1020 1020 
1020 1020 1020 1020 1020 1020 1020 1020 1020 
1020 1020 1020 1020 1020 1020 1020 1020 1020 
1020 1020 1020 1020 1020 1020 1020 1020 1020 
1020 1020 1020 1020 1020 1020 1020 1020 1020 
1020 1020 1020 1020 1020 1020 1020 1020 1020 
1020 1020 1020 1020 1020 1020 1020 1020 1020 
1020 1020 1020 1020 1020 1020 1020 1020 1020 
1020 1020 1020 1020 1020 1020 1020 1020 1020 
1020 1020 1020 1020 1020 1020 1020 1020 1020 
1020 1020 1020 1020 1020 1020 1020 1020 1020 
1020 1020 1020 1020 1020 1020 1020 1020 1020 
1020 1020 1020 1020 1020 1020 1020 1020 1020 
1020 1020 1020 1020 1020 1020 1020 1020 1020 
1020 1020 1020 1020 1020 1020 1020 1020 1020 
1020 1020 1020 1020 1020 1020 1020 1020 1020 
1020 1020 1020 1020 1020 1020 1020 1020 1020 
1020 1020 1020 1020 1020 1020 1020 1020 1020 
1020 1020 1020 1020 1020 1020 1020 1020 1020 
1020 1020 1020 1020 1020 1020 1020 1020 1020 
1020 1020 1020 1020 1020 1020 1020 1020 1020 
1020 1020 1020 1020 1020 1020 1020 1020 1020 
1020 1020 1020 1020 1020 1020 1020 1020 1020 
1020 1020 1020 1020 1020 1020 1020 1020 1020 
1020 1020 1020 1020 1020 1020 1020 1020 1020 
1020 1020 1020 1020 1020 1020 1020 1020 1020 
1020 1020 1020 1020 1020 1020 1020 1020 1020 
1020 1020 1020 1020 1020 1020 1020 1020 1020 
1020 1020 1020 1020 1020 1020 1020 1020 1020 
1020 1020 1020 1020 1020 1020 1020 1020 1020 
1020 1020 1020 1020 1020 1020 1020 1020 1020 
1020 1020 1020 1020 1020 1020 1020 1020 1020 
1020 1020 1020 1020 1020 1020 1020 1020 1020 
1020 1020 1020 1020 1020 1020 1020 1020 1020 
1020 1020 1020 1020 1020 1020 1020 1020 1020 
1020 1020 1020 1020 1020 1020 1020 1020 1020 
1020 1020 1020 1020 1020 1020 1020 1020 1020 
1020 1020 1020 1020 1020 1020 1020 1020 1020 
1020 1020 1020 1020 1020 1020 1020 1020 1020 
1020 1020 1020 1020 1020 1020 1020 1020 1020 
1020 1020 1020 1020 1020 1020 1020 1020 1020 
1020 1020 1020 1020 1020 1020 1020 1020 1020 
1020 1020 1020 1020 1020 1020 1020 1020 1020 
1020 1020 1020 1020 1020 1020 1020 1020 1020 
1020 1020 1020 1020 1020 1020 1020 1020 1020 
1020 1020 1020 1020 1020 1020 1020 1020 1020 
1020 1020 1020 1020 1020 1020 1020 1020 1020 
1020 1020 1020 1020 1020 1020 1020 1020 1020 
1020 1020 1020 1020 1020 1020 1020 1020 1020 
1020 1020 1020 1020 1020 1020 1020 1020 1020 
1020 1020 1020 1020 1020 1020 1020 1020 1020 
1020 1020 1020 1020 1020 1020 1020 1020 1020 
1020 1020 1020 1020 1020 1020 1020 1020 1020 
1020 1020 1020 1020 1020 1020 1020 1020 1020 
1020 1020 1020 1020 1020 1020 1020 1020 1020 
1020 1020 1020 1020 1020 1020 1020 1020 1020 
1020 1020 1020 1020 1020 1020 1020 1020 1020 
1020 1020 1020 1020 1020 1020 1020 1020 1020 
1020 1020 1020 1020 1020 1020 1020 1020 1020 
1020 1020 1020 1020 1020 1020 1020 1020 1020 
1020 1020 1020 1020 1020 1020 1020 1020 1020 
1020 1020 1020 1020 1020 1020 1020 1020 1020 
1020 1020 1020 1020 1020 1020 1020 1020 1020 
1020 1020 1020 1020 1020 1020 1020 1020 1020 
1020 1020 1020 1020 1020 1020 1020 1020 1020 
1020 1020 1020 1020 1020 1020 1020 1020 1020 
1020 1020 1020 1020 1020 1020 1020 1020 1020 
1020 1020 1020 1020 1020 1020 1020 1020 1020 
1020 1020 1020 1020 1020 1020 1020 1020 1020 
1020 1020 1020 1020 1020 1020 1020 1020 1020 
1020 1020 1020 1020 1020 1020 1020 1020 1020 
1020 1020 1020 1020 1020 1020 1020 1020 1020 
1020 1020 1020 1020 1020 1020 1020 1020 1020 
1020 1020 1020 1020 1020 1020 1020 1020 1020 
1020 1020 1020 1020 1020 1020 1020 1020 1020 
1020 1020 1020 1020 1020 1020 1020 1020 1020 
1020 1020 1020 1020 1020 1020 1020 1020 1020 
1020 1020 1020 1020 1020 1020 1020 1020 1020 
1020 1020 1020 1020 1020 1020 1020 1020 1020 
1020 1020 1020 1020 1020 1020 1020 1020 1020 
1020 1020 1020 1020 1020 1020 1020 1020 1020 
1020 1020 1020 1020 1020 1020 1020 1020 1020 
1020 1020 1020 1020 1020 1020 1020 1020 1020 
1020 1020 1020 1020 1020 1020 1020 1020 1020 
1020 1020 1020 1020 1020 1020 1020 1020 1020 
1020 1020 1020 1020 1020 1020 1020 1020 1020 
1020 1020 1020 1020 1020 1020 1020 1020 1020 
1020 1020 1020 1020 1020 1020 1020 1020 1020 
1020 1020 1020 1020 1020 1020 1020 1020 1020 
1020 1020 1020 1020 1020 1020 1020 1020 1020 
1020 1020 1020 1020 1020 1020 1020 1020 1020 
1020 1020 1020 1020 1020 1020 1020 1020 1020 
1020 1020 1020 1020 1020 1020 1020 1020 1020 
1020 1020 1020 1020 1020 1020 1020 1020 1020 
1020 1020 1020 1020 1020 1020 1020 1020 1020 
1020 1020 1020 1020 1020 1020 1020 1020 1020 
1020 1020 1020 1020 1020 1020 1020 1020 1020 
1020 1020 1020 1020 1020 1020 1020 1020 1020 
1020 1020 1020 1020 1020 1020 1020 1020 1020 
1020 1020 1020 1020 1020 1020 1020 1020 1020 
1020 1020 1020 1020 1020 1020 1020 1020 1020 
1020 1020 1020 1020 1020 1020 1020 1020 1020 
1020 1020 1020 1020 1020 1020 1020 1020 1020 
1020 1020 1020 1020 1020 1020 1020 1020 1020 
1020 1020 1020 1020 1020 1020 1020 1020 1020 
1020 1020 1020 1020 1020 1020 1020 1020 1020 
1020 1020 1020 1020 1020 1020 1020 1020 1020 
1020 1020 1020 1020 1020 1020 1020 1020 1020 
1020 1020 1020 1020 1020 1020 1020 1020 1020 
1020 1020 1020 1020 1020 1020 1020 1020 1020 
1020 1020 1020 1020 1020 1020 1020 1020 1020 
1020 1020 1020 1020 1020 1020 1020 1020 1020 
1020 1020 1020 1020 1020 1020 1020 1020 1020 
1020 1020 1020 1020 1020 1020 1020 1020 1020 
1020 1020 1020 1020 1020 1020 1020 1020 1020 
1020 1020 1020 1020 1020 1020 1020 1020 1020 
1020 1020 1020 1020 1020 1020 1020 1020 1020 
1020 1020 1020 1020 1020 1020 1020 1020 1020 
1020 1020 1020 1020 1020 1020 1020 1020 1020 
1020 1020 1020 1020 1020 1020 1020 1020 1020 
1020 1020 1020 1020 1020 1020 1020 1020 1020 
1020 1020 1020 1020 1020 1020 1020 1020 1020 
1020 1020 1020 1020 1020 1020 1020 1020 1020 
1020 1020 1020 1020 1020 1020 1020 1020 1020 
1020 1020 1020 1020 1020 1020 1020 1020 1020 
1020 1020 1020 1020 1020 1020 1020 1020 1020 
1020 1020 1020 1020 1020 1020 1020 1020 1020 
1020 1020 1020 1020 1020 1020 1020 1020 1020 
1020 1020 1020 1020 1020 1020 1020 1020 1020 
1020 1020 1020 1020 1020 1020 1020 1020 1020 
1020 1020 1020 1020 1020 1020 1020 1020 1020 
1020 1020 1020 1020 1020 1020 1020 1020 1020 
1020 1020 1020 1020 1020 1020 1020 1020 1020 
1020 1020 1020 1020 1020 1020 1020 1020 1020 
1020 1020 1020 1020 1020 1020 1020 1020 1020 
1020 1020 1020 1020 1020 1020 1020 1020 1020 
1020 1020 1020 1020 1020 1020 1020 1020 1020 
1020 1020 1020 1020 1020 1020 1020 1020 1020 
1020 1020 1020 1020 1020 1020 1020 1020 1020 
1020 1020 1020 1020 1020 1020 1020 1020 1020 
1020 1020 1020 1020 1020 1020 1020 1020 1020 
1020 1020 1020 1020 1020 1020 1020 1020 1020 
1020 1020 1020 1020 1020 1020 1020 1020 1020 
1020 1020 1020 1020 1020 1020 1020 1020 1020 
1020 1020 1020 1020 1020 1020 1020 1020 1020 
1020 1020 1020 1020 1020 1020 1020 1020 1020 
1020 1020 1020 1020 1020 1020 1020 1020 1020 
1020 1020 1020 1020 1020 1020 1020 1020 1020 
1020 1020 1020 1020 1020 1020 1020 1020 1020 
1020 1020 1020 1020 1020 1020 1020 1020 1020 
1020 1020 1020 1020 1020 1020 1020 1020 1020 
1020 1020 1020 1020 1020 1020 1020 1020 1020 
1020 1020 1020 1020 1020 1020 1020 1020 1020 
1020 1020 1020 1020 1020 1020 1020 1020 1020 
1020 1020 1020 1020 1020 1020 1020 1020 1020 
1020 1020 1020 1020 1020 1020 1020 1020 1020 
1020 1020 1020 1020 1020 1020 1020 1020 1020 
1020 1020 1020 1020 1020 1020 1020 1020 1020 
1020 1020 1020 1020 1020 1020 1020 1020 1020 
1020 1020 1020 1020 1020 1020 1020 1020 1020 
1020 1020 1020 1020 1020 1020 1020 1020 1020 
1020 1020 1020 1020 1020 1020 1020 1020 1020 
1020 1020 1020 1020 1020 1020 1020 1020 1020 