# vtk DataFile Version 4.2
vtk output
ASCII
DATASET POLYDATA
POINTS 2456 float
31.1133 40.7816 -29.7282 31.462 40.3723 -29.0507 31.6906 40.4269 -29.5506 
30.9651 40.4763 -29.3021 31.3084 40.9683 -30.6183 31.9127 40.3341 -30.5155 
30.4583 40.628 -29.8156 30.1873 40.9459 -30.5305 29.0116 40.9296 -30.6839 
29.6166 40.5542 -29.9872 28.0719 40.8491 -30.8174 28.6109 40.5403 -30.0983 
27.8436 40.4839 -30.355 32.0543 40.9194 -31.4379 32.3018 40.409 -31.2413 
32.6464 40.5072 -31.8131 31.2214 41.0984 -31.6732 30.3394 41.0794 -31.544 
29.2853 41.0651 -31.5298 28.4181 41.0572 -31.4159 27.2244 40.378 -30.8831 
27.5973 40.8082 -31.6391 26.8494 40.3682 -31.4564 32.4319 40.8088 -32.2415 
32.7266 40.2947 -32.683 31.6608 40.9257 -32.3477 30.6293 40.9019 -32.4085 
29.585 40.8842 -32.4153 28.4883 40.8645 -32.3082 27.692 40.6118 -32.3706 
27.0893 40.4558 -31.9703 32.0967 40.533 -32.9396 31.0925 40.516 -33.0348 
30.0367 40.4841 -33.0667 29.0166 40.4853 -33.0581 28.1716 40.4508 -32.8865 
31.0531 39.9928 -28.6451 31.2724 39.5754 -28.0715 31.8168 39.5083 -28.6726 
30.1478 39.8364 -28.758 30.4419 39.3726 -27.9768 29.7856 39.3705 -28.4429 
31.8708 39.6909 -29.6407 30.3058 40.2501 -29.348 29.2829 39.4489 -28.8807 
29.229 40.0297 -29.3969 28.0181 40.0402 -29.6773 28.3052 39.3981 -29.1303 
27.2973 39.7779 -29.7221 27.5219 39.4888 -29.2746 27.0401 39.2463 -29.4907 
31.8593 39.3699 -30.3608 27.4109 40.1177 -30.2335 26.7652 39.4647 -30.2195 
32.4681 39.9873 -31.6559 32.0007 39.45 -31.3053 26.4174 39.9611 -31.8538 
26.4557 39.7904 -31.0585 25.9216 39.459 -31.4277 32.292 39.3823 -32.0631 
32.7051 39.8086 -32.3399 27.1983 40.1665 -32.7634 26.266 39.84 -32.68 
25.7557 39.5038 -32.2385 32.2962 40.0816 -33.5908 32.7489 39.5039 -33.5499 
31.3364 40.1667 -33.6921 30.2825 40.1343 -33.7016 29.2839 40.1191 -33.7145 
28.1751 40.1075 -33.5694 27.3158 39.9973 -33.5572 26.6202 39.8178 -33.5714 
25.8241 39.4954 -33.1843 32.4241 39.7461 -34.3152 32.7523 39.2123 -34.7563 
31.47 39.9065 -34.5458 30.3249 39.9885 -34.5403 29.4785 39.9758 -34.4106 
28.5929 39.8556 -34.6037 27.4878 39.7903 -34.3032 26.7249 39.5602 -34.3475 
26.1243 39.442 -33.9429 32.0947 39.4927 -35.0365 31.2565 39.6129 -35.2487 
30.8276 39.5214 -35.5964 30.4899 39.7947 -35.2962 29.465 39.7947 -35.2962 
28.7113 39.5593 -35.4178 27.9729 39.4703 -35.1129 27.192 39.4129 -34.8431 
30.2597 39.3597 -35.9773 29.2001 39.4345 -35.9042 31.3027 39.0201 -27.6452 
31.3331 38.2479 -27.2063 31.8943 38.3082 -27.7493 30.4352 38.9711 -27.4397 
30.4294 38.2196 -26.9642 29.7996 38.5718 -27.4744 32.2648 38.7867 -28.197 
32.4269 38.4579 -28.1911 32.5404 38.4888 -28.447 29.197 38.9588 -28.5803 
29.3154 38.527 -28.0207 28.7468 38.3675 -28.4731 32.3217 38.6538 -28.7174 
31.9038 38.6225 -29.584 28.3871 38.6209 -28.842 27.3278 38.6051 -29.1175 
26.6413 38.5093 -29.5502 31.8238 38.6552 -30.7004 26.115 38.4958 -29.9801 
25.918 39.0736 -30.6796 25.2571 38.7625 -30.7768 25.4972 38.505 -30.2578 
25.0412 38.2764 -30.5023 31.8042 38.336 -31.3614 25.3507 39.0119 -31.6162 
24.8911 38.3637 -31.227 32.3701 39.0774 -32.827 31.8012 38.4866 -32.2126 
25.2638 39.0365 -32.7523 24.7533 38.3812 -32.2475 32.4698 38.8292 -33.6089 
31.8876 38.4855 -33.2111 25.4284 39.0174 -33.8147 24.7645 38.5343 -33.3154 
32.2099 38.4217 -33.9532 32.7188 38.7393 -34.3757 26.199 39.1666 -34.7418 
25.2919 38.8485 -34.7126 24.7929 38.4112 -34.4364 32.4428 38.9532 -35.4452 
32.6627 38.521 -35.2501 31.5286 39.1298 -35.6702 28.3158 39.1903 -35.9096 
27.1677 39.1178 -35.5423 26.1299 39.0188 -35.6926 25.4185 38.8628 -35.5369 
24.9487 38.4981 -35.3576 32.1117 38.4131 -35.8169 31.1857 38.6174 -36.1716 
30.2584 38.8845 -36.6509 30.8045 38.1772 -36.5625 29.2024 39.137 -36.5967 
28.1603 39.0126 -36.7394 27.4796 38.9858 -36.389 26.5536 38.886 -36.5527 
25.592 38.7769 -36.4121 24.9761 38.2554 -36.3381 30.1988 38.5164 -37.0533 
29.7595 38.2329 -37.5581 29.5387 38.8397 -37.2958 28.5717 38.8909 -37.4381 
27.4676 38.8134 -37.3074 26.6546 38.6083 -37.3943 25.9109 38.5283 -37.1549 
25.2569 38.3223 -37.0515 29.0878 38.5485 -37.8384 28.2028 38.4324 -38.073 
27.1983 38.4632 -37.9102 30.2989 37.7846 -26.4211 30.3417 37.3579 -25.985 
30.6873 37.3458 -26.5064 29.8945 37.3241 -26.327 31.1018 37.5594 -27.0933 
31.5119 37.6872 -27.3765 29.2641 38.0546 -27.5369 29.4678 37.7466 -27.139 
28.895 37.3359 -27.6134 32.0282 38.1619 -28.591 31.4247 37.5238 -27.9678 
31.2809 37.7099 -28.8258 31.0404 37.2936 -28.6451 28.1622 37.9035 -28.598 
28.3542 37.5244 -28.1862 27.7069 37.2916 -28.4964 31.4898 37.8483 -29.5145 
31.0909 37.541 -29.3589 27.36 37.5838 -28.844 26.0874 37.8485 -29.5701 
26.4053 37.4961 -29.174 25.6787 37.2733 -29.4375 31.3616 37.365 -29.7983 
31.71 37.6304 -30.4188 25.4307 37.8067 -29.9386 24.8778 37.4409 -30.4283 
31.6993 37.3571 -31.5207 24.5876 37.4729 -31.3946 31.3545 37.5666 -32.1628 
31.2594 37.9153 -32.8135 30.9819 37.2613 -32.4939 24.3274 37.6939 -32.1236 
24.2787 37.9775 -32.8725 23.9993 37.2541 -32.3483 31.4845 37.9742 -33.8179 
30.7385 37.2462 -33.331 24.2932 38.0194 -33.8107 23.9224 37.3786 -33.269 
32.2541 38.18 -34.6413 31.6203 37.7388 -34.7649 30.9983 37.3472 -34.4239 
24.3761 37.8524 -34.6148 23.8802 37.3458 -34.2078 32.1334 37.9494 -35.4227 
31.6335 37.5308 -35.4096 31.2617 37.2881 -35.1145 24.6258 37.8344 -35.4649 
24.1567 37.4344 -34.973 31.5418 37.7847 -35.9956 30.8777 37.1931 -36.3772 
24.6154 37.4994 -36.3853 30.3434 37.7549 -37.0396 29.8695 37.2529 -37.7599 
26.3456 38.2285 -37.941 25.3963 38.0288 -37.7259 24.7765 37.6488 -37.2881 
29.1835 37.874 -38.1595 28.4597 37.8857 -38.5314 28.9834 37.3995 -38.6597 
27.4493 38.04 -38.4794 26.5021 37.9074 -38.603 25.6434 37.8251 -38.4816 
24.8495 37.5097 -38.2563 28.2196 37.2957 -38.9077 27.0853 37.4281 -38.9403 
26.0441 37.3995 -38.9724 25.0832 37.2404 -38.8992 30.2286 36.9264 -25.5569 
30.3108 36.5196 -25.3297 30.5359 36.7477 -25.6849 30.0482 36.6173 -25.6413 
30.9452 36.3239 -26.3977 29.671 36.3795 -26.213 31.3029 37.2188 -27.45 
31.0907 36.8737 -27.5358 29.2736 36.8286 -26.956 28.8102 36.1721 -27.396 
31.4052 36.3321 -27.9553 31.5724 36.3484 -28.6338 31.1957 36.8384 -28.5013 
28.2067 36.4346 -27.944 27.124 36.8395 -28.6065 27.4246 36.4891 -28.2484 
26.6785 36.2753 -28.47 31.2439 37.0668 -29.2379 31.5765 36.5246 -29.546 
26.4691 36.7005 -28.8157 25.1932 37.0488 -29.6464 25.5979 36.6066 -29.0633 
24.9497 36.3558 -29.458 31.7262 36.4814 -30.66 24.6864 36.3332 -30.5233 
31.7347 36.233 -31.7202 24.3597 36.5658 -31.1949 24.2132 37.1004 -31.6911 
24.0054 36.4052 -31.6561 31.311 36.8001 -32.0709 30.8595 36.7331 -32.6044 
23.7969 36.4754 -32.4911 30.5534 36.4336 -33.119 30.2979 36.7705 -33.6314 
30.0845 36.2388 -33.8052 23.6169 36.457 -33.3996 30.1941 36.5557 -34.0222 
30.5062 36.8127 -34.2519 23.4169 36.6749 -34.1181 23.5016 36.9331 -34.8595 
23.0166 36.2393 -34.3175 31.2755 37.2002 -35.6836 30.7978 36.6119 -35.4797 
24.0655 37.1659 -35.7472 23.3067 36.8396 -35.6788 22.7895 36.34 -35.2319 
30.7063 36.2485 -36.7084 24.1697 37.1112 -36.852 23.4383 36.8713 -36.536 
22.7545 36.5347 -36.2765 30.3786 36.7862 -37.145 30.0865 36.2649 -37.8528 
24.2909 37.1697 -37.7663 23.6245 36.8223 -37.657 22.8285 36.5369 -37.2415 
29.4589 37.1246 -38.4269 29.6909 36.4033 -38.4577 24.2819 37.0014 -38.4805 
23.7804 36.5133 -38.4556 23.0672 36.1818 -38.0487 29.0525 36.575 -38.9091 
28.2302 36.3692 -39.0748 27.3709 36.5324 -39.0709 26.3163 36.5509 -39.1025 
25.2913 36.5039 -39.1202 24.4139 36.4581 -38.9192 30.3259 36.0782 -25.7356 
31.3191 35.8587 -26.5646 31 35.4787 -26.1303 31.5368 35.5596 -26.773 
30.3153 35.5 -25.7754 29.4619 35.4227 -25.9389 29.2271 36.0598 -26.7 
28.8522 35.4389 -26.7318 31.3787 36.0468 -27.1564 31.8805 35.3379 -27.6571 
28.6035 35.4303 -27.3602 31.6815 35.4908 -28.6659 28.3318 35.6652 -27.8039 
27.6151 35.5988 -27.9408 25.9355 36.0072 -28.5016 26.5631 35.6023 -28.0405 
25.2487 35.9448 -28.646 25.3318 35.2856 -27.9981 24.7783 35.499 -28.6504 
31.3712 35.6023 -29.1685 31.3352 35.931 -29.8351 31.0618 35.2773 -29.4977 
24.7199 35.4579 -29.6614 31.4606 35.8624 -30.6025 30.9989 35.2552 -30.4015 
24.6915 35.2671 -30.5124 31.4016 35.5163 -31.0043 31.7404 35.5827 -31.4651 
24.2555 35.5291 -31.0227 23.7597 35.501 -31.6738 31.2564 36.1061 -32.4514 
31.6972 35.381 -32.3868 23.5806 35.5741 -32.4699 31.0734 35.5902 -33.027 
30.4214 35.9026 -33.458 30.718 35.1537 -33.5136 23.1844 35.3594 -33.0117 
23.2304 36.0598 -33.7 22.8001 35.463 -33.6718 30.1902 36.1455 -34.6814 
30.1606 35.5934 -33.8545 29.9234 35.4796 -34.3893 22.57 35.6266 -34.4339 
30.3708 35.8331 -35.6217 29.9304 35.2484 -35.337 22.3315 35.6856 -35.1101 
22.2518 35.9642 -35.8988 21.9651 35.2414 -35.3553 30.2524 35.311 -36.1399 
30.6285 35.7097 -36.3884 22.2214 36.0811 -36.8685 21.8485 35.3732 -36.3496 
30.4434 36.0322 -37.4142 30.5834 35.5254 -37.254 22.3645 36.0633 -37.6107 
21.9124 35.4284 -37.2935 30.3101 35.6033 -37.8399 29.8721 35.321 -38.3431 
23.7497 35.7697 -38.6124 23.1171 35.2076 -38.26 22.3744 35.4395 -37.9102 
29.2359 35.5023 -38.9587 28.3718 35.5082 -39.0901 27.3632 35.5002 -39.0637 
26.3152 35.4981 -39.0751 25.2963 35.4667 -39.1018 24.4362 35.5015 -38.9747 
29.3391 34.8295 -24.7694 29.3675 34.3523 -24.2765 29.7678 34.5453 -24.6265 
29.0042 34.345 -24.4446 30.1672 34.9723 -25.4488 30.2705 34.1976 -25.0437 
30.6081 34.4015 -25.5553 29.4 35.0572 -25.3715 28.7993 34.4865 -25.2272 
31.5598 34.9828 -26.7237 31.0272 34.5634 -26.1389 28.1751 34.8748 -26.9175 
28.3673 34.4642 -26.0525 27.7792 34.2939 -26.4734 32.3991 34.7533 -27.5374 
32.0671 34.4622 -27.2065 32.5124 34.4813 -27.5552 31.5186 34.4698 -26.6913 
28.1016 35.1811 -27.5826 27.4346 34.5084 -26.891 27.243 34.9617 -27.4556 
26.0463 34.9536 -27.5208 26.555 34.476 -27.0249 25.3323 34.8443 -27.4935 
25.3616 34.2989 -27.0086 24.75 34.5062 -27.4983 32.3686 34.6106 -27.7866 
31.8939 34.3388 -28.2748 24.3345 34.95 -28.8564 24.4444 34.7746 -28.0758 
23.9832 34.2505 -28.3049 31.3273 34.7846 -29.0067 30.9562 34.5127 -29.6442 
24.4524 34.8299 -29.6215 23.9099 34.3155 -29.2048 30.6338 34.2848 -30.2898 
[...]
CELL_DATA 4908
SCALARS scalars float
LOOKUP_TABLE default
2033 2033 2033 2033 2033 2033 2033 2033 2033 
2033 2033 2033 2033 2033 2033 2033 2033 2033 
2033 2033 2033 2033 2033 2033 2033 2033 2033 
2033 2033 2033 2033 2033 2033 2033 2033 2033 
2033 2033 2033 2033 2033 2033 2033 2033 2033 
2033 2033 2033 2033 2033 2033 2033 2033 2033 
2033 2033 2033 2033 2033 2033 2033 2033 2033 
2033 2033 2033 2033 2033 2033 2033 2033 2033 
2033 2033 2033 2033 2033 2033 2033 2033 2033 
2033 2033 2033 2033 2033 2033 2033 2033 2033 
2033 2033 2033 2033 2033 2033 2033 2033 2033 
2033 2033 2033 2033 2033 2033 2033 2033 2033 
2033 2033 2033 2033 2033 2033 2033 2033 2033 
2033 2033 2033 2033 2033 2033 2033 2033 2033 
2033 2033 2033 2033 2033 2033 2033 2033 2033 
2033 2033 2033 2033 2033 2033 2033 2033 2033 
2033 2033 2033 2033 2033 2033 2033 2033 2033 
2033 2033 2033 2033 2033 2033 2033 2033 2033 
2033 2033 2033 2033 2033 2033 2033 2033 2033 
2033 2033 2033 2033 2033 2033 2033 2033 2033 
2033 2033 2033 2033 2033 2033 2033 2033 2033 
2033 2033 2033 2033 2033 2033 2033 2033 2033 
2033 2033 2033 2033 2033 2033 2033 2033 2033 
2033 2033 2033 2033 2033 2033 2033 2033 2033 
2033 2033 2033 2033 2033 2033 2033 2033 2033 
2033 2033 2033 2033 2033 2033 2033 2033 2033 
2033 2033 2033 2033 2033 2033 2033 2033 2033 
2033 2033 2033 2033 2033 2033 2033 2033 2033 
2033 2033 2033 2033 2033 2033 2033 2033 2033 
2033 2033 2033 2033 2033 2033 2033 2033 2033 
2033 2033 2033 2033 2033 2033 2033 2033 2033 
2033 2033 2033 2033 2033 2033 2033 2033 2033 
2033 2033 2033 2033 2033 2033 2033 2033 2033 
2033 2033 2033 2033 2033 2033 2033 2033 2033 
2033 2033 2033 2033 2033 2033 2033 2033 2033 
2033 2033 2033 2033 2033 2033 2033 2033 2033 
2033 2033 2033 2033 2033 2033 2033 2033 2033 
2033 2033 2033 2033 2033 2033 2033 2033 2033 
2033 2033 2033 2033 2033 2033 2033 2033 2033 
2033 2033 2033 2033 2033 2033 2033 2033 2033 
2033 2033 2033 2033 2033 2033 2033 2033 2033 
2033 2033 2033 2033 2033 2033 2033 2033 2033 
2033 2033 2033 2033 2033 2033 2033 2033 2033 
2033 2033 2033 2033 2033 2033 2033 2033 2033 
2033 2033 2033 2033 2033 2033 2033 2033 2033 
2033 2033 2033 2033 2033 2033 2033 2033 2033 
2033 2033 2033 2033 2033 2033 2033 2033 2033 
2033 2033 2033 2033 2033 2033 2033 2033 2033 
2033 2033 2033 2033 2033 2033 2033 2033 2033 
2033 2033 2033 2033 2033 2033 2033 2033 2033 
2033 2033 2033 2033 2033 2033 2033 2033 2033 
2033 2033 2033 2033 2033 2033 2033 2033 2033 
2033 2033 2033 2033 2033 2033 2033 2033 2033 
2033 2033 2033 2033 2033 2033 2033 2033 2033 
2033 2033 2033 2033 2033 2033 2033 2033 2033 
2033 2033 2033 2033 2033 2033 2033 2033 2033 
2033 2033 2033 2033 2033 2033 2033 2033 2033 
2033 2033 2033 2033 2033 2033 2033 2033 2033 
2033 2033 2033 2033 2033 2033 2033 2033 2033 
2033 2033 2033 2033 2033 2033 2033 2033 2033 
2033 2033 2033 2033 2033 2033 2033 2033 2033 
2033 2033 2033 2033 2033 2033 2033 2033 2033 
2033 2033 2033 2033 2033 2033 2033 2033 2033 
2033 2033 2033 2033 2033 2033 2033 2033 2033 
2033 2033 2033 2033 2033 2033 2033 2033 2033 
2033 2033 2033 2033 2033 2033 2033 2033 2033 
2033 2033 2033 2033 2033 2033 2033 2033 2033 
2033 2033 2033 2033 2033 2033 2033 2033 2033 
2033 2033 2033 2033 2033 2033 2033 2033 2033 
2033 2033 2033 2033 2033 2033 2033 2033 2033 
2033 2033 2033 2033 2033 2033 2033 2033 2033 
2033 2033 2033 2033 2033 2033 2033 2033 2033 
2033 2033 2033 2033 2033 2033 2033 2033 2033 
2033 2033 2033 2033 2033 2033 2033 2033 2033 
2033 2033 2033 2033 2033 2033 2033 2033 2033 
2033 2033 2033 2033 2033 2033 2033 2033 2033 
2033 2033 2033 2033 2033 2033 2033 2033 2033 
2033 2033 2033 2033 2033 2033 2033 2033 2033 
2033 2033 2033 2033 2033 2033 2033 2033 2033 
2033 2033 2033 2033 2033 2033 2033 2033 2033 
2033 2033 2033 2033 2033 2033 2033 2033 2033 
2033 2033 2033 2033 2033 2033 2033 2033 2033 
2033 2033 2033 2033 2033 2033 2033 2033 2033 
2033 2033 2033 2033 2033 2033 2033 2033 2033 
2033 2033 2033 2033 2033 2033 2033 2033 2033 
2033 2033 2033 2033 2033 2033 2033 2033 2033 
2033 2033 2033 2033 2033 2033 2033 2033 2033 
2033 2033 2033 2033 2033 2033 2033 2033 2033 
2033 2033 2033 2033 2033 2033 2033 2033 2033 
2033 2033 2033 2033 2033 2033 2033 2033 2033 
2033 2033 2033 2033 2033 2033 2033 2033 2033 
2033 2033 2033 2033 2033 2033 2033 2033 2033 
2033 2033 2033 2033 2033 2033 2033 2033 2033 
2033 2033 2033 2033 2033 2033 2033 2033 2033 
2033 2033 2033 2033 2033 2033 2033 2033 2033 
2033 2033 2033 2033 2033 2033 2033 2033 2033 
2033 2033 2033 2033 2033 2033 2033 2033 2033 
2033 2033 2033 2033 2033 2033 2033 2033 2033 
2033 2033 2033 2033 2033 2033 2033 2033 2033 
2033 2033 2033 2033 2033 2033 2033 2033 2033 
2033 2033 2033 2033 2033 2033 2033 2033 2033 
2033 2033 2033 2033 2033 2033 2033 2033 2033 
2033 2033 2033 2033 2033 2033 2033 2033 2033 
2033 2033 2033 2033 2033 2033 2033 2033 2033 
2033 2033 2033 2033 2033 2033 2033 2033 2033 
2033 2033 2033 2033 2033 2033 2033 2033 2033 
2033 2033 2033 2033 2033 2033 2033 2033 2033 
2033 2033 2033 2033 2033 2033 2033 2033 2033 
2033 2033 2033 2033 2033 2033 2033 2033 2033 
2033 2033 2033 2033 2033 2033 2033 2033 2033 
2033 2033 2033 2033 2033 2033 2033 2033 2033 
2033 2033 2033 2033 2033 2033 2033 2033 2033 
2033 2033 2033 2033 2033 2033 2033 2033 2033 
2033 2033 2033 2033 2033 2033 2033 2033 2033 
2033 2033 2033 2033 2033 2033 2033 2033 2033 
2033 2033 2033 2033 2033 2033 2033 2033 2033 
2033 2033 2033 2033 2033 2033 2033 2033 2033 
2033 2033 2033 2033 2033 2033 2033 2033 2033 
2033 2033 2033 2033 2033 2033 2033 2033 2033 
2033 2033 2033 2033 2033 2033 2033 2033 2033 
2033 2033 2033 2033 2033 2033 2033 2033 2033 
2033 2033 2033 2033 2033 2033 2033 2033 2033 
2033 2033 2033 2033 2033 2033 2033 2033 2033 
2033 2033 2033 2033 2033 2033 2033 2033 2033 
2033 2033 2033 2033 2033 2033 2033 2033 2033 
2033 2033 2033 2033 2033 2033 2033 2033 2033 
2033 2033 2033 2033 2033 2033 2033 2033 2033 
2033 2033 2033 2033 2033 2033 2033 2033 2033 
2033 2033 2033 2033 2033 2033 2033 2033 2033 
2033 2033 2033 2033 2033 2033 2033 2033 2033 
2033 2033 2033 2033 2033 2033 2033 2033 2033 
2033 2033 2033 2033 2033 2033 2033 2033 2033 
2033 2033 2033 2033 2033 2033 2033 2033 2033 
2033 2033 2033 2033 2033 2033 2033 2033 2033 
2033 2033 2033 2033 2033 2033 2033 2033 2033 
2033 2033 2033 2033 2033 2033 2033 2033 2033 
2033 2033 2033 2033 2033 2033 2033 2033 2033 
2033 2033 2033 2033 2033 2033 2033 2033 2033 
2033 2033 2033 2033 2033 2033 2033 2033 2033 
2033 2033 2033 2033 2033 2033 2033 2033 2033 
2033 2033 2033 2033 2033 2033 2033 2033 2033 
2033 2033 2033 2033 2033 2033 2033 2033 2033 
2033 2033 2033 2033 2033 2033 2033 2033 2033 
2033 2033 2033 2033 2033 2033 2033 2033 2033 
2033 2033 2033 2033 2033 2033 2033 2033 2033 
2033 2033 2033 2033 2033 2033 2033 2033 2033 
2033 2033 2033 2033 2033 2033 2033 2033 2033 
2033 2033 2033 2033 2033 2033 2033 2033 2033 
2033 2033 2033 2033 2033 2033 2033 2033 2033 
2033 2033 2033 2033 2033 2033 2033 2033 2033 
2033 2033 2033 2033 2033 2033 2033 2033 2033 
2033 2033 2033 2033 2033 2033 2033 2033 2033 
2033 2033 2033 2033 2033 2033 2033 2033 2033 
2033 2033 2033 2033 2033 2033 2033 2033 2033 
2033 2033 2033 2033 2033 2033 2033 2033 2033 
2033 2033 2033 2033 2033 2033 2033 2033 2033 
2033 2033 2033 2033 2033 2033 2033 2033 2033 
2033 2033 2033 2033 2033 2033 2033 2033 2033 
2033 2033 2033 2033 2033 2033 2033 2033 2033 
2033 2033 2033 2033 2033 2033 2033 2033 2033 
2033 2033 2033 2033 2033 2033 2033 2033 2033 
2033 2033 2033 2033 2033 2033 2033 2033 2033 
2033 2033 2033 2033 2033 2033 2033 2033 2033 
2033 2033 2033 2033 2033 2033 2033 2033 2033 
2033 2033 2033 2033 2033 2033 2033 2033 2033 
2033 2033 2033 2033 2033 2033 2033 2033 2033 
2033 2033 2033 2033 2033 2033 2033 2033 2033 
2033 2033 2033 2033 2033 2033 2033 2033 2033 
2033 2033 2033 2033 2033 2033 2033 2033 2033 
2033 2033 2033 2033 2033 2033 2033 2033 2033 
2033 2033 2033 2033 2033 2033 2033 2033 2033 
2033 2033 2033 2033 2033 2033 2033 2033 2033 
2033 2033 2033 2033 2033 2033 2033 2033 2033 
2033 2033 2033 2033 2033 2033 2033 2033 2033 
2033 2033 2033 2033 2033 2033 2033 2033 2033 
2033 2033 2033 2033 2033 2033 2033 2033 2033 
2033 2033 2033 2033 2033 2033 2033 2033 2033 
2033 2033 2033 2033 2033 2033 2033 2033 2033 
2033 2033 2033 2033 2033 2033 2033 2033 2033 
2033 2033 2033 2033 2033 2033 2033 2033 2033 
2033 2033 2033 2033 2033 2033 2033 2033 2033 
2033 2033 2033 2033 2033 2033 2033 2033 2033 
2033 2033 2033 2033 2033 2033 2033 2033 2033 
2033 2033 2033 2033 2033 2033 2033 2033 2033 
2033 2033 2033 2033 2033 2033 2033 2033 2033 
2033 2033 2033 2033 2033 2033 2033 2033 2033 
2033 2033 2033 2033 2033 2033 2033 2033 2033 
2033 2033 2033 2033 2033 2033 2033 2033 2033 
2033 2033 2033 2033 2033 2033 2033 2033 2033 
2033 2033 2033 2033 2033 2033 2033 2033 2033 
2033 2033 2033 2033 2033 2033 2033 2033 2033 
2033 2033 2033 2033 2033 2033 2033 2033 2033 
2033 2033 2033 2033 2033 2033 2033 2033 2033 
2033 2033 2033 2033 2033 2033 2033 2033 2033 
2033 2033 2033 2033 2033 2033 2033 2033 2033 
2033 2033 2033 2033 2033 2033 2033 2033 2033 
2033 2033 2033 2033 2033 2033 2033 2033 2033 
2033 2033 2033 2033 2033 2033 2033 2033 2033 
2033 2033 2033 2033 2033 2033 2033 2033 2033 
2033 2033 2033 2033 2033 2033 2033 2033 2033 
2033 2033 2033 2033 2033 2033 2033 2033 2033 
2033 2033 2033 2033 2033 2033 2033 2033 2033 
2033 2033 2033 2033 2033 2033 2033 2033 2033 
2033 2033 2033 2033 2033 2033 2033 2033 2033 
2033 2033 2033 2033 2033 2033 2033 2033 2033 
2033 2033 2033 2033 2033 2033 2033 2033 2033 
2033 2033 2033 2033 2033 2033 2033 2033 2033 
2033 2033 2033 2033 2033 2033 2033 2033 2033 
2033 2033 2033 2033 2033 2033 2033 2033 2033 
2033 2033 2033 2033 2033 2033 2033 2033 2033 
2033 2033 2033 2033 2033 2033 2033 2033 2033 
2033 2033 2033 2033 2033 2033 2033 2033 2033 
2033 2033 2033 2033 2033 2033 2033 2033 2033 
2033 2033 2033 2033 2033 2033 2033 2033 2033 
2033 2033 2033 2033 2033 2033 2033 2033 2033 
2033 2033 2033 2033 2033 2033 2033 2033 2033 
2033 2033 2033 2033 2033 2033 2033 2033 2033 
2033 2033 2033 2033 2033 2033 2033 2033 2033 
2033 2033 2033 2033 2033 2033 2033 2033 2033 
2033 2033 2033 2033 2033 2033 2033 2033 2033 
2033 2033 2033 2033 2033 2033 2033 2033 2033 
2033 2033 2033 2033 2033 2033 2033 2033 2033 
2033 2033 2033 2033 2033 2033 2033 2033 2033 
2033 2033 2033 2033 2033 2033 2033 2033 2033 
2033 2033 2033 2033 2033 2033 2033 2033 2033 
2033 2033 2033 2033 2033 2033 2033 2033 2033 
2033 2033 2033 2033 2033 2033 2033 2033 2033 
2033 2033 2033 2033 2033 2033 2033 2033 2033 
2033 2033 2033 2033 2033 2033 2033 2033 2033 
2033 2033 2033 2033 2033 2033 2033 2033 2033 
2033 2033 2033 2033 2033 2033 2033 2033 2033 
2033 2033 2033 2033 2033 2033 2033 2033 2033 
2033 2033 2033 2033 2033 2033 2033 2033 2033 
2033 2033 2033 2033 2033 2033 2033 2033 2033 
2033 2033 2033 2033 2033 2033 2033 2033 2033 
2033 2033 2033 2033 2033 2033 2033 2033 2033 
2033 2033 2033 2033 2033 2033 2033 2033 2033 
2033 2033 2033 2033 2033 2033 2033 2033 2033 
2033 2033 2033 2033 2033 2033 2033 2033 2033 
2033 2033 2033 2033 2033 2033 2033 2033 2033 
2033 2033 2033 2033 2033 2033 2033 2033 2033 
2033 2033 2033 2033 2033 2033 2033 2033 2033 
2033 2033 2033 2033 2033 2033 2033 2033 2033 
2033 2033 2033 2033 2033 2033 2033 2033 2033 
2033 2033 2033 2033 2033 2033 2033 2033 2033 
2033 2033 2033 2033 2033 2033 2033 2033 2033 
2033 2033 2033 2033 2033 2033 2033 2033 2033 
2033 2033 2033 2033 2033 2033 2033 2033 2033 
2033 2033 2033 2033 2033 2033 2033 2033 2033 
2033 2033 2033 2033 2033 2033 2033 2033 2033 
2033 2033 2033 2033 2033 2033 2033 2033 2033 
2033 2033 2033 2033 2033 2033 2033 2033 2033 
2033 2033 2033 2033 2033 2033 2033 2033 2033 
2033 2033 2033 2033 2033 2033 2033 2033 2033 
2033 2033 2033 2033 2033 2033 2033 2033 2033 
2033 2033 2033 2033 2033 2033 2033 2033 2033 
2033 2033 2033 2033 2033 2033 2033 2033 2033 
2033 2033 2033 2033 2033 2033 2033 2033 2033 
2033 2033 2033 2033 2033 2033 2033 2033 2033 
2033 2033 2033 2033 2033 2033 2033 2033 2033 
2033 2033 2033 2033 2033 2033 2033 2033 2033 
2033 2033 2033 2033 2033 2033 2033 2033 2033 
2033 2033 2033 2033 2033 2033 2033 2033 2033 
2033 2033 2033 2033 2033 2033 2033 2033 2033 
2033 2033 2033 2033 2033 2033 2033 2033 2033 
2033 2033 2033 2033 2033 2033 2033 2033 2033 
2033 2033 2033 2033 2033 2033 2033 2033 2033 
2033 2033 2033 2033 2033 2033 2033 2033 2033 
2033 2033 2033 2033 2033 2033 2033 2033 2033 
2033 2033 2033 2033 2033 2033 2033 2033 2033 
2033 2033 2033 2033 2033 2033 2033 2033 2033 
2033 2033 2033 2033 2033 2033 2033 2033 2033 
2033 2033 2033 2033 2033 2033 2033 2033 2033 
2033 2033 2033 2033 2033 2033 2033 2033 2033 
2033 2033 2033 2033 2033 2033 2033 2033 2033 
2033 2033 2033 2033 2033 2033 2033 2033 2033 
2033 2033 2033 2033 2033 2033 2033 2033 2033 
2033 2033 2033 2033 2033 2033 2033 2033 2033 
2033 2033 2033 2033 2033 2033 2033 2033 2033 
2033 2033 2033 2033 2033 2033 2033 2033 2033 
2033 2033 2033 2033 2033 2033 2033 2033 2033 
2033 2033 2033 2033 2033 2033 2033 2033 2033 
2033 2033 2033 2033 2033 2033 2033 2033 2033 
2033 2033 2033 2033 2033 2033 2033 2033 2033 
2033 2033 2033 2033 2033 2033 2033 2033 2033 
2033 2033 2033 2033 2033 2033 2033 2033 2033 
2033 2033 2033 2033 2033 2033 2033 2033 2033 
2033 2033 2033 2033 2033 2033 2033 2033 2033 
2033 2033 2033 2033 2033 2033 2033 2033 2033 
2033 2033 2033 2033 2033 2033 2033 2033 2033 
2033 2033 2033 2033 2033 2033 2033 2033 2033 
2033 2033 2033 2033 2033 2033 2033 2033 2033 
2033 2033 2033 2033 2033 2033 2033 2033 2033 
2033 2033 2033 2033 2033 2033 2033 2033 2033 
2033 2033 2033 2033 2033 2033 2033 2033 2033 
2033 2033 2033 2033 2033 2033 2033 2033 2033 
2033 2033 2033 2033 2033 2033 2033 2033 2033 
2033 2033 2033 2033 2033 2033 2033 2033 2033 
2033 2033 2033 2033 2033 2033 2033 2033 2033 
2033 2033 2033 2033 2033 2033 2033 2033 2033 
2033 2033 2033 2033 2033 2033 2033 2033 2033 
2033 2033 2033 2033 2033 2033 2033 2033 2033 
2033 2033 2033 2033 2033 2033 2033 2033 2033 
2033 2033 2033 2033 2033 2033 2033 2033 2033 
2033 2033 2033 2033 2033 2033 2033 2033 2033 
2033 2033 2033 2033 2033 2033 2033 2033 2033 
2033 2033 2033 2033 2033 2033 2033 2033 2033 
2033 2033 2033 2033 2033 2033 2033 2033 2033 
2033 2033 2033 2033 2033 2033 2033 2033 2033 
2033 2033 2033 2033 2033 2033 2033 2033 2033 
2033 2033 2033 2033 2033 2033 2033 2033 2033 
2033 2033 2033 2033 2033 2033 2033 2033 2033 
2033 2033 2033 2033 2033 2033 2033 2033 2033 
2033 2033 2033 2033 2033 2033 2033 2033 2033 
2033 2033 2033 2033 2033 2033 2033 2033 2033 
2033 2033 2033 2033 2033 2033 2033 2033 2033 
2033 2033 2033 2033 2033 2033 2033 2033 2033 
2033 2033 2033 2033 2033 2033 2033 2033 2033 
2033 2033 2033 2033 2033 2033 2033 2033 2033 
2033 2033 2033 2033 2033 2033 2033 2033 2033 
2033 2033 2033 2033 2033 2033 2033 2033 2033 
2033 2033 2033 2033 2033 2033 2033 2033 2033 
2033 2033 2033 2033 2033 2033 2033 2033 2033 
2033 2033 2033 2033 2033 2033 2033 2033 2033 
2033 2033 2033 2033 2033 2033 2033 2033 2033 
2033 2033 2033 2033 2033 2033 2033 2033 2033 
2033 2033 2033 2033 2033 2033 2033 2033 2033 
2033 2033 2033 2033 2033 2033 2033 2033 2033 
2033 2033 2033 2033 2033 2033 2033 2033 2033 
2033 2033 2033 2033 2033 2033 2033 2033 2033 
2033 2033 2033 2033 2033 2033 2033 2033 2033 
2033 2033 2033 2033 2033 2033 2033 2033 2033 
2033 2033 2033 2033 2033 2033 2033 2033 2033 
2033 2033 2033 2033 2033 2033 2033 2033 2033 
2033 2033 2033 2033 2033 2033 2033 2033 2033 
2033 2033 2033 2033 2033 2033 2033 2033 2033 
2033 2033 2033 2033 2033 2033 2033 2033 2033 
2033 2033 2033 2033 2033 2033 2033 2033 2033 
2033 2033 2033 2033 2033 2033 2033 2033 2033 
2033 2033 2033 2033 2033 2033 2033 2033 2033 
2033 2033 2033 2033 2033 2033 2033 2033 2033 
2033 2033 2033 2033 2033 2033 2033 2033 2033 
2033 2033 2033 2033 2033 2033 2033 2033 2033 
2033 2033 2033 2033 2033 2033 2033 2033 2033 
2033 2033 2033 2033 2033 2033 2033 2033 2033 
2033 2033 2033 2033 2033 2033 2033 2033 2033 
2033 2033 2033 2033 2033 2033 2033 2033 2033 
2033 2033 2033 2033 2033 2033 2033 2033 2033 
2033 2033 2033 2033 2033 2033 2033 2033 2033 
2033 2033 2033 2033 2033 2033 2033 2033 2033 
2033 2033 2033 2033 2033 2033 2033 2033 2033 
2033 2033 2033 2033 2033 2033 2033 2033 2033 
2033 2033 2033 2033 2033 2033 2033 2033 2033 
2033 2033 2033 2033 2033 2033 2033 2033 2033 
2033 2033 2033 2033 2033 2033 2033 2033 2033 
2033 2033 2033 2033 2033 2033 2033 2033 2033 
2033 2033 2033 2033 2033 2033 2033 2033 2033 
2033 2033 2033 2033 2033 2033 2033 2033 2033 
2033 2033 2033 2033 2033 2033 2033 2033 2033 
2033 2033 2033 2033 2033 2033 2033 2033 2033 
2033 2033 2033 2033 2033 2033 2033 2033 2033 
2033 2033 2033 2033 2033 2033 2033 2033 2033 
2033 2033 2033 2033 2033 2033 2033 2033 2033 
2033 2033 2033 2033 2033 2033 2033 2033 2033 
2033 2033 2033 2033 2033 2033 2033 2033 2033 
2033 2033 2033 2033 2033 2033 2033 2033 2033 
2033 2033 2033 2033 2033 2033 2033 2033 2033 
2033 2033 2033 2033 2033 2033 2033 2033 2033 
2033 2033 2033 2033 2033 2033 2033 2033 2033 
2033 2033 2033 2033 2033 2033 2033 2033 2033 
2033 2033 2033 2033 2033 2033 2033 2033 2033 
2033 2033 2033 2033 2033 2033 2033 2033 2033 
2033 2033 2033 2033 2033 2033 2033 2033 2033 
2033 2033 2033 2033 2033 2033 2033 2033 2033 
2033 2033 2033 2033 2033 2033 2033 2033 2033 
2033 2033 2033 2033 2033 2033 2033 2033 2033 
2033 2033 2033 2033 2033 2033 2033 2033 2033 
2033 2033 2033 2033 2033 2033 2033 2033 2033 
2033 2033 2033 2033 2033 2033 2033 2033 2033 
2033 2033 2033 2033 2033 2033 2033 2033 2033 
2033 2033 2033 2033 2033 2033 2033 2033 2033 
2033 2033 2033 2033 2033 2033 2033 2033 2033 
2033 2033 2033 2033 2033 2033 2033 2033 2033 
2033 2033 2033 2033 2033 2033 2033 2033 2033 
2033 2033 2033 2033 2033 2033 2033 2033 2033 
2033 2033 2033 2033 2033 2033 2033 2033 2033 
2033 2033 2033 2033 2033 2033 2033 2033 2033 
2033 2033 2033 2033 2033 2033 2033 2033 2033 
2033 2033 2033 2033 2033 2033 2033 2033 2033 
2033 2033 2033 2033 2033 2033 2033 2033 2033 
2033 2033 2033 2033 2033 2033 2033 2033 2033 
2033 2033 2033 2033 2033 2033 2033 2033 2033 
2033 2033 2033 2033 2033 2033 2033 2033 2033 
2033 2033 2033 2033 2033 2033 2033 2033 2033 
2033 2033 2033 2033 2033 2033 2033 2033 2033 
2033 2033 2033 2033 2033 2033 2033 2033 2033 
2033 2033 2033 2033 2033 2033 2033 2033 2033 
2033 2033 2033 2033 2033 2033 2033 2033 2033 
2033 2033 2033 2033 2033 2033 2033 2033 2033 
2033 2033 2033 2033 2033 2033 2033 2033 2033 
2033 2033 2033 2033 2033 2033 2033 2033 2033 
2033 2033 2033 2033 2033 2033 2033 2033 2033 
2033 2033 2033 2033 2033 2033 2033 2033 2033 
2033 2033 2033 2033 2033 2033 2033 2033 2033 
2033 2033 2033 2033 2033 2033 2033 2033 2033 
2033 2033 2033 2033 2033 2033 2033 2033 2033 
2033 2033 2033 2033 2033 2033 2033 2033 2033 
2033 2033 2033 2033 2033 2033 2033 2033 2033 
2033 2033 2033 2033 2033 2033 2033 2033 2033 
2033 2033 2033 2033 2033 2033 2033 2033 2033 
2033 2033 2033 2033 2033 2033 2033 2033 2033 
2033 2033 2033 2033 2033 2033 2033 2033 2033 
2033 2033 2033 2033 2033 2033 2033 2033 2033 
2033 2033 2033 2033 2033 2033 2033 2033 2033 
2033 2033 2033 2033 2033 2033 2033 2033 2033 
2033 2033 2033 2033 2033 2033 2033 2033 2033 
2033 2033 2033 2033 2033 2033 2033 2033 2033 
2033 2033 2033 2033 2033 2033 2033 2033 2033 
2033 2033 2033 2033 2033 2033 2033 2033 2033 
2033 2033 2033 2033 2033 2033 2033 2033 2033 
2033 2033 2033 2033 2033 2033 2033 2033 2033 
2033 2033 2033 2033 2033 2033 2033 2033 2033 
2033 2033 2033 2033 2033 2033 2033 2033 2033 
2033 2033 2033 2033 2033 2033 2033 2033 2033 
2033 2033 2033 2033 2033 2033 2033 2033 2033 
2033 2033 2033 2033 2033 2033 2033 2033 2033 
2033 2033 2033 2033 2033 2033 2033 2033 2033 
2033 2033 2033 2033 2033 2033 2033 2033 2033 
2033 2033 2033 2033 2033 2033 2033 2033 2033 
2033 2033 2033 2033 2033 2033 2033 2033 2033 
2033 2033 2033 2033 2033 2033 2033 2033 2033 
2033 2033 2033 2033 2033 2033 2033 2033 2033 
2033 2033 2033 2033 2033 2033 2033 2033 2033 