# vtk DataFile Version 4.2
vtk output
ASCII
DATASET POLYDATA
POINTS 17200 float
-59.0995 25.2809 26.8627 -59.388 25.867 26.4734 -59.8711 25.3649 26.6055 
-58.2499 25.2888 26.7842 -58.5761 25.9509 26.5299 -57.8802 25.6029 26.4691 
-59.9666 24.5643 26.87 -60.4899 24.9383 26.4625 -60.8034 24.1718 26.5334 
-59.2866 24.5293 27.0464 -58.6081 24.455 26.871 -57.8199 24.8173 26.5209 
-60.3102 23.3779 26.9236 -61.0216 23.4219 26.6171 -59.3345 23.6322 26.9276 
-58.6277 23.5755 26.6103 -58.1062 24.0589 26.4621 -60.9552 22.5349 26.8896 
-61.3436 23.004 26.5363 -61.7213 22.2978 26.5022 -60.1205 22.3013 27.0704 
-59.4573 22.48 26.9156 -58.791 22.7484 26.551 -61.3436 21.3401 26.9604 
-62.0369 21.3711 26.6649 -60.297 21.4667 27.0863 -59.4229 21.4565 26.9441 
-58.7811 21.7269 26.5494 -62.1053 20.7162 26.7869 -62.4434 21.0432 26.4053 
-62.6293 20.3396 26.2004 -61.499 20.4884 26.8981 -60.5819 20.5956 26.9447 
-59.5947 20.6006 26.8693 -58.7395 20.5604 26.3494 -62.0043 20.0372 26.5336 
-61.048 19.9796 26.5666 -60.0197 19.9728 26.551 -59.2443 19.9612 26.3775 
-62.3711 16.1807 26.7876 -62.4828 16.7727 26.4836 -62.8862 16.3579 26.6381 
-61.9707 16.5949 26.4609 -62.9679 15.6085 26.8011 -63.3729 16.1 26.3987 
-63.5841 15.6199 26.2991 -62.302 15.3875 26.8732 -61.7987 15.7896 26.5404 
-63.3791 14.9332 26.4266 -63.0992 14.3469 26.6172 -62.4063 14.4233 26.8562 
-61.7597 14.8282 26.5402 -62.9959 13.5718 26.8675 -63.5025 13.9274 26.4728 
-63.7814 13.1874 26.5384 -62.1454 13.3359 27.0472 -61.4942 14.0581 26.5699 
-61.253 13.357 26.8525 -60.8732 13.6101 26.4235 -63.2168 12.5191 26.9104 
-63.8899 12.2337 26.548 -62.3318 12.5308 27.0632 -61.3029 12.4694 27.056 
-60.3539 13.1314 26.5837 -60.2841 12.5661 26.8814 -59.5338 12.1966 26.7096 
-59.6017 12.9215 26.5086 -59.0143 12.648 26.4063 -63.2386 11.5164 26.9011 
-63.8668 11.2187 26.3986 -62.3703 11.5298 27.0449 -61.3483 11.4613 27.0394 
-60.2901 11.5455 26.8768 -59.6073 11.5218 26.5356 -59.1128 12.0424 26.4076 
-58.2693 11.8274 26.497 -58.6794 11.2884 26.4385 -58.186 11.3143 26.6735 
-57.9358 11.6286 26.4524 -63.2145 10.5349 26.9072 -63.6887 10.3582 26.5221 
-62.3475 10.5232 27.044 -61.3311 10.4525 27.0276 -60.2482 10.3787 26.8697 
-59.7392 10.7782 26.4732 -58.3824 10.3621 26.779 -58.9735 10.3717 26.5632 
-57.7781 10.7849 26.5187 -63.191 9.60906 26.8321 -63.6758 9.46908 26.1918 
-62.3227 9.51502 27.0458 -61.2875 9.46235 27.0497 -60.2443 9.42492 27.0291 
-59.4773 10.1796 26.5504 -59.1321 9.54202 26.9159 -58.2571 9.29372 26.8861 
-57.7732 9.72021 26.545 -63.1991 8.92298 26.6086 -62.9007 8.14018 26.5634 
-62.3619 8.514 26.9501 -61.2884 8.44005 27.0629 -60.2651 8.42121 27.045 
-59.2603 8.42343 27.0404 -58.3788 8.4329 26.9227 -57.7546 8.68672 26.5508 
-62.1719 7.49217 26.8567 -62.7165 7.52666 26.5392 -61.4404 7.59789 27.0556 
-60.5424 7.36395 26.9468 -59.5009 7.53363 26.8998 -58.5697 7.5683 26.8441 
-57.8217 7.74095 26.5401 -62.4266 6.93712 26.4391 -61.9013 6.34658 26.3667 
-61.401 6.75812 26.821 -60.6803 6.57203 26.6237 -59.9369 6.82655 26.5498 
-58.9806 6.93432 26.5197 -58.1527 7.08393 26.4625 -61.1494 6.16087 26.2037 
-59.2069 28.2192 25.8294 -59.522 28.7762 25.5224 -59.9606 28.413 25.6342 
-58.7525 28.3583 25.2879 -60.0001 27.5801 25.8554 -60.4122 28.1175 25.3799 
-60.6511 27.3771 25.3913 -59.1073 27.4062 26.0557 -58.1909 28.0661 25.5261 
-58.1431 27.5425 25.9624 -57.2515 27.2934 25.8206 -57.4776 27.8188 25.5916 
-56.9705 27.5091 25.3463 -60.4503 26.4973 25.8914 -60.9836 26.5024 25.4612 
-59.4263 26.5393 26.1644 -58.2129 26.4759 26.1837 -57.359 26.5187 25.9271 
-56.8519 26.7774 25.4018 -61.0796 25.6744 25.826 -61.3951 26.0256 25.355 
-61.592 25.3935 25.365 -60.2946 25.6323 26.2055 -57.3543 25.4008 26.0527 
-56.7294 25.768 25.3797 -61.1584 24.7621 26.0214 -61.6934 24.462 25.3821 
-57.4118 24.2105 26.0367 -56.7436 24.7206 25.5547 -61.4993 23.5211 26.1285 
-61.9689 23.5246 25.449 -58.0543 23.2792 26.1925 -57.3009 23.3182 25.8386 
-56.7646 23.7158 25.5343 -62.1458 22.6561 25.8927 -62.3868 23.0206 25.3481 
-62.6138 22.3888 25.3994 -58.2911 22.3119 26.2089 -57.6227 22.398 25.8337 
-56.7836 22.5886 25.3043 -62.3496 21.7705 26.1346 -62.7315 21.3792 25.5915 
-58.1699 21.3525 26.0327 -57.6823 21.3927 25.4255 -57.2487 21.9136 25.329 
-62.9709 20.4467 25.4178 -58.2517 20.543 25.9304 -57.9785 20.522 25.3908 
-62.3485 19.3054 26.0893 -63.0046 19.5451 25.7247 -61.3325 19.367 26.1701 
-60.4491 19.4789 26.191 -59.5908 19.3296 25.963 -58.7363 19.4578 25.5067 
-58.2655 19.9534 25.5107 -63.0069 18.5493 25.8391 -63.4096 19.0651 25.3703 
-63.6393 18.3752 25.362 -62.1539 18.3409 26.0138 -61.3247 18.4968 26.0005 
-60.3111 18.6305 25.8876 -59.6019 18.586 25.5748 -59.1783 18.904 25.3723 
-63.2967 17.6844 25.8297 -63.84 17.3483 25.4102 -62.345 17.3877 26.1231 
-61.2808 17.4733 26.0171 -60.4067 17.496 25.8468 -59.7608 17.6014 25.4041 
-63.1799 16.8299 26.1087 -63.8515 16.1923 25.7112 -61.287 16.3692 26.1437 
-60.4264 16.4416 25.8552 -59.944 16.6157 25.5084 -63.9776 15.3205 25.7782 
-61.1509 15.1842 26.138 -60.4422 15.4103 25.8063 -59.9511 15.7076 25.3291 
-64.0751 14.5986 25.8845 -64.4207 15.0361 25.3387 -64.6124 14.4127 25.3414 
-63.5844 14.3545 26.2747 -61.039 14.2464 26.19 -60.2334 14.3788 25.8409 
-59.7814 14.7953 25.2539 -58.1622 14.147 25.7898 -58.581 14.6971 25.2367 
-58.8903 14.2989 25.5736 -57.7838 14.6877 25.344 -64.1702 13.7746 26.0275 
-64.7026 13.5019 25.3821 -60.2018 13.5888 26.1899 -59.4626 14.2324 25.5451 
-59.0998 13.5811 26.0156 -58.1011 13.3337 26.0374 -57.2095 14.1475 25.4162 
-57.4151 13.4536 25.855 -56.8068 13.4925 25.41 -64.373 12.7622 26.0574 
-64.7016 12.506 25.3721 -58.3859 12.283 26.2134 -57.4408 12.5324 25.9068 
-56.8223 12.7478 25.526 -64.3592 11.8189 25.9661 -64.6275 11.4544 25.164 
-59.1942 11.4108 26.2524 -57.4215 11.419 26.0098 -56.8136 11.7681 25.4908 
-64.2758 11.0589 25.7091 -64.0223 10.3245 25.7618 -59.2512 10.6939 26.2897 
-57.2969 10.2367 25.9981 -56.8187 10.7447 25.4606 -63.9667 9.31076 25.3155 
-57.2947 9.20119 25.9874 -56.8288 9.73466 25.4335 -63.4296 8.59721 26.2069 
-63.7176 8.5229 25.6086 -57.2774 8.18439 25.9954 -56.8116 8.73403 25.4322 
-54.2244 8.43562 25.6813 -54.1371 8.74147 25.3415 -54.5235 8.32345 25.4937 
-53.7876 8.24207 25.308 -63.2265 7.70883 26.0445 -63.6677 7.44185 25.1543 
-57.4381 7.16246 26.0019 -56.7683 7.71501 25.469 -54.1773 8.03986 25.4552 
-63.0947 6.89805 25.7154 -62.5054 6.47799 25.9772 -62.8555 6.45386 25.5647 
-60.3639 6.35712 26.2111 -59.5356 6.43429 26.0445 -58.3606 6.52561 26.0133 
-57.4859 6.44285 25.7639 -56.8316 6.76942 25.4987 -54.077 6.5643 25.906 
-54.0253 6.81935 25.4671 -54.5286 6.21734 25.416 -53.5401 6.31183 25.8709 
-53.5231 6.84701 25.6456 -53.0603 6.63681 25.3798 -62.2208 6.00224 25.5323 
-61.0699 5.80403 25.3519 -60.2976 6.07052 25.6587 -59.2111 5.95395 25.4294 
-58.0071 5.9432 25.5185 -57.1739 6.11194 25.4432 -54.2565 5.80249 25.856 
-54.6377 5.2339 25.3047 -53.829 5.58247 25.4271 -53.2564 6.22843 25.3025 
-54.258 4.98172 25.4619 -59.23 31.2998 24.7564 -59.1206 31.9904 24.3187 
-59.7411 31.3468 24.5351 -58.8051 31.554 24.3989 -59.2652 30.3064 24.8955 
-60.0323 30.4176 24.642 -58.7451 30.8167 24.5838 -60.0576 29.6789 24.8508 
-60.442 30.0683 24.3575 -60.6255 29.4094 24.3729 -59.2405 29.2125 25.1999 
-58.4513 30.0462 24.6372 -58.4141 29.3951 24.8589 -57.9464 29.6802 24.2579 
-60.1786 28.8577 25.1242 -60.8345 28.3244 24.5773 -58.4293 28.7428 24.9918 
-57.807 28.8369 24.3398 -61.0311 27.2572 24.792 -58.1218 27.5298 24.957 
-58.7475 27.2756 24.5262 -58.4516 28.107 24.4063 -57.3292 27.9253 24.776 
-57.6444 27.5484 24.4028 -56.7894 27.4529 24.5497 -61.2719 26.6022 24.9466 
-61.3761 27.0685 24.3537 -61.6283 26.3447 24.5362 -58.3465 26.7019 24.7277 
-58.6177 26.5245 24.4775 -57.9207 26.6501 24.309 -56.6062 26.5219 24.4231 
-61.8019 25.4173 24.5094 -58.3979 25.9903 24.2846 -56.3141 25.8035 24.6089 
-56.2449 25.1432 24.9608 -56.01 25.4772 24.274 -61.9807 24.4041 24.6137 
-56.2463 24.2096 25.0576 -55.8982 24.7463 24.3506 -62.2616 23.6088 24.9362 
-62.3615 24.05 24.3424 -62.6364 23.3398 24.5552 -56.2622 23.2105 25.0354 
-55.7711 23.7531 24.3612 -62.8171 22.4367 24.5397 -56.2506 22.5652 24.9181 
-55.8384 22.7802 24.5352 -62.9942 21.4022 24.6359 -57.3734 21.3236 24.9149 
-56.8615 21.6846 24.7684 -56.2158 22.1202 24.6078 -63.2261 20.5454 24.8477 
-63.3455 21.0455 24.3326 -63.5898 20.3915 24.3838 -57.6448 20.5159 24.5964 
-57.1704 21.0475 24.4323 -63.3321 19.7956 25.0976 -63.8322 19.3129 24.5826 
-58.2446 19.4358 24.9987 -57.9667 19.5658 24.5634 -64.0473 18.2439 24.7897 
-59.276 18.1681 25.0609 -58.7688 18.4656 24.6108 -58.2749 18.9446 24.4926 
-64.2746 17.5225 24.8465 -64.422 18.0488 24.3687 -64.6189 17.4018 24.3483 
-59.3985 17.3804 24.8247 -59.0441 17.5592 24.3316 -64.3299 16.7129 24.9961 
-64.6757 16.491 24.3581 -59.6421 16.4835 24.8146 -59.2838 16.8634 24.272 
-64.3699 15.7766 25.094 -64.7121 15.4162 24.5298 -59.623 15.4798 24.5764 
-57.3849 15.1761 24.8186 -57.5314 15.7099 24.2026 -57.7989 15.5043 24.5055 
-56.9879 15.464 24.2519 -64.8227 14.4464 24.4979 -59.195 14.9557 24.7133 
-59.1973 14.5352 25.2027 -58.3121 15.1775 24.6654 -57.247 14.6368 25.1943 
-56.7672 14.7582 24.5184 -64.8225 13.4532 24.5138 -56.3138 13.1188 24.9464 
-56.3101 13.9749 24.5283 -55.8246 13.4777 24.3636 -64.7958 12.4578 24.4814 
-56.1693 12.1831 24.996 -55.7581 12.804 24.4999 -54.1453 12.1539 24.8079 
-54.2206 12.8856 24.2191 -54.9123 12.3261 24.5797 -53.6344 12.6061 24.37 
-64.784 11.6139 24.3263 -60.229 11.3209 24.7544 -60.704 11.3115 24.5271 
-60.3198 11.8434 24.5597 -59.9753 11.6549 24.4926 -56.183 11.1931 25.098 
-55.5189 12.2346 24.5958 -55.182 11.5906 24.9199 -54.1108 11.3251 25.0664 
-53.3575 12.1493 24.62 -53.3571 11.4623 24.8541 -52.862 11.7133 24.2453 
-64.3927 10.5852 25.2083 -64.6743 10.5815 24.4953 -60.2913 10.4495 24.8122 
-60.8106 10.1085 24.627 -59.8152 10.7904 24.5644 -56.2256 10.2117 25.0716 
-55.3444 10.4893 24.9742 -54.4583 10.6778 25.0364 -53.5755 10.5638 24.9027 
-52.8422 10.6238 24.2457 -64.3071 9.84236 24.9547 -64.6116 9.40611 24.1654 
[...]
CELL_DATA 34616
SCALARS scalars float
LOOKUP_TABLE default
2022 2022 2022 2022 2022 2022 2022 2022 2022 
2022 2022 2022 2022 2022 2022 2022 2022 2022 
2022 2022 2022 2022 2022 2022 2022 2022 2022 
2022 2022 2022 2022 2022 2022 2022 2022 2022 
2022 2022 2022 2022 2022 2022 2022 2022 2022 
2022 2022 2022 2022 2022 2022 2022 2022 2022 
2022 2022 2022 2022 2022 2022 2022 2022 2022 
2022 2022 2022 2022 2022 2022 2022 2022 2022 
2022 2022 2022 2022 2022 2022 2022 2022 2022 
2022 2022 2022 2022 2022 2022 2022 2022 2022 
2022 2022 2022 2022 2022 2022 2022 2022 2022 
2022 2022 2022 2022 2022 2022 2022 2022 2022 
2022 2022 2022 2022 2022 2022 2022 2022 2022 
2022 2022 2022 2022 2022 2022 2022 2022 2022 
2022 2022 2022 2022 2022 2022 2022 2022 2022 
2022 2022 2022 2022 2022 2022 2022 2022 2022 
2022 2022 2022 2022 2022 2022 2022 2022 2022 
2022 2022 2022 2022 2022 2022 2022 2022 2022 
2022 2022 2022 2022 2022 2022 2022 2022 2022 
2022 2022 2022 2022 2022 2022 2022 2022 2022 
2022 2022 2022 2022 2022 2022 2022 2022 2022 
2022 2022 2022 2022 2022 2022 2022 2022 2022 
2022 2022 2022 2022 2022 2022 2022 2022 2022 
2022 2022 2022 2022 2022 2022 2022 2022 2022 
2022 2022 2022 2022 2022 2022 2022 2022 2022 
2022 2022 2022 2022 2022 2022 2022 2022 2022 
2022 2022 2022 2022 2022 2022 2022 2022 2022 
2022 2022 2022 2022 2022 2022 2022 2022 2022 
2022 2022 2022 2022 2022 2022 2022 2022 2022 
2022 2022 2022 2022 2022 2022 2022 2022 2022 
2022 2022 2022 2022 2022 2022 2022 2022 2022 
2022 2022 2022 2022 2022 2022 2022 2022 2022 
2022 2022 2022 2022 2022 2022 2022 2022 2022 
2022 2022 2022 2022 2022 2022 2022 2022 2022 
2022 2022 2022 2022 2022 2022 2022 2022 2022 
2022 2022 2022 2022 2022 2022 2022 2022 2022 
2022 2022 2022 2022 2022 2022 2022 2022 2022 
2022 2022 2022 2022 2022 2022 2022 2022 2022 
2022 2022 2022 2022 2022 2022 2022 2022 2022 
2022 2022 2022 2022 2022 2022 2022 2022 2022 
2022 2022 2022 2022 2022 2022 2022 2022 2022 
2022 2022 2022 2022 2022 2022 2022 2022 2022 
2022 2022 2022 2022 2022 2022 2022 2022 2022 
2022 2022 2022 2022 2022 2022 2022 2022 2022 
2022 2022 2022 2022 2022 2022 2022 2022 2022 
2022 2022 2022 2022 2022 2022 2022 2022 2022 
2022 2022 2022 2022 2022 2022 2022 2022 2022 
2022 2022 2022 2022 2022 2022 2022 2022 2022 
2022 2022 2022 2022 2022 2022 2022 2022 2022 
2022 2022 2022 2022 2022 2022 2022 2022 2022 
2022 2022 2022 2022 2022 2022 2022 2022 2022 
2022 2022 2022 2022 2022 2022 2022 2022 2022 
2022 2022 2022 2022 2022 2022 2022 2022 2022 
2022 2022 2022 2022 2022 2022 2022 2022 2022 
2022 2022 2022 2022 2022 2022 2022 2022 2022 
2022 2022 2022 2022 2022 2022 2022 2022 2022 
2022 2022 2022 2022 2022 2022 2022 2022 2022 
2022 2022 2022 2022 2022 2022 2022 2022 2022 
2022 2022 2022 2022 2022 2022 2022 2022 2022 
2022 2022 2022 2022 2022 2022 2022 2022 2022 
2022 2022 2022 2022 2022 2022 2022 2022 2022 
2022 2022 2022 2022 2022 2022 2022 2022 2022 
2022 2022 2022 2022 2022 2022 2022 2022 2022 
2022 2022 2022 2022 2022 2022 2022 2022 2022 
2022 2022 2022 2022 2022 2022 2022 2022 2022 
2022 2022 2022 2022 2022 2022 2022 2022 2022 
2022 2022 2022 2022 2022 2022 2022 2022 2022 
2022 2022 2022 2022 2022 2022 2022 2022 2022 
2022 2022 2022 2022 2022 2022 2022 2022 2022 
2022 2022 2022 2022 2022 2022 2022 2022 2022 
2022 2022 2022 2022 2022 2022 2022 2022 2022 
2022 2022 2022 2022 2022 2022 2022 2022 2022 
2022 2022 2022 2022 2022 2022 2022 2022 2022 
2022 2022 2022 2022 2022 2022 2022 2022 2022 
2022 2022 2022 2022 2022 2022 2022 2022 2022 
2022 2022 2022 2022 2022 2022 2022 2022 2022 
2022 2022 2022 2022 2022 2022 2022 2022 2022 
2022 2022 2022 2022 2022 2022 2022 2022 2022 
2022 2022 2022 2022 2022 2022 2022 2022 2022 
2022 2022 2022 2022 2022 2022 2022 2022 2022 
2022 2022 2022 2022 2022 2022 2022 2022 2022 
2022 2022 2022 2022 2022 2022 2022 2022 2022 
2022 2022 2022 2022 2022 2022 2022 2022 2022 
2022 2022 2022 2022 2022 2022 2022 2022 2022 
2022 2022 2022 2022 2022 2022 2022 2022 2022 
2022 2022 2022 2022 2022 2022 2022 2022 2022 
2022 2022 2022 2022 2022 2022 2022 2022 2022 
2022 2022 2022 2022 2022 2022 2022 2022 2022 
2022 2022 2022 2022 2022 2022 2022 2022 2022 
2022 2022 2022 2022 2022 2022 2022 2022 2022 
2022 2022 2022 2022 2022 2022 2022 2022 2022 
2022 2022 2022 2022 2022 2022 2022 2022 2022 
2022 2022 2022 2022 2022 2022 2022 2022 2022 
2022 2022 2022 2022 2022 2022 2022 2022 2022 
2022 2022 2022 2022 2022 2022 2022 2022 2022 
2022 2022 2022 2022 2022 2022 2022 2022 2022 
2022 2022 2022 2022 2022 2022 2022 2022 2022 
2022 2022 2022 2022 2022 2022 2022 2022 2022 
2022 2022 2022 2022 2022 2022 2022 2022 2022 
2022 2022 2022 2022 2022 2022 2022 2022 2022 
2022 2022 2022 2022 2022 2022 2022 2022 2022 
2022 2022 2022 2022 2022 2022 2022 2022 2022 
2022 2022 2022 2022 2022 2022 2022 2022 2022 
2022 2022 2022 2022 2022 2022 2022 2022 2022 
2022 2022 2022 2022 2022 2022 2022 2022 2022 
2022 2022 2022 2022 2022 2022 2022 2022 2022 
2022 2022 2022 2022 2022 2022 2022 2022 2022 
2022 2022 2022 2022 2022 2022 2022 2022 2022 
2022 2022 2022 2022 2022 2022 2022 2022 2022 
2022 2022 2022 2022 2022 2022 2022 2022 2022 
2022 2022 2022 2022 2022 2022 2022 2022 2022 
2022 2022 2022 2022 2022 2022 2022 2022 2022 
2022 2022 2022 2022 2022 2022 2022 2022 2022 
2022 2022 2022 2022 2022 2022 2022 2022 2022 
2022 2022 2022 2022 2022 2022 2022 2022 2022 
2022 2022 2022 2022 2022 2022 2022 2022 2022 
2022 2022 2022 2022 2022 2022 2022 2022 2022 
2022 2022 2022 2022 2022 2022 2022 2022 2022 
2022 2022 2022 2022 2022 2022 2022 2022 2022 
2022 2022 2022 2022 2022 2022 2022 2022 2022 
2022 2022 2022 2022 2022 2022 2022 2022 2022 
2022 2022 2022 2022 2022 2022 2022 2022 2022 
2022 2022 2022 2022 2022 2022 2022 2022 2022 
2022 2022 2022 2022 2022 2022 2022 2022 2022 
2022 2022 2022 2022 2022 2022 2022 2022 2022 
2022 2022 2022 2022 2022 2022 2022 2022 2022 
2022 2022 2022 2022 2022 2022 2022 2022 2022 
2022 2022 2022 2022 2022 2022 2022 2022 2022 
2022 2022 2022 2022 2022 2022 2022 2022 2022 
2022 2022 2022 2022 2022 2022 2022 2022 2022 
2022 2022 2022 2022 2022 2022 2022 2022 2022 
2022 2022 2022 2022 2022 2022 2022 2022 2022 
2022 2022 2022 2022 2022 2022 2022 2022 2022 
2022 2022 2022 2022 2022 2022 2022 2022 2022 
2022 2022 2022 2022 2022 2022 2022 2022 2022 
2022 2022 2022 2022 2022 2022 2022 2022 2022 
2022 2022 2022 2022 2022 2022 2022 2022 2022 
2022 2022 2022 2022 2022 2022 2022 2022 2022 
2022 2022 2022 2022 2022 2022 2022 2022 2022 
2022 2022 2022 2022 2022 2022 2022 2022 2022 
2022 2022 2022 2022 2022 2022 2022 2022 2022 
2022 2022 2022 2022 2022 2022 2022 2022 2022 
2022 2022 2022 2022 2022 2022 2022 2022 2022 
2022 2022 2022 2022 2022 2022 2022 2022 2022 
2022 2022 2022 2022 2022 2022 2022 2022 2022 
2022 2022 2022 2022 2022 2022 2022 2022 2022 
2022 2022 2022 2022 2022 2022 2022 2022 2022 
2022 2022 2022 2022 2022 2022 2022 2022 2022 
2022 2022 2022 2022 2022 2022 2022 2022 2022 
2022 2022 2022 2022 2022 2022 2022 2022 2022 
2022 2022 2022 2022 2022 2022 2022 2022 2022 
2022 2022 2022 2022 2022 2022 2022 2022 2022 
2022 2022 2022 2022 2022 2022 2022 2022 2022 
2022 2022 2022 2022 2022 2022 2022 2022 2022 
2022 2022 2022 2022 2022 2022 2022 2022 2022 
2022 2022 2022 2022 2022 2022 2022 2022 2022 
2022 2022 2022 2022 2022 2022 2022 2022 2022 
2022 2022 2022 2022 2022 2022 2022 2022 2022 
2022 2022 2022 2022 2022 2022 2022 2022 2022 
2022 2022 2022 2022 2022 2022 2022 2022 2022 
2022 2022 2022 2022 2022 2022 2022 2022 2022 
2022 2022 2022 2022 2022 2022 2022 2022 2022 
2022 2022 2022 2022 2022 2022 2022 2022 2022 
2022 2022 2022 2022 2022 2022 2022 2022 2022 
2022 2022 2022 2022 2022 2022 2022 2022 2022 
2022 2022 2022 2022 2022 2022 2022 2022 2022 
2022 2022 2022 2022 2022 2022 2022 2022 2022 
2022 2022 2022 2022 2022 2022 2022 2022 2022 
2022 2022 2022 2022 2022 2022 2022 2022 2022 
2022 2022 2022 2022 2022 2022 2022 2022 2022 
2022 2022 2022 2022 2022 2022 2022 2022 2022 
2022 2022 2022 2022 2022 2022 2022 2022 2022 
2022 2022 2022 2022 2022 2022 2022 2022 2022 
2022 2022 2022 2022 2022 2022 2022 2022 2022 
2022 2022 2022 2022 2022 2022 2022 2022 2022 
2022 2022 2022 2022 2022 2022 2022 2022 2022 
2022 2022 2022 2022 2022 2022 2022 2022 2022 
2022 2022 2022 2022 2022 2022 2022 2022 2022 
2022 2022 2022 2022 2022 2022 2022 2022 2022 
2022 2022 2022 2022 2022 2022 2022 2022 2022 
2022 2022 2022 2022 2022 2022 2022 2022 2022 
2022 2022 2022 2022 2022 2022 2022 2022 2022 
2022 2022 2022 2022 2022 2022 2022 2022 2022 
2022 2022 2022 2022 2022 2022 2022 2022 2022 
2022 2022 2022 2022 2022 2022 2022 2022 2022 
2022 2022 2022 2022 2022 2022 2022 2022 2022 
2022 2022 2022 2022 2022 2022 2022 2022 2022 
2022 2022 2022 2022 2022 2022 2022 2022 2022 
2022 2022 2022 2022 2022 2022 2022 2022 2022 
2022 2022 2022 2022 2022 2022 2022 2022 2022 
2022 2022 2022 2022 2022 2022 2022 2022 2022 
2022 2022 2022 2022 2022 2022 2022 2022 2022 
2022 2022 2022 2022 2022 2022 2022 2022 2022 
2022 2022 2022 2022 2022 2022 2022 2022 2022 
2022 2022 2022 2022 2022 2022 2022 2022 2022 
2022 2022 2022 2022 2022 2022 2022 2022 2022 
2022 2022 2022 2022 2022 2022 2022 2022 2022 
2022 2022 2022 2022 2022 2022 2022 2022 2022 
2022 2022 2022 2022 2022 2022 2022 2022 2022 
2022 2022 2022 2022 2022 2022 2022 2022 2022 
2022 2022 2022 2022 2022 2022 2022 2022 2022 
2022 2022 2022 2022 2022 2022 2022 2022 2022 
2022 2022 2022 2022 2022 2022 2022 2022 2022 
2022 2022 2022 2022 2022 2022 2022 2022 2022 
2022 2022 2022 2022 2022 2022 2022 2022 2022 
2022 2022 2022 2022 2022 2022 2022 2022 2022 
2022 2022 2022 2022 2022 2022 2022 2022 2022 
2022 2022 2022 2022 2022 2022 2022 2022 2022 
2022 2022 2022 2022 2022 2022 2022 2022 2022 
2022 2022 2022 2022 2022 2022 2022 2022 2022 
2022 2022 2022 2022 2022 2022 2022 2022 2022 
2022 2022 2022 2022 2022 2022 2022 2022 2022 
2022 2022 2022 2022 2022 2022 2022 2022 2022 
2022 2022 2022 2022 2022 2022 2022 2022 2022 
2022 2022 2022 2022 2022 2022 2022 2022 2022 
2022 2022 2022 2022 2022 2022 2022 2022 2022 
2022 2022 2022 2022 2022 2022 2022 2022 2022 
2022 2022 2022 2022 2022 2022 2022 2022 2022 
2022 2022 2022 2022 2022 2022 2022 2022 2022 
2022 2022 2022 2022 2022 2022 2022 2022 2022 
2022 2022 2022 2022 2022 2022 2022 2022 2022 
2022 2022 2022 2022 2022 2022 2022 2022 2022 
2022 2022 2022 2022 2022 2022 2022 2022 2022 
2022 2022 2022 2022 2022 2022 2022 2022 2022 
2022 2022 2022 2022 2022 2022 2022 2022 2022 
2022 2022 2022 2022 2022 2022 2022 2022 2022 
2022 2022 2022 2022 2022 2022 2022 2022 2022 
2022 2022 2022 2022 2022 2022 2022 2022 2022 
2022 2022 2022 2022 2022 2022 2022 2022 2022 
2022 2022 2022 2022 2022 2022 2022 2022 2022 
2022 2022 2022 2022 2022 2022 2022 2022 2022 
2022 2022 2022 2022 2022 2022 2022 2022 2022 
2022 2022 2022 2022 2022 2022 2022 2022 2022 
2022 2022 2022 2022 2022 2022 2022 2022 2022 
2022 2022 2022 2022 2022 2022 2022 2022 2022 
2022 2022 2022 2022 2022 2022 2022 2022 2022 
2022 2022 2022 2022 2022 2022 2022 2022 2022 
2022 2022 2022 2022 2022 2022 2022 2022 2022 
2022 2022 2022 2022 2022 2022 2022 2022 2022 
2022 2022 2022 2022 2022 2022 2022 2022 2022 
2022 2022 2022 2022 2022 2022 2022 2022 2022 
2022 2022 2022 2022 2022 2022 2022 2022 2022 
2022 2022 2022 2022 2022 2022 2022 2022 2022 
2022 2022 2022 2022 2022 2022 2022 2022 2022 
2022 2022 2022 2022 2022 2022 2022 2022 2022 
2022 2022 2022 2022 2022 2022 2022 2022 2022 
2022 2022 2022 2022 2022 2022 2022 2022 2022 
2022 2022 2022 2022 2022 2022 2022 2022 2022 
2022 2022 2022 2022 2022 2022 2022 2022 2022 
2022 2022 2022 2022 2022 2022 2022 2022 2022 
2022 2022 2022 2022 2022 2022 2022 2022 2022 
2022 2022 2022 2022 2022 2022 2022 2022 2022 
2022 2022 2022 2022 2022 2022 2022 2022 2022 
2022 2022 2022 2022 2022 2022 2022 2022 2022 
2022 2022 2022 2022 2022 2022 2022 2022 2022 
2022 2022 2022 2022 2022 2022 2022 2022 2022 
2022 2022 2022 2022 2022 2022 2022 2022 2022 
2022 2022 2022 2022 2022 2022 2022 2022 2022 
2022 2022 2022 2022 2022 2022 2022 2022 2022 
2022 2022 2022 2022 2022 2022 2022 2022 2022 
2022 2022 2022 2022 2022 2022 2022 2022 2022 
2022 2022 2022 2022 2022 2022 2022 2022 2022 
2022 2022 2022 2022 2022 2022 2022 2022 2022 
2022 2022 2022 2022 2022 2022 2022 2022 2022 
2022 2022 2022 2022 2022 2022 2022 2022 2022 
2022 2022 2022 2022 2022 2022 2022 2022 2022 
2022 2022 2022 2022 2022 2022 2022 2022 2022 
2022 2022 2022 2022 2022 2022 2022 2022 2022 
2022 2022 2022 2022 2022 2022 2022 2022 2022 
2022 2022 2022 2022 2022 2022 2022 2022 2022 
2022 2022 2022 2022 2022 2022 2022 2022 2022 
2022 2022 2022 2022 2022 2022 2022 2022 2022 
2022 2022 2022 2022 2022 2022 2022 2022 2022 
2022 2022 2022 2022 2022 2022 2022 2022 2022 
2022 2022 2022 2022 2022 2022 2022 2022 2022 
2022 2022 2022 2022 2022 2022 2022 2022 2022 
2022 2022 2022 2022 2022 2022 2022 2022 2022 
2022 2022 2022 2022 2022 2022 2022 2022 2022 
2022 2022 2022 2022 2022 2022 2022 2022 2022 
2022 2022 2022 2022 2022 2022 2022 2022 2022 
2022 2022 2022 2022 2022 2022 2022 2022 2022 
2022 2022 2022 2022 2022 2022 2022 2022 2022 
2022 2022 2022 2022 2022 2022 2022 2022 2022 
2022 2022 2022 2022 2022 2022 2022 2022 2022 
2022 2022 2022 2022 2022 2022 2022 2022 2022 
2022 2022 2022 2022 2022 2022 2022 2022 2022 
2022 2022 2022 2022 2022 2022 2022 2022 2022 
2022 2022 2022 2022 2022 2022 2022 2022 2022 
2022 2022 2022 2022 2022 2022 2022 2022 2022 
2022 2022 2022 2022 2022 2022 2022 2022 2022 
2022 2022 2022 2022 2022 2022 2022 2022 2022 
2022 2022 2022 2022 2022 2022 2022 2022 2022 
2022 2022 2022 2022 2022 2022 2022 2022 2022 
2022 2022 2022 2022 2022 2022 2022 2022 2022 
2022 2022 2022 2022 2022 2022 2022 2022 2022 
2022 2022 2022 2022 2022 2022 2022 2022 2022 
2022 2022 2022 2022 2022 2022 2022 2022 2022 
2022 2022 2022 2022 2022 2022 2022 2022 2022 
2022 2022 2022 2022 2022 2022 2022 2022 2022 
2022 2022 2022 2022 2022 2022 2022 2022 2022 
2022 2022 2022 2022 2022 2022 2022 2022 2022 
2022 2022 2022 2022 2022 2022 2022 2022 2022 
2022 2022 2022 2022 2022 2022 2022 2022 2022 
2022 2022 2022 2022 2022 2022 2022 2022 2022 
2022 2022 2022 2022 2022 2022 2022 2022 2022 
2022 2022 2022 2022 2022 2022 2022 2022 2022 
2022 2022 2022 2022 2022 2022 2022 2022 2022 
2022 2022 2022 2022 2022 2022 2022 2022 2022 
2022 2022 2022 2022 2022 2022 2022 2022 2022 
2022 2022 2022 2022 2022 2022 2022 2022 2022 
2022 2022 2022 2022 2022 2022 2022 2022 2022 
2022 2022 2022 2022 2022 2022 2022 2022 2022 
2022 2022 2022 2022 2022 2022 2022 2022 2022 
2022 2022 2022 2022 2022 2022 2022 2022 2022 
2022 2022 2022 2022 2022 2022 2022 2022 2022 
2022 2022 2022 2022 2022 2022 2022 2022 2022 
2022 2022 2022 2022 2022 2022 2022 2022 2022 
2022 2022 2022 2022 2022 2022 2022 2022 2022 
2022 2022 2022 2022 2022 2022 2022 2022 2022 
2022 2022 2022 2022 2022 2022 2022 2022 2022 
2022 2022 2022 2022 2022 2022 2022 2022 2022 
2022 2022 2022 2022 2022 2022 2022 2022 2022 
2022 2022 2022 2022 2022 2022 2022 2022 2022 
2022 2022 2022 2022 2022 2022 2022 2022 2022 
2022 2022 2022 2022 2022 2022 2022 2022 2022 
2022 2022 2022 2022 2022 2022 2022 2022 2022 
2022 2022 2022 2022 2022 2022 2022 2022 2022 
2022 2022 2022 2022 2022 2022 2022 2022 2022 
2022 2022 2022 2022 2022 2022 2022 2022 2022 
2022 2022 2022 2022 2022 2022 2022 2022 2022 
2022 2022 2022 2022 2022 2022 2022 2022 2022 
2022 2022 2022 2022 2022 2022 2022 2022 2022 
2022 2022 2022 2022 2022 2022 2022 2022 2022 
2022 2022 2022 2022 2022 2022 2022 2022 2022 
2022 2022 2022 2022 2022 2022 2022 2022 2022 
2022 2022 2022 2022 2022 2022 2022 2022 2022 
2022 2022 2022 2022 2022 2022 2022 2022 2022 
2022 2022 2022 2022 2022 2022 2022 2022 2022 
2022 2022 2022 2022 2022 2022 2022 2022 2022 
2022 2022 2022 2022 2022 2022 2022 2022 2022 
2022 2022 2022 2022 2022 2022 2022 2022 2022 
2022 2022 2022 2022 2022 2022 2022 2022 2022 
2022 2022 2022 2022 2022 2022 2022 2022 2022 
2022 2022 2022 2022 2022 2022 2022 2022 2022 
2022 2022 2022 2022 2022 2022 2022 2022 2022 
2022 2022 2022 2022 2022 2022 2022 2022 2022 
2022 2022 2022 2022 2022 2022 2022 2022 2022 
2022 2022 2022 2022 2022 2022 2022 2022 2022 
2022 2022 2022 2022 2022 2022 2022 2022 2022 
2022 2022 2022 2022 2022 2022 2022 2022 2022 
2022 2022 2022 2022 2022 2022 2022 2022 2022 
2022 2022 2022 2022 2022 2022 2022 2022 2022 
2022 2022 2022 2022 2022 2022 2022 2022 2022 
2022 2022 2022 2022 2022 2022 2022 2022 2022 
2022 2022 2022 2022 2022 2022 2022 2022 2022 
2022 2022 2022 2022 2022 2022 2022 2022 2022 
2022 2022 2022 2022 2022 2022 2022 2022 2022 
2022 2022 2022 2022 2022 2022 2022 2022 2022 
2022 2022 2022 2022 2022 2022 2022 2022 2022 
2022 2022 2022 2022 2022 2022 2022 2022 2022 
2022 2022 2022 2022 2022 2022 2022 2022 2022 
2022 2022 2022 2022 2022 2022 2022 2022 2022 
2022 2022 2022 2022 2022 2022 2022 2022 2022 
2022 2022 2022 2022 2022 2022 2022 2022 2022 
2022 2022 2022 2022 2022 2022 2022 2022 2022 
2022 2022 2022 2022 2022 2022 2022 2022 2022 
2022 2022 2022 2022 2022 2022 2022 2022 2022 
2022 2022 2022 2022 2022 2022 2022 2022 2022 
2022 2022 2022 2022 2022 2022 2022 2022 2022 
2022 2022 2022 2022 2022 2022 2022 2022 2022 
2022 2022 2022 2022 2022 2022 2022 2022 2022 
2022 2022 2022 2022 2022 2022 2022 2022 2022 
2022 2022 2022 2022 2022 2022 2022 2022 2022 
2022 2022 2022 2022 2022 2022 2022 2022 2022 
2022 2022 2022 2022 2022 2022 2022 2022 2022 
2022 2022 2022 2022 2022 2022 2022 2022 2022 
2022 2022 2022 2022 2022 2022 2022 2022 2022 
2022 2022 2022 2022 2022 2022 2022 2022 2022 
2022 2022 2022 2022 2022 2022 2022 2022 2022 
2022 2022 2022 2022 2022 2022 2022 2022 2022 
2022 2022 2022 2022 2022 2022 2022 2022 2022 
2022 2022 2022 2022 2022 2022 2022 2022 2022 
2022 2022 2022 2022 2022 2022 2022 2022 2022 
2022 2022 2022 2022 2022 2022 2022 2022 2022 
2022 2022 2022 2022 2022 2022 2022 2022 2022 
2022 2022 2022 2022 2022 2022 2022 2022 2022 
2022 2022 2022 2022 2022 2022 2022 2022 2022 
2022 2022 2022 2022 2022 2022 2022 2022 2022 
2022 2022 2022 2022 2022 2022 2022 2022 2022 
2022 2022 2022 2022 2022 2022 2022 2022 2022 
2022 2022 2022 2022 2022 2022 2022 2022 2022 
2022 2022 2022 2022 2022 2022 2022 2022 2022 
2022 2022 2022 2022 2022 2022 2022 2022 2022 
2022 2022 2022 2022 2022 2022 2022 2022 2022 
2022 2022 2022 2022 2022 2022 2022 2022 2022 
2022 2022 2022 2022 2022 2022 2022 2022 2022 
2022 2022 2022 2022 2022 2022 2022 2022 2022 
2022 2022 2022 2022 2022 2022 2022 2022 2022 
2022 2022 2022 2022 2022 2022 2022 2022 2022 
2022 2022 2022 2022 2022 2022 2022 2022 2022 
2022 2022 2022 2022 2022 2022 2022 2022 2022 
2022 2022 2022 2022 2022 2022 2022 2022 2022 
2022 2022 2022 2022 2022 2022 2022 2022 2022 
2022 2022 2022 2022 2022 2022 2022 2022 2022 
2022 2022 2022 2022 2022 2022 2022 2022 2022 
2022 2022 2022 2022 2022 2022 2022 2022 2022 
2022 2022 2022 2022 2022 2022 2022 2022 2022 
2022 2022 2022 2022 2022 2022 2022 2022 2022 
2022 2022 2022 2022 2022 2022 2022 2022 2022 
2022 2022 2022 2022 2022 2022 2022 2022 2022 
2022 2022 2022 2022 2022 2022 2022 2022 2022 
2022 2022 2022 2022 2022 2022 2022 2022 2022 
2022 2022 2022 2022 2022 2022 2022 2022 2022 
2022 2022 2022 2022 2022 2022 2022 2022 2022 
2022 2022 2022 2022 2022 2022 2022 2022 2022 
2022 2022 2022 2022 2022 2022 2022 2022 2022 
2022 2022 2022 2022 2022 2022 2022 2022 2022 
2022 2022 2022 2022 2022 2022 2022 2022 2022 
2022 2022 2022 2022 2022 2022 2022 2022 2022 
2022 2022 2022 2022 2022 2022 2022 2022 2022 
2022 2022 2022 2022 2022 2022 2022 2022 2022 
2022 2022 2022 2022 2022 2022 2022 2022 2022 
2022 2022 2022 2022 2022 2022 2022 2022 2022 
2022 2022 2022 2022 2022 2022 2022 2022 2022 
2022 2022 2022 2022 2022 2022 2022 2022 2022 
2022 2022 2022 2022 2022 2022 2022 2022 2022 
2022 2022 2022 2022 2022 2022 2022 2022 2022 
2022 2022 2022 2022 2022 2022 2022 2022 2022 
2022 2022 2022 2022 2022 2022 2022 2022 2022 
2022 2022 2022 2022 2022 2022 2022 2022 2022 
2022 2022 2022 2022 2022 2022 2022 2022 2022 
2022 2022 2022 2022 2022 2022 2022 2022 2022 
2022 2022 2022 2022 2022 2022 2022 2022 2022 