# vtk DataFile Version 4.2
vtk output
ASCII
DATASET POLYDATA
POINTS 5050 float
-6.48095 -12.3577 -31.9523 -6.3633 -12.175 -32.0498 -6.22818 -12.4079 -32.0982 
-6.61126 -12.1664 -32.172 -2.81565 -12.8749 -32.0059 -2.71344 -12.7294 -32.0794 
-2.63732 -12.8706 -32.0354 -3.04655 -12.9208 -32.2247 -6.44119 -12.4905 -32.2293 
-2.27169 -13.6739 -31.9191 -2.12458 -13.3566 -32.0779 -1.95216 -13.7198 -32.0243 
-2.78847 -13.094 -32.1738 -2.44618 -13.5658 -32.1495 -2.18639 -14.0045 -31.9131 
-1.91859 -14.1587 -32.1304 -2.40286 -13.9787 -32.0363 -2.19814 -14.3022 -32.2422 
-4.66623 -10.5885 -32.5402 -4.54809 -10.2712 -32.8603 -4.33794 -10.6724 -32.6523 
-4.93063 -10.4435 -32.7365 -4.64396 -11.1673 -32.4768 -4.18794 -11.1277 -32.6021 
-4.97401 -10.8577 -32.6538 -5.79525 -10.9769 -32.6662 -5.55721 -11.1365 -32.6185 
-5.89712 -11.2376 -32.5041 -6.03913 -11.1489 -32.7932 -2.88615 -11.8165 -32.4852 
-2.78597 -11.5308 -32.8283 -2.47466 -11.754 -32.6883 -3.54732 -11.7683 -32.4607 
-3.22704 -11.3862 -32.8096 -4.16555 -11.6697 -32.4249 -3.79298 -11.3263 -32.682 
-4.68614 -11.7987 -32.3558 -5.31495 -11.2682 -32.8006 -5.29726 -11.5829 -32.4252 
-5.83459 -11.6488 -32.3469 -6.35164 -11.3502 -32.6626 -6.31149 -11.7403 -32.3231 
-6.65565 -11.759 -32.6648 -1.77124 -12.3288 -32.5072 -1.74648 -12.1483 -32.856 
-1.43634 -12.4883 -32.7304 -2.29786 -12.134 -32.4352 -2.09581 -11.9541 -32.7562 
-2.82962 -12.4388 -32.2689 -3.42063 -12.3012 -32.3375 -4.02847 -12.307 -32.3464 
-4.50667 -12.2297 -32.3474 -5.039 -12.3538 -32.4337 -5.80598 -12.1686 -32.3302 
-6.63952 -12.2248 -32.6877 -1.5705 -12.7541 -32.4603 -1.35319 -12.9723 -32.6695 
-2.27737 -12.8842 -32.2334 -3.45447 -12.8614 -32.336 -4.01276 -12.9268 -32.3356 
-4.6077 -12.882 -32.4203 -4.99967 -12.9194 -32.6878 -5.37467 -12.6507 -32.822 
-5.9826 -12.5705 -32.538 -6.28448 -12.5435 -32.782 -1.66951 -13.3112 -32.3442 
-1.26064 -13.5797 -32.751 -2.71786 -13.5126 -32.4133 -3.05489 -13.3846 -32.569 
-3.42521 -13.2761 -32.6608 -3.77539 -13.5461 -32.8692 -3.91937 -13.3937 -32.4701 
-4.45143 -13.4961 -32.4834 -4.84153 -13.3841 -32.7588 -1.58763 -13.9609 -32.3896 
-1.26491 -14.1652 -32.7681 -2.54616 -14.0535 -32.5151 -2.85531 -13.7876 -32.8948 
-4.22763 -13.7643 -32.7421 -4.64486 -13.7536 -32.8286 -1.70197 -14.4026 -32.7071 
-2.22963 -14.3956 -32.7726 -4.01606 -10.5281 -32.9729 -4.03098 -10.213 -33.4068 
-3.6445 -10.5583 -33.2442 -4.61568 -10.1149 -33.2569 -5.2272 -10.6744 -32.9892 
-5.0223 -10.2854 -33.2005 -5.34934 -10.6369 -33.4429 -3.59218 -10.9564 -33.0258 
-3.4009 -10.7734 -33.2926 -3.18013 -11.027 -33.2567 -3.99766 -10.9178 -32.8105 
-5.23272 -11.0078 -32.8957 -5.40013 -11.0627 -33.217 -5.70197 -11.1277 -32.7834 
1.95503 -11.8163 -33.1005 2.15795 -11.5302 -33.399 2.25597 -11.8881 -33.3301 
1.84458 -11.6451 -33.3615 -2.89155 -11.3277 -33.1483 -2.49142 -11.6107 -33.1334 
-5.55112 -11.6308 -33.3466 -5.92126 -11.6004 -33.0585 -6.43665 -11.4812 -33.2539 
-6.26544 -11.8291 -33.3697 -6.83573 -11.7813 -33.2926 2.00862 -12.1468 -33.0975 
2.16172 -12.2413 -33.2686 1.77419 -12.2162 -33.3727 -1.55884 -12.3961 -33.0448 
-1.83577 -12.1786 -33.2642 -2.10032 -11.9318 -33.1343 -5.93123 -12.0858 -33.2629 
-6.2927 -12.1951 -33.0578 -6.06968 -12.4178 -33.2033 -6.58109 -12.0303 -33.3031 
2.09631 -12.5087 -33.333 -1.50894 -12.5353 -33.3299 -1.25297 -12.9153 -33.0813 
-5.02935 -13.0461 -33.1447 -5.15364 -12.6426 -33.3982 -5.72559 -12.5562 -33.1659 
-1.01624 -13.4961 -33.0878 -0.900256 -13.2823 -33.3223 -0.778967 -13.684 -33.2669 
-3.1035 -13.5177 -33.1026 -3.38161 -13.3377 -33.3896 -3.81502 -13.4949 -33.3429 
-4.82932 -13.501 -33.257 -0.96937 -13.9615 -33.0401 -0.813318 -14.006 -33.3966 
-2.54615 -14.0825 -33.1883 -2.85363 -13.7731 -33.2734 -4.05417 -13.7287 -33.1252 
-4.47164 -13.7689 -33.21 -1.13929 -14.3168 -33.1305 -1.50772 -14.4035 -33.2833 
-2.01777 -14.3619 -33.2369 -3.33853 -10.5618 -33.5249 -3.52178 -10.2368 -34.0028 
-3.06732 -10.544 -33.9095 -4.10789 -10.1182 -33.9955 -4.71395 -10.1767 -33.8012 
-5.12962 -10.388 -33.6564 -5.10362 -10.3735 -34.01 -0.398364 -11.0682 -33.7895 
-0.458615 -10.9453 -34.0513 -0.283768 -11.0824 -33.9137 -0.645209 -11.0329 -33.953 
-2.79758 -11.0722 -33.5847 -2.77993 -10.8214 -34.1063 -2.50922 -11.2009 -33.913 
-5.28913 -10.5949 -33.8327 -5.42617 -11.0806 -33.7588 2.51774 -11.6288 -33.6336 
2.41899 -11.4734 -33.9179 2.67919 -11.6519 -33.9113 1.90345 -11.3478 -33.8897 
1.64145 -11.7282 -33.8003 0.775287 -11.7005 -33.8366 0.877744 -11.5412 -34.0934 
0.945447 -11.7892 -33.9273 0.544308 -11.6572 -33.9854 -0.381024 -11.2679 -33.9788 
-1.02884 -11.5252 -33.903 -0.717535 -11.6883 -33.8924 -1.10155 -11.9072 -33.7439 
-1.27717 -11.5979 -33.9277 -2.217 -11.6993 -33.5896 -2.26746 -11.4211 -34.0317 
-1.89481 -11.6706 -33.9641 -5.22997 -11.7985 -33.68 -4.92643 -11.7684 -33.8695 
-5.26666 -11.431 -33.9275 -6.51287 -11.4346 -33.8882 -6.1532 -11.5963 -33.9581 
-7.09081 -11.6928 -33.7068 -6.89171 -11.5287 -33.8159 -7.13965 -11.6755 -33.8888 
2.55309 -11.8179 -33.8709 2.38347 -12.2776 -33.7273 1.52563 -12.3604 -34.0288 
0.681326 -11.8414 -33.9127 0.146448 -12.0702 -33.8982 0.489981 -12.305 -33.88 
0.0888611 -12.4381 -33.6881 -0.572726 -12.2641 -33.67 -0.210773 -11.9409 -33.8932 
-1.04574 -12.3244 -33.6015 -1.52972 -11.8496 -33.8504 -1.56803 -12.1962 -33.6031 
-4.78463 -12.2668 -33.753 -4.42923 -12.2636 -33.9748 -4.67517 -12.0015 -34.0925 
-5.28972 -12.3135 -33.5356 -5.66472 -12.1966 -33.4503 -6.36031 -11.9324 -33.8822 
-6.87898 -11.8577 -33.8915 2.43065 -12.8566 -33.6202 2.58894 -12.65 -33.8604 
2.84275 -13.0643 -33.9 1.9777 -12.961 -33.5695 1.42493 -12.688 -33.8182 
1.3212 -13.0103 -33.6959 0.629718 -12.8996 -33.6285 0.96264 -12.6386 -33.8995 
0.111649 -13.0297 -33.5524 -0.315692 -12.8167 -33.5706 -0.971677 -12.7796 -33.4908 
-4.46914 -12.5827 -34.0138 -4.79106 -12.9663 -33.7194 2.56022 -13.3808 -33.7223 
2.9412 -13.599 -33.9522 2.29882 -13.4739 -33.8673 1.90339 -13.2686 -33.9451 
1.46174 -13.2084 -33.9947 1.07911 -13.4507 -34.0938 0.924893 -13.3954 -33.6914 
0.363428 -13.4742 -33.628 -0.434747 -13.5067 -33.5894 -2.80183 -13.6197 -33.5472 
-2.45515 -13.585 -33.8617 -2.83478 -13.2805 -34.0173 -3.37841 -13.1816 -33.9072 
-3.8308 -13.2005 -33.9139 -4.2179 -13.5476 -33.569 -4.43461 -13.1859 -33.9302 
-4.63478 -13.473 -33.6244 2.68111 -13.7414 -34.0721 0.690125 -13.7296 -33.8724 
0.165106 -13.7545 -34.0394 -0.50842 -13.8183 -34.0403 -0.885956 -13.9115 -33.8368 
-1.19223 -14.1827 -33.5663 -1.43665 -13.8569 -34.015 -1.7465 -14.1599 -33.6293 
-2.01417 -13.7667 -33.9126 -2.29406 -13.9759 -33.6151 -3.51368 -10.283 -34.5012 
-3.14786 -10.5451 -34.483 -3.97039 -10.2115 -34.4275 -4.59971 -10.2245 -34.4149 
-5.45915 -10.5523 -34.1809 -5.21804 -10.2886 -34.4023 -5.8547 -10.615 -34.3669 
-5.7266 -10.3552 -34.4666 -5.95496 -10.585 -34.5586 2.09122 -11.1944 -34.282 
1.90865 -10.9122 -34.6558 2.29305 -11.0565 -34.6382 1.67431 -11.0767 -34.4882 
-0.536316 -10.8284 -34.5629 -0.111905 -11.0726 -34.387 -1.0451 -11.2614 -34.1001 
-0.972986 -10.8461 -34.4464 -1.71773 -11.2536 -34.2707 -1.59058 -10.9112 -34.5698 
-1.98681 -11.0529 -34.5907 -2.82713 -10.8838 -34.5629 -2.56455 -11.1383 -34.4054 
-5.73399 -11.1683 -34.1794 -6.03163 -10.9786 -34.5498 2.61933 -11.671 -34.0799 
2.44618 -11.7144 -34.2772 1.27806 -11.834 -34.0759 1.38045 -11.3738 -34.2729 
0.874493 -11.2908 -34.5142 0.178537 -11.7462 -34.072 0.400763 -11.3595 -34.3909 
-0.4448 -11.5742 -34.0292 -1.53606 -11.5486 -34.0393 -2.20276 -11.3015 -34.4326 
-5.19746 -11.6278 -34.1252 -5.64129 -11.6606 -34.2495 -6.47993 -11.4071 -34.4572 
-6.97562 -11.646 -34.1402 -6.87453 -11.7826 -34.6207 2.59678 -12.0211 -34.4878 
2.89103 -12.3148 -34.4971 2.6674 -12.4038 -34.176 1.30218 -12.3365 -34.2591 
0.88558 -12.1673 -34.0784 -4.32784 -12.3438 -34.2945 -4.68198 -12.127 -34.4827 
-5.26411 -11.9836 -34.5304 -5.92415 -11.9213 -34.373 -6.43493 -12.0458 -34.5182 
3.11944 -12.8404 -34.2512 3.26606 -12.5942 -34.5655 3.44262 -12.9892 -34.5621 
1.38523 -12.9229 -34.1062 1.6522 -12.8796 -34.3439 1.57235 -12.6317 -34.5835 
1.14236 -12.7883 -34.3961 -4.183 -12.8222 -34.2253 -3.78293 -12.9262 -34.4539 
-4.09503 -12.6176 -34.6912 -4.52916 -12.9029 -34.052 3.24649 -13.3925 -34.1945 
3.39789 -13.4005 -34.6402 2.35157 -13.5715 -34.3001 1.98099 -13.2377 -34.4064 
0.972299 -13.3956 -34.5159 0.110907 -13.604 -34.3791 0.465674 -13.6108 -34.4209 
0.304825 -13.3811 -34.5874 -0.0608002 -13.437 -34.578 -1.80591 -13.5125 -34.2478 
-1.3506 -13.462 -34.5481 -1.76002 -13.3158 -34.6383 -2.28161 -13.2762 -34.4993 
-2.246 -13.4432 -34.0902 -2.90038 -13.1973 -34.6038 -3.38968 -13.1106 -34.422 
3.09355 -13.7347 -34.3318 2.76167 -13.7402 -34.4909 0.76008 -13.7069 -34.3007 
-0.323767 -13.7194 -34.3662 -0.910098 -13.7418 -34.3654 2.47648 -10.5797 -34.9224 
2.582 -10.3882 -35.095 2.72023 -10.666 -35.1299 2.43328 -10.4246 -35.0914 
0.142035 -10.7034 -34.9086 0.268341 -10.3302 -35.301 0.519653 -10.6026 -35.0736 
-0.155511 -10.4521 -35.1977 -3.44073 -10.4545 -34.7437 -3.82315 -10.4521 -34.808 
-4.43506 -10.4522 -34.8145 -5.15609 -10.525 -34.7981 -5.68935 -10.4562 -34.6554 
2.61252 -10.9668 -34.8521 2.80825 -11.1774 -35.0881 2.16645 -10.6396 -35.1271 
1.18769 -11.0708 -34.7653 1.54287 -10.7805 -35.007 0.604019 -10.9926 -34.8197 
0.959143 -10.7446 -35.0968 0.232159 -11.0386 -34.6747 -0.33403 -10.7021 -34.931 
-0.855954 -10.6801 -35.0009 -1.53193 -10.6985 -35.0778 -2.31486 -11.15 -34.8565 
-2.05752 -10.9113 -34.9814 -2.788 -11.1004 -34.7992 -2.47367 -11.1294 -35.3053 
-3.04989 -10.9855 -34.9499 -3.51946 -10.7884 -35.0398 -4.18452 -10.7846 -35.2231 
-4.79607 -10.7139 -35.1847 -5.27228 -10.8373 -35.0977 -5.73963 -10.8609 -34.8372 
-5.55695 -11.0946 -35.3084 2.67757 -11.6561 -34.733 2.98898 -11.6637 -35.1364 
-2.78969 -11.2712 -35.0848 -6.05097 -11.2593 -35.0787 -6.44929 -11.3879 -35.099 
-7.08057 -11.7041 -34.9373 -6.8492 -11.543 -35.0538 -7.11743 -11.6867 -35.1034 
3.10271 -12.165 -34.8236 3.25621 -11.9767 -35.1888 3.42909 -12.41 -35.044 
0.757727 -12.4425 -34.8848 1.0429 -12.1837 -35.1353 0.762781 -12.0388 -35.0813 
[...]
CELL_DATA 10200
SCALARS scalars float
LOOKUP_TABLE default
1005 1005 1005 1005 1005 1005 1005 1005 1005 
1005 1005 1005 1005 1005 1005 1005 1005 1005 
1005 1005 1005 1005 1005 1005 1005 1005 1005 
1005 1005 1005 1005 1005 1005 1005 1005 1005 
1005 1005 1005 1005 1005 1005 1005 1005 1005 
1005 1005 1005 1005 1005 1005 1005 1005 1005 
1005 1005 1005 1005 1005 1005 1005 1005 1005 
1005 1005 1005 1005 1005 1005 1005 1005 1005 
1005 1005 1005 1005 1005 1005 1005 1005 1005 
1005 1005 1005 1005 1005 1005 1005 1005 1005 
1005 1005 1005 1005 1005 1005 1005 1005 1005 
1005 1005 1005 1005 1005 1005 1005 1005 1005 
1005 1005 1005 1005 1005 1005 1005 1005 1005 
1005 1005 1005 1005 1005 1005 1005 1005 1005 
1005 1005 1005 1005 1005 1005 1005 1005 1005 
1005 1005 1005 1005 1005 1005 1005 1005 1005 
1005 1005 1005 1005 1005 1005 1005 1005 1005 
1005 1005 1005 1005 1005 1005 1005 1005 1005 
1005 1005 1005 1005 1005 1005 1005 1005 1005 
1005 1005 1005 1005 1005 1005 1005 1005 1005 
1005 1005 1005 1005 1005 1005 1005 1005 1005 
1005 1005 1005 1005 1005 1005 1005 1005 1005 
1005 1005 1005 1005 1005 1005 1005 1005 1005 
1005 1005 1005 1005 1005 1005 1005 1005 1005 
1005 1005 1005 1005 1005 1005 1005 1005 1005 
1005 1005 1005 1005 1005 1005 1005 1005 1005 
1005 1005 1005 1005 1005 1005 1005 1005 1005 
1005 1005 1005 1005 1005 1005 1005 1005 1005 
1005 1005 1005 1005 1005 1005 1005 1005 1005 
1005 1005 1005 1005 1005 1005 1005 1005 1005 
1005 1005 1005 1005 1005 1005 1005 1005 1005 
1005 1005 1005 1005 1005 1005 1005 1005 1005 
1005 1005 1005 1005 1005 1005 1005 1005 1005 
1005 1005 1005 1005 1005 1005 1005 1005 1005 
1005 1005 1005 1005 1005 1005 1005 1005 1005 
1005 1005 1005 1005 1005 1005 1005 1005 1005 
1005 1005 1005 1005 1005 1005 1005 1005 1005 
1005 1005 1005 1005 1005 1005 1005 1005 1005 
1005 1005 1005 1005 1005 1005 1005 1005 1005 
1005 1005 1005 1005 1005 1005 1005 1005 1005 
1005 1005 1005 1005 1005 1005 1005 1005 1005 
1005 1005 1005 1005 1005 1005 1005 1005 1005 
1005 1005 1005 1005 1005 1005 1005 1005 1005 
1005 1005 1005 1005 1005 1005 1005 1005 1005 
1005 1005 1005 1005 1005 1005 1005 1005 1005 
1005 1005 1005 1005 1005 1005 1005 1005 1005 
1005 1005 1005 1005 1005 1005 1005 1005 1005 
1005 1005 1005 1005 1005 1005 1005 1005 1005 
1005 1005 1005 1005 1005 1005 1005 1005 1005 
1005 1005 1005 1005 1005 1005 1005 1005 1005 
1005 1005 1005 1005 1005 1005 1005 1005 1005 
1005 1005 1005 1005 1005 1005 1005 1005 1005 
1005 1005 1005 1005 1005 1005 1005 1005 1005 
1005 1005 1005 1005 1005 1005 1005 1005 1005 
1005 1005 1005 1005 1005 1005 1005 1005 1005 
1005 1005 1005 1005 1005 1005 1005 1005 1005 
1005 1005 1005 1005 1005 1005 1005 1005 1005 
1005 1005 1005 1005 1005 1005 1005 1005 1005 
1005 1005 1005 1005 1005 1005 1005 1005 1005 
1005 1005 1005 1005 1005 1005 1005 1005 1005 
1005 1005 1005 1005 1005 1005 1005 1005 1005 
1005 1005 1005 1005 1005 1005 1005 1005 1005 
1005 1005 1005 1005 1005 1005 1005 1005 1005 
1005 1005 1005 1005 1005 1005 1005 1005 1005 
1005 1005 1005 1005 1005 1005 1005 1005 1005 
1005 1005 1005 1005 1005 1005 1005 1005 1005 
1005 1005 1005 1005 1005 1005 1005 1005 1005 
1005 1005 1005 1005 1005 1005 1005 1005 1005 
1005 1005 1005 1005 1005 1005 1005 1005 1005 
1005 1005 1005 1005 1005 1005 1005 1005 1005 
1005 1005 1005 1005 1005 1005 1005 1005 1005 
1005 1005 1005 1005 1005 1005 1005 1005 1005 
1005 1005 1005 1005 1005 1005 1005 1005 1005 
1005 1005 1005 1005 1005 1005 1005 1005 1005 
1005 1005 1005 1005 1005 1005 1005 1005 1005 
1005 1005 1005 1005 1005 1005 1005 1005 1005 
1005 1005 1005 1005 1005 1005 1005 1005 1005 
1005 1005 1005 1005 1005 1005 1005 1005 1005 
1005 1005 1005 1005 1005 1005 1005 1005 1005 
1005 1005 1005 1005 1005 1005 1005 1005 1005 
1005 1005 1005 1005 1005 1005 1005 1005 1005 
1005 1005 1005 1005 1005 1005 1005 1005 1005 
1005 1005 1005 1005 1005 1005 1005 1005 1005 
1005 1005 1005 1005 1005 1005 1005 1005 1005 
1005 1005 1005 1005 1005 1005 1005 1005 1005 
1005 1005 1005 1005 1005 1005 1005 1005 1005 
1005 1005 1005 1005 1005 1005 1005 1005 1005 
1005 1005 1005 1005 1005 1005 1005 1005 1005 
1005 1005 1005 1005 1005 1005 1005 1005 1005 
1005 1005 1005 1005 1005 1005 1005 1005 1005 
1005 1005 1005 1005 1005 1005 1005 1005 1005 
1005 1005 1005 1005 1005 1005 1005 1005 1005 
1005 1005 1005 1005 1005 1005 1005 1005 1005 
1005 1005 1005 1005 1005 1005 1005 1005 1005 
1005 1005 1005 1005 1005 1005 1005 1005 1005 
1005 1005 1005 1005 1005 1005 1005 1005 1005 
1005 1005 1005 1005 1005 1005 1005 1005 1005 
1005 1005 1005 1005 1005 1005 1005 1005 1005 
1005 1005 1005 1005 1005 1005 1005 1005 1005 
1005 1005 1005 1005 1005 1005 1005 1005 1005 
1005 1005 1005 1005 1005 1005 1005 1005 1005 
1005 1005 1005 1005 1005 1005 1005 1005 1005 
1005 1005 1005 1005 1005 1005 1005 1005 1005 
1005 1005 1005 1005 1005 1005 1005 1005 1005 
1005 1005 1005 1005 1005 1005 1005 1005 1005 
1005 1005 1005 1005 1005 1005 1005 1005 1005 
1005 1005 1005 1005 1005 1005 1005 1005 1005 
1005 1005 1005 1005 1005 1005 1005 1005 1005 
1005 1005 1005 1005 1005 1005 1005 1005 1005 
1005 1005 1005 1005 1005 1005 1005 1005 1005 
1005 1005 1005 1005 1005 1005 1005 1005 1005 
1005 1005 1005 1005 1005 1005 1005 1005 1005 
1005 1005 1005 1005 1005 1005 1005 1005 1005 
1005 1005 1005 1005 1005 1005 1005 1005 1005 
1005 1005 1005 1005 1005 1005 1005 1005 1005 
1005 1005 1005 1005 1005 1005 1005 1005 1005 
1005 1005 1005 1005 1005 1005 1005 1005 1005 
1005 1005 1005 1005 1005 1005 1005 1005 1005 
1005 1005 1005 1005 1005 1005 1005 1005 1005 
1005 1005 1005 1005 1005 1005 1005 1005 1005 
1005 1005 1005 1005 1005 1005 1005 1005 1005 
1005 1005 1005 1005 1005 1005 1005 1005 1005 
1005 1005 1005 1005 1005 1005 1005 1005 1005 
1005 1005 1005 1005 1005 1005 1005 1005 1005 
1005 1005 1005 1005 1005 1005 1005 1005 1005 
1005 1005 1005 1005 1005 1005 1005 1005 1005 
1005 1005 1005 1005 1005 1005 1005 1005 1005 
1005 1005 1005 1005 1005 1005 1005 1005 1005 
1005 1005 1005 1005 1005 1005 1005 1005 1005 
1005 1005 1005 1005 1005 1005 1005 1005 1005 
1005 1005 1005 1005 1005 1005 1005 1005 1005 
1005 1005 1005 1005 1005 1005 1005 1005 1005 
1005 1005 1005 1005 1005 1005 1005 1005 1005 
1005 1005 1005 1005 1005 1005 1005 1005 1005 
1005 1005 1005 1005 1005 1005 1005 1005 1005 
1005 1005 1005 1005 1005 1005 1005 1005 1005 
1005 1005 1005 1005 1005 1005 1005 1005 1005 
1005 1005 1005 1005 1005 1005 1005 1005 1005 
1005 1005 1005 1005 1005 1005 1005 1005 1005 
1005 1005 1005 1005 1005 1005 1005 1005 1005 
1005 1005 1005 1005 1005 1005 1005 1005 1005 
1005 1005 1005 1005 1005 1005 1005 1005 1005 
1005 1005 1005 1005 1005 1005 1005 1005 1005 
1005 1005 1005 1005 1005 1005 1005 1005 1005 
1005 1005 1005 1005 1005 1005 1005 1005 1005 
1005 1005 1005 1005 1005 1005 1005 1005 1005 
1005 1005 1005 1005 1005 1005 1005 1005 1005 
1005 1005 1005 1005 1005 1005 1005 1005 1005 
1005 1005 1005 1005 1005 1005 1005 1005 1005 
1005 1005 1005 1005 1005 1005 1005 1005 1005 
1005 1005 1005 1005 1005 1005 1005 1005 1005 
1005 1005 1005 1005 1005 1005 1005 1005 1005 
1005 1005 1005 1005 1005 1005 1005 1005 1005 
1005 1005 1005 1005 1005 1005 1005 1005 1005 
1005 1005 1005 1005 1005 1005 1005 1005 1005 
1005 1005 1005 1005 1005 1005 1005 1005 1005 
1005 1005 1005 1005 1005 1005 1005 1005 1005 
1005 1005 1005 1005 1005 1005 1005 1005 1005 
1005 1005 1005 1005 1005 1005 1005 1005 1005 
1005 1005 1005 1005 1005 1005 1005 1005 1005 
1005 1005 1005 1005 1005 1005 1005 1005 1005 
1005 1005 1005 1005 1005 1005 1005 1005 1005 
1005 1005 1005 1005 1005 1005 1005 1005 1005 
1005 1005 1005 1005 1005 1005 1005 1005 1005 
1005 1005 1005 1005 1005 1005 1005 1005 1005 
1005 1005 1005 1005 1005 1005 1005 1005 1005 
1005 1005 1005 1005 1005 1005 1005 1005 1005 
1005 1005 1005 1005 1005 1005 1005 1005 1005 
1005 1005 1005 1005 1005 1005 1005 1005 1005 
1005 1005 1005 1005 1005 1005 1005 1005 1005 
1005 1005 1005 1005 1005 1005 1005 1005 1005 
1005 1005 1005 1005 1005 1005 1005 1005 1005 
1005 1005 1005 1005 1005 1005 1005 1005 1005 
1005 1005 1005 1005 1005 1005 1005 1005 1005 
1005 1005 1005 1005 1005 1005 1005 1005 1005 
1005 1005 1005 1005 1005 1005 1005 1005 1005 
1005 1005 1005 1005 1005 1005 1005 1005 1005 
1005 1005 1005 1005 1005 1005 1005 1005 1005 
1005 1005 1005 1005 1005 1005 1005 1005 1005 
1005 1005 1005 1005 1005 1005 1005 1005 1005 
1005 1005 1005 1005 1005 1005 1005 1005 1005 
1005 1005 1005 1005 1005 1005 1005 1005 1005 
1005 1005 1005 1005 1005 1005 1005 1005 1005 
1005 1005 1005 1005 1005 1005 1005 1005 1005 
1005 1005 1005 1005 1005 1005 1005 1005 1005 
1005 1005 1005 1005 1005 1005 1005 1005 1005 
1005 1005 1005 1005 1005 1005 1005 1005 1005 
1005 1005 1005 1005 1005 1005 1005 1005 1005 
1005 1005 1005 1005 1005 1005 1005 1005 1005 
1005 1005 1005 1005 1005 1005 1005 1005 1005 
1005 1005 1005 1005 1005 1005 1005 1005 1005 
1005 1005 1005 1005 1005 1005 1005 1005 1005 
1005 1005 1005 1005 1005 1005 1005 1005 1005 
1005 1005 1005 1005 1005 1005 1005 1005 1005 
1005 1005 1005 1005 1005 1005 1005 1005 1005 
1005 1005 1005 1005 1005 1005 1005 1005 1005 
1005 1005 1005 1005 1005 1005 1005 1005 1005 
1005 1005 1005 1005 1005 1005 1005 1005 1005 
1005 1005 1005 1005 1005 1005 1005 1005 1005 
1005 1005 1005 1005 1005 1005 1005 1005 1005 
1005 1005 1005 1005 1005 1005 1005 1005 1005 
1005 1005 1005 1005 1005 1005 1005 1005 1005 
1005 1005 1005 1005 1005 1005 1005 1005 1005 
1005 1005 1005 1005 1005 1005 1005 1005 1005 
1005 1005 1005 1005 1005 1005 1005 1005 1005 
1005 1005 1005 1005 1005 1005 1005 1005 1005 
1005 1005 1005 1005 1005 1005 1005 1005 1005 
1005 1005 1005 1005 1005 1005 1005 1005 1005 
1005 1005 1005 1005 1005 1005 1005 1005 1005 
1005 1005 1005 1005 1005 1005 1005 1005 1005 
1005 1005 1005 1005 1005 1005 1005 1005 1005 
1005 1005 1005 1005 1005 1005 1005 1005 1005 
1005 1005 1005 1005 1005 1005 1005 1005 1005 
1005 1005 1005 1005 1005 1005 1005 1005 1005 
1005 1005 1005 1005 1005 1005 1005 1005 1005 
1005 1005 1005 1005 1005 1005 1005 1005 1005 
1005 1005 1005 1005 1005 1005 1005 1005 1005 
1005 1005 1005 1005 1005 1005 1005 1005 1005 
1005 1005 1005 1005 1005 1005 1005 1005 1005 
1005 1005 1005 1005 1005 1005 1005 1005 1005 
1005 1005 1005 1005 1005 1005 1005 1005 1005 
1005 1005 1005 1005 1005 1005 1005 1005 1005 
1005 1005 1005 1005 1005 1005 1005 1005 1005 
1005 1005 1005 1005 1005 1005 1005 1005 1005 
1005 1005 1005 1005 1005 1005 1005 1005 1005 
1005 1005 1005 1005 1005 1005 1005 1005 1005 
1005 1005 1005 1005 1005 1005 1005 1005 1005 
1005 1005 1005 1005 1005 1005 1005 1005 1005 
1005 1005 1005 1005 1005 1005 1005 1005 1005 
1005 1005 1005 1005 1005 1005 1005 1005 1005 
1005 1005 1005 1005 1005 1005 1005 1005 1005 
1005 1005 1005 1005 1005 1005 1005 1005 1005 
1005 1005 1005 1005 1005 1005 1005 1005 1005 
1005 1005 1005 1005 1005 1005 1005 1005 1005 
1005 1005 1005 1005 1005 1005 1005 1005 1005 
1005 1005 1005 1005 1005 1005 1005 1005 1005 
1005 1005 1005 1005 1005 1005 1005 1005 1005 
1005 1005 1005 1005 1005 1005 1005 1005 1005 
1005 1005 1005 1005 1005 1005 1005 1005 1005 
1005 1005 1005 1005 1005 1005 1005 1005 1005 
1005 1005 1005 1005 1005 1005 1005 1005 1005 
1005 1005 1005 1005 1005 1005 1005 1005 1005 
1005 1005 1005 1005 1005 1005 1005 1005 1005 
1005 1005 1005 1005 1005 1005 1005 1005 1005 
1005 1005 1005 1005 1005 1005 1005 1005 1005 
1005 1005 1005 1005 1005 1005 1005 1005 1005 
1005 1005 1005 1005 1005 1005 1005 1005 1005 
1005 1005 1005 1005 1005 1005 1005 1005 1005 
1005 1005 1005 1005 1005 1005 1005 1005 1005 
1005 1005 1005 1005 1005 1005 1005 1005 1005 
1005 1005 1005 1005 1005 1005 1005 1005 1005 
1005 1005 1005 1005 1005 1005 1005 1005 1005 
1005 1005 1005 1005 1005 1005 1005 1005 1005 
1005 1005 1005 1005 1005 1005 1005 1005 1005 
1005 1005 1005 1005 1005 1005 1005 1005 1005 
1005 1005 1005 1005 1005 1005 1005 1005 1005 
1005 1005 1005 1005 1005 1005 1005 1005 1005 
1005 1005 1005 1005 1005 1005 1005 1005 1005 
1005 1005 1005 1005 1005 1005 1005 1005 1005 
1005 1005 1005 1005 1005 1005 1005 1005 1005 
1005 1005 1005 1005 1005 1005 1005 1005 1005 
1005 1005 1005 1005 1005 1005 1005 1005 1005 
1005 1005 1005 1005 1005 1005 1005 1005 1005 
1005 1005 1005 1005 1005 1005 1005 1005 1005 
1005 1005 1005 1005 1005 1005 1005 1005 1005 
1005 1005 1005 1005 1005 1005 1005 1005 1005 
1005 1005 1005 1005 1005 1005 1005 1005 1005 
1005 1005 1005 1005 1005 1005 1005 1005 1005 
1005 1005 1005 1005 1005 1005 1005 1005 1005 
1005 1005 1005 1005 1005 1005 1005 1005 1005 
1005 1005 1005 1005 1005 1005 1005 1005 1005 
1005 1005 1005 1005 1005 1005 1005 1005 1005 
1005 1005 1005 1005 1005 1005 1005 1005 1005 
1005 1005 1005 1005 1005 1005 1005 1005 1005 
1005 1005 1005 1005 1005 1005 1005 1005 1005 
1005 1005 1005 1005 1005 1005 1005 1005 1005 
1005 1005 1005 1005 1005 1005 1005 1005 1005 
1005 1005 1005 1005 1005 1005 1005 1005 1005 
1005 1005 1005 1005 1005 1005 1005 1005 1005 
1005 1005 1005 1005 1005 1005 1005 1005 1005 
1005 1005 1005 1005 1005 1005 1005 1005 1005 
1005 1005 1005 1005 1005 1005 1005 1005 1005 
1005 1005 1005 1005 1005 1005 1005 1005 1005 
1005 1005 1005 1005 1005 1005 1005 1005 1005 
1005 1005 1005 1005 1005 1005 1005 1005 1005 
1005 1005 1005 1005 1005 1005 1005 1005 1005 
1005 1005 1005 1005 1005 1005 1005 1005 1005 
1005 1005 1005 1005 1005 1005 1005 1005 1005 
1005 1005 1005 1005 1005 1005 1005 1005 1005 
1005 1005 1005 1005 1005 1005 1005 1005 1005 
1005 1005 1005 1005 1005 1005 1005 1005 1005 
1005 1005 1005 1005 1005 1005 1005 1005 1005 
1005 1005 1005 1005 1005 1005 1005 1005 1005 
1005 1005 1005 1005 1005 1005 1005 1005 1005 
1005 1005 1005 1005 1005 1005 1005 1005 1005 
1005 1005 1005 1005 1005 1005 1005 1005 1005 
1005 1005 1005 1005 1005 1005 1005 1005 1005 
1005 1005 1005 1005 1005 1005 1005 1005 1005 
1005 1005 1005 1005 1005 1005 1005 1005 1005 
1005 1005 1005 1005 1005 1005 1005 1005 1005 
1005 1005 1005 1005 1005 1005 1005 1005 1005 
1005 1005 1005 1005 1005 1005 1005 1005 1005 
1005 1005 1005 1005 1005 1005 1005 1005 1005 
1005 1005 1005 1005 1005 1005 1005 1005 1005 
1005 1005 1005 1005 1005 1005 1005 1005 1005 
1005 1005 1005 1005 1005 1005 1005 1005 1005 
1005 1005 1005 1005 1005 1005 1005 1005 1005 
1005 1005 1005 1005 1005 1005 1005 1005 1005 
1005 1005 1005 1005 1005 1005 1005 1005 1005 
1005 1005 1005 1005 1005 1005 1005 1005 1005 
1005 1005 1005 1005 1005 1005 1005 1005 1005 
1005 1005 1005 1005 1005 1005 1005 1005 1005 
1005 1005 1005 1005 1005 1005 1005 1005 1005 
1005 1005 1005 1005 1005 1005 1005 1005 1005 
1005 1005 1005 1005 1005 1005 1005 1005 1005 
1005 1005 1005 1005 1005 1005 1005 1005 1005 
1005 1005 1005 1005 1005 1005 1005 1005 1005 
1005 1005 1005 1005 1005 1005 1005 1005 1005 
1005 1005 1005 1005 1005 1005 1005 1005 1005 
1005 1005 1005 1005 1005 1005 1005 1005 1005 
1005 1005 1005 1005 1005 1005 1005 1005 1005 
1005 1005 1005 1005 1005 1005 1005 1005 1005 
1005 1005 1005 1005 1005 1005 1005 1005 1005 
1005 1005 1005 1005 1005 1005 1005 1005 1005 
1005 1005 1005 1005 1005 1005 1005 1005 1005 
1005 1005 1005 1005 1005 1005 1005 1005 1005 
1005 1005 1005 1005 1005 1005 1005 1005 1005 
1005 1005 1005 1005 1005 1005 1005 1005 1005 
1005 1005 1005 1005 1005 1005 1005 1005 1005 
1005 1005 1005 1005 1005 1005 1005 1005 1005 
1005 1005 1005 1005 1005 1005 1005 1005 1005 
1005 1005 1005 1005 1005 1005 1005 1005 1005 
1005 1005 1005 1005 1005 1005 1005 1005 1005 
1005 1005 1005 1005 1005 1005 1005 1005 1005 
1005 1005 1005 1005 1005 1005 1005 1005 1005 
1005 1005 1005 1005 1005 1005 1005 1005 1005 
1005 1005 1005 1005 1005 1005 1005 1005 1005 
1005 1005 1005 1005 1005 1005 1005 1005 1005 
1005 1005 1005 1005 1005 1005 1005 1005 1005 
1005 1005 1005 1005 1005 1005 1005 1005 1005 
1005 1005 1005 1005 1005 1005 1005 1005 1005 
1005 1005 1005 1005 1005 1005 1005 1005 1005 
1005 1005 1005 1005 1005 1005 1005 1005 1005 
1005 1005 1005 1005 1005 1005 1005 1005 1005 
1005 1005 1005 1005 1005 1005 1005 1005 1005 
1005 1005 1005 1005 1005 1005 1005 1005 1005 
1005 1005 1005 1005 1005 1005 1005 1005 1005 
1005 1005 1005 1005 1005 1005 1005 1005 1005 
1005 1005 1005 1005 1005 1005 1005 1005 1005 
1005 1005 1005 1005 1005 1005 1005 1005 1005 
1005 1005 1005 1005 1005 1005 1005 1005 1005 
1005 1005 1005 1005 1005 1005 1005 1005 1005 
1005 1005 1005 1005 1005 1005 1005 1005 1005 
1005 1005 1005 1005 1005 1005 1005 1005 1005 
1005 1005 1005 1005 1005 1005 1005 1005 1005 
1005 1005 1005 1005 1005 1005 1005 1005 1005 
1005 1005 1005 1005 1005 1005 1005 1005 1005 
1005 1005 1005 1005 1005 1005 1005 1005 1005 
1005 1005 1005 1005 1005 1005 1005 1005 1005 
1005 1005 1005 1005 1005 1005 1005 1005 1005 
1005 1005 1005 1005 1005 1005 1005 1005 1005 
1005 1005 1005 1005 1005 1005 1005 1005 1005 
1005 1005 1005 1005 1005 1005 1005 1005 1005 
1005 1005 1005 1005 1005 1005 1005 1005 1005 
1005 1005 1005 1005 1005 1005 1005 1005 1005 
1005 1005 1005 1005 1005 1005 1005 1005 1005 
1005 1005 1005 1005 1005 1005 1005 1005 1005 
1005 1005 1005 1005 1005 1005 1005 1005 1005 
1005 1005 1005 1005 1005 1005 1005 1005 1005 
1005 1005 1005 1005 1005 1005 1005 1005 1005 
1005 1005 1005 1005 1005 1005 1005 1005 1005 
1005 1005 1005 1005 1005 1005 1005 1005 1005 
1005 1005 1005 1005 1005 1005 1005 1005 1005 
1005 1005 1005 1005 1005 1005 1005 1005 1005 
1005 1005 1005 1005 1005 1005 1005 1005 1005 
1005 1005 1005 1005 1005 1005 1005 1005 1005 
1005 1005 1005 1005 1005 1005 1005 1005 1005 
1005 1005 1005 1005 1005 1005 1005 1005 1005 
1005 1005 1005 1005 1005 1005 1005 1005 1005 
1005 1005 1005 1005 1005 1005 1005 1005 1005 
1005 1005 1005 1005 1005 1005 1005 1005 1005 
1005 1005 1005 1005 1005 1005 1005 1005 1005 
1005 1005 1005 1005 1005 1005 1005 1005 1005 
1005 1005 1005 1005 1005 1005 1005 1005 1005 
1005 1005 1005 1005 1005 1005 1005 1005 1005 
1005 1005 1005 1005 1005 1005 1005 1005 1005 
1005 1005 1005 1005 1005 1005 1005 1005 1005 
1005 1005 1005 1005 1005 1005 1005 1005 1005 
1005 1005 1005 1005 1005 1005 1005 1005 1005 
1005 1005 1005 1005 1005 1005 1005 1005 1005 
1005 1005 1005 1005 1005 1005 1005 1005 1005 
1005 1005 1005 1005 1005 1005 1005 1005 1005 
1005 1005 1005 1005 1005 1005 1005 1005 1005 
1005 1005 1005 1005 1005 1005 1005 1005 1005 
1005 1005 1005 1005 1005 1005 1005 1005 1005 
1005 1005 1005 1005 1005 1005 1005 1005 1005 
1005 1005 1005 1005 1005 1005 1005 1005 1005 
1005 1005 1005 1005 1005 1005 1005 1005 1005 
1005 1005 1005 1005 1005 1005 1005 1005 1005 
1005 1005 1005 1005 1005 1005 1005 1005 1005 
1005 1005 1005 1005 1005 1005 1005 1005 1005 
1005 1005 1005 1005 1005 1005 1005 1005 1005 
1005 1005 1005 1005 1005 1005 1005 1005 1005 
1005 1005 1005 1005 1005 1005 1005 1005 1005 
1005 1005 1005 1005 1005 1005 1005 1005 1005 
1005 1005 1005 1005 1005 1005 1005 1005 1005 
1005 1005 1005 1005 1005 1005 1005 1005 1005 
1005 1005 1005 1005 1005 1005 1005 1005 1005 
1005 1005 1005 1005 1005 1005 1005 1005 1005 
1005 1005 1005 1005 1005 1005 1005 1005 1005 
1005 1005 1005 1005 1005 1005 1005 1005 1005 
1005 1005 1005 1005 1005 1005 1005 1005 1005 
1005 1005 1005 1005 1005 1005 1005 1005 1005 
1005 1005 1005 1005 1005 1005 1005 1005 1005 
1005 1005 1005 1005 1005 1005 1005 1005 1005 
1005 1005 1005 1005 1005 1005 1005 1005 1005 
1005 1005 1005 1005 1005 1005 1005 1005 1005 
1005 1005 1005 1005 1005 1005 1005 1005 1005 
1005 1005 1005 1005 1005 1005 1005 1005 1005 
1005 1005 1005 1005 1005 1005 1005 1005 1005 
1005 1005 1005 1005 1005 1005 1005 1005 1005 
1005 1005 1005 1005 1005 1005 1005 1005 1005 
1005 1005 1005 1005 1005 1005 1005 1005 1005 
1005 1005 1005 1005 1005 1005 1005 1005 1005 
1005 1005 1005 1005 1005 1005 1005 1005 1005 
1005 1005 1005 1005 1005 1005 1005 1005 1005 
1005 1005 1005 1005 1005 1005 1005 1005 1005 
1005 1005 1005 1005 1005 1005 1005 1005 1005 
1005 1005 1005 1005 1005 1005 1005 1005 1005 
1005 1005 1005 1005 1005 1005 1005 1005 1005 
1005 1005 1005 1005 1005 1005 1005 1005 1005 
1005 1005 1005 1005 1005 1005 1005 1005 1005 
1005 1005 1005 1005 1005 1005 1005 1005 1005 