# vtk DataFile Version 4.2
vtk output
ASCII
DATASET POLYDATA
POINTS 17422 float
53.0037 41.8426 20.4312 53.2844 41.5311 20.9642 53.7348 41.465 20.3549 
52.0466 41.9308 20.4079 52.6297 41.546 21.087 51.081 41.856 20.265 
51.6519 41.5385 21.0094 50.8711 41.4871 20.7102 53.1828 41.9178 19.4954 
53.8621 41.5526 19.2058 52.288 42.0834 19.512 51.2583 42.069 19.4736 
50.4148 41.6387 20.1042 50.3741 41.8514 19.4223 49.9085 41.4946 19.5542 
53.2103 41.9232 18.4509 53.8373 41.5727 18.1584 52.5057 42.0828 18.641 
51.5841 41.9896 18.4052 50.554 41.8462 18.5722 49.7358 41.3388 18.5342 
53.2941 41.8135 17.6548 53.6645 41.494 17.3356 52.4894 41.8855 17.6966 
51.7084 41.6521 17.5797 50.9496 41.5652 17.837 50.2373 41.3869 17.9353 
52.9792 41.3618 16.9953 52.104 41.3012 17.1415 53.2507 41.0272 21.3719 
53.1938 40.5291 21.9491 53.8118 40.5157 21.5227 52.0781 41.0331 21.5699 
52.374 40.4203 22.0503 50.9922 41.0276 21.3672 51.2974 40.385 21.9041 
50.0754 40.8194 21.2588 50.3795 40.3606 21.8233 49.7117 40.3731 21.6212 
54.3004 40.898 20.5471 54.5109 40.4412 20.9262 54.937 40.5685 20.3223 
50.1535 41.2245 20.4524 49.4372 40.5854 21.1198 49.4344 40.8415 20.4445 
48.9326 40.4561 20.6044 55.013 40.8283 19.5559 55.4135 40.3468 20.032 
55.6548 40.3732 19.3605 54.3663 41.1799 19.6805 49.3651 41.0275 19.3514 
48.779 40.5285 19.7254 55.1952 40.8771 18.4834 55.8462 40.4074 18.3543 
54.4893 41.1884 18.7357 49.2248 40.8959 18.4942 48.7452 40.3226 18.5307 
55.202 40.8257 17.517 55.679 40.4888 17.369 54.3687 41.1675 17.5691 
51.3607 41.2188 17.3492 50.5948 40.9772 17.4301 49.8299 40.78 17.6103 
49.2483 40.5301 17.9016 55.158 40.6193 16.8317 54.7039 40.4801 16.2346 
54.4919 40.8406 16.692 53.6269 40.9711 16.5952 52.7629 40.4131 16.3449 
52.2427 40.6475 16.7691 51.1897 40.4644 16.9656 50.0956 40.2227 17.1505 
53.9641 40.5012 15.9602 53.2707 40.3492 15.9175 53.1684 40.0203 22.345 
53.3225 39.2093 22.8926 53.8785 39.6056 22.4086 52.1798 39.8709 22.4552 
52.4893 39.5215 22.786 51.8224 39.1835 22.5046 55.0814 39.7586 21.5199 
55.2421 39.4982 21.8652 55.7022 39.4562 21.3113 54.3116 40.0121 21.6472 
54.6489 39.5338 22.1007 51.4799 39.6952 22.1644 50.5913 39.4615 22.121 
48.9606 40.0824 21.3516 49.5836 39.6918 22.0489 48.2787 39.7409 21.2813 
48.6208 39.5152 21.9534 47.9718 39.4106 21.6198 55.1746 40.0635 20.7986 
55.8617 39.6999 20.1958 48.208 40.0166 20.3329 47.6841 39.5082 20.8373 
56.058 39.784 19.2767 48.2642 40.1802 19.2949 47.4199 39.5887 20.0722 
47.6187 39.7782 19.3379 47.0141 39.4322 19.5953 56.2683 39.8586 18.5826 
56.3986 39.3393 19.091 56.611 39.3725 18.4285 48.1181 39.8946 18.65 
47.6248 39.3175 18.4004 47.1232 39.4086 19.0215 56.2115 40.0377 17.6174 
56.6781 39.3889 17.4739 49.418 40.0814 17.3493 48.8495 39.7231 17.5826 
48.2706 39.4627 17.9345 56.1949 39.8457 16.5668 56.6618 39.2145 16.3834 
55.4602 40.2355 16.4949 52.2034 40.1174 16.4874 51.6243 39.9509 16.5225 
50.8125 39.4003 16.4198 50.1756 39.4172 16.819 49.2231 39.329 17.1055 
56.1815 39.6127 15.8752 55.8184 39.3183 15.2703 55.5352 39.8337 15.7168 
54.5597 40.0151 15.5889 53.5708 39.9178 15.4272 52.8173 39.7568 15.6305 
52.0488 39.6312 15.9931 51.2903 39.3341 16.026 54.9492 39.3714 15.1359 
54.0978 39.4788 15.0937 53.3297 39.3099 15.0708 55.2513 39.0447 22.3184 
55.3898 38.1798 22.8533 55.9742 38.6057 22.3979 54.2341 39.1991 22.6401 
54.1791 38.508 22.9493 53.1262 38.3582 23.0585 52.4175 38.7435 22.8863 
51.7741 38.1664 22.4812 49.9382 38.9231 22.4996 50.1587 38.116 22.7675 
50.5895 38.5435 22.3823 49.0405 39.0347 22.5364 49.4467 38.4801 22.8748 
48.011 39.0286 22.3719 48.589 38.3947 23.0566 47.0018 38.9393 22.3559 
47.3937 38.4561 23.0416 46.3026 38.8148 22.2719 46.5382 38.5765 22.7733 
46.0465 38.3381 22.506 56.1756 38.875 21.7157 56.4512 38.3779 22.1218 
56.6511 38.3324 21.4426 51.1812 38.59 22.2077 47.2453 39.1422 21.3925 
46.4268 38.8962 21.5185 45.8052 38.367 21.7998 56.3245 38.9785 20.766 
56.6971 38.3487 20.4754 46.9986 39.2207 20.2731 46.4271 38.8839 20.4634 
45.8113 38.5094 20.7902 56.3406 39.0723 19.8188 56.8086 38.5466 19.3259 
46.5149 38.9896 19.314 45.7824 38.4927 19.7514 56.9596 38.675 18.2061 
47.0082 39.0676 18.58 46.4994 38.7414 18.4739 45.8494 38.4744 18.8009 
56.9709 38.6565 17.2034 48.449 39.0233 17.3741 47.8511 38.7224 17.6114 
47.032 38.5972 17.9375 46.1916 38.3941 18.1257 57.0056 38.5276 16.2967 
50.3334 39.0084 16.514 49.8282 38.3722 16.3817 49.2495 38.5729 16.787 
48.3851 38.5029 17.0829 56.4139 39.1981 15.5281 56.8545 38.6437 15.3424 
52.4667 39.2095 15.2023 51.5937 38.9683 15.2989 50.7733 38.4809 15.4932 
50.3236 38.4919 16.0277 56.2246 38.7699 14.7945 56.6667 38.4409 14.3764 
55.3318 38.6547 14.7679 55.8292 38.4686 14.4843 54.2297 38.8091 14.7943 
53.2352 38.8382 14.6656 53.9206 38.3028 14.4195 52.3471 38.8107 14.6153 
51.6916 38.6084 14.6238 51.1927 38.3792 14.8755 56.1687 38.4047 14.1991 
53.1051 38.2325 14.1771 52.0702 38.2746 14.1842 48.0041 37.9908 23.5346 
48.3794 37.2286 23.8785 48.7619 37.7383 23.498 47.2012 37.9017 23.4782 
47.3701 37.4093 23.8272 46.7079 37.3848 23.606 56.2231 38.0966 22.6085 
56.1166 37.3434 22.8621 56.6592 37.7128 22.238 55.1975 37.333 23.0258 
54.3215 37.5046 23.0195 53.2888 37.4855 23.0384 52.2861 37.5632 22.8922 
51.6246 37.322 22.5442 50.5044 37.2213 22.836 50.8467 37.7667 22.4454 
49.5364 37.5392 23.1676 46.2983 37.632 23.1146 45.6623 37.5818 22.4309 
56.9602 37.5037 21.3537 51.3519 37.6553 22.2822 45.1851 37.5084 21.9727 
45.0894 38.0084 21.2582 44.1333 37.7829 21.2068 44.4247 37.3462 21.7639 
43.7384 37.3134 21.5665 41.2161 37.784 21.1909 41.1785 37.2638 21.8019 
41.8955 37.4012 21.5548 40.7138 37.3565 21.6317 57.0338 37.7548 20.2603 
45.1513 38.1522 20.2384 44.3111 38.0111 20.4826 43.3914 37.5745 21.1556 
43.2349 37.9093 20.4994 42.0664 37.9118 20.5471 42.667 37.5449 21.0962 
41.1766 38.0309 20.3432 40.4037 37.6232 21.2347 40.2477 37.9465 20.5172 
39.1109 37.8708 20.2963 39.6153 37.5589 21.0034 38.8125 37.216 20.7027 
57.2373 37.8424 19.531 57.3974 37.3491 20.0492 57.5948 37.3526 19.4071 
45.1545 38.1279 19.2239 44.3267 37.9946 19.5015 43.3197 38.0201 19.5126 
42.2886 38.0407 19.4767 41.3155 38.0414 19.4895 40.3387 38.0393 19.5116 
39.2814 38.048 19.5111 38.338 37.5794 20.1404 38.1481 37.9672 19.5125 
37.2694 37.8263 19.283 37.6212 37.3975 19.7535 37.095 37.4189 19.4015 
57.3019 38.007 18.7406 57.6562 37.3675 18.4793 51.1183 37.8222 18.5393 
51.645 37.5614 18.2912 51.2017 37.2461 18.8483 50.5033 37.5668 18.904 
50.3675 37.8501 18.3497 49.6391 37.4076 18.9816 49.4822 37.7376 18.4417 
49.0028 37.5064 18.7045 45.468 38.1131 18.2669 44.5723 37.8524 18.4426 
43.4299 37.8604 18.5275 42.3242 38.0158 18.4844 41.3081 38.0303 18.4502 
40.2919 38.0284 18.4557 39.2679 38.0505 18.4512 38.2308 38.0825 18.4712 
37.2755 38.014 18.4736 36.7067 37.5937 18.6005 57.3164 38.0271 17.7593 
57.6501 37.3605 17.463 51.2816 37.8033 17.8351 51.7675 37.3903 17.5351 
50.7194 37.6703 17.5964 49.9159 37.5778 17.8596 49.1543 37.4966 18.1616 
47.5088 38.1508 17.1965 46.3145 37.9725 17.3256 45.1935 37.8313 17.5108 
44.6138 37.5386 17.605 43.9686 37.4686 17.9436 43.2282 37.5337 17.8564 
42.7016 37.3996 17.3289 42.4915 37.7774 17.7493 41.5154 37.8677 17.6011 
40.3656 37.9123 17.4473 39.2749 38.0424 17.4239 38.2459 38.0779 17.3932 
37.3906 38.0808 17.5531 36.5393 37.8086 17.3915 36.1953 37.5721 17.9485 
35.9295 37.2627 17.6826 57.3089 38.0049 16.7652 57.6558 37.3565 16.4636 
51.2358 37.5048 17.1853 49.2308 38.0591 16.4869 48.422 37.9427 16.5842 
47.362 37.7388 16.6185 46.691 37.5694 16.6231 46.1187 37.5882 16.6942 
45.702 37.438 16.2847 45.5225 37.7013 16.7521 44.8393 37.485 16.8267 
41.9204 37.4846 17.0393 40.9847 37.52 16.928 40.2024 37.5921 16.781 
39.8616 37.3599 16.375 39.4822 37.8254 16.7121 38.5145 37.9121 16.5363 
37.4013 37.888 16.5709 36.6917 37.5307 16.473 36.1498 37.1921 16.9137 
57.3237 38.0144 15.7526 57.6798 37.3714 15.4688 50.2986 37.9674 15.5055 
49.8072 37.4498 15.5008 49.1129 37.5577 15.9873 48.0713 37.44 16.0006 
47.2186 37.4036 16.1495 45.1395 37.4184 16.229 39.0679 37.2853 16.0922 
37.9904 37.3989 15.9964 37.2192 37.3397 16.072 57.216 38.0353 14.5741 
57.6896 37.3669 14.4662 55.537 38.1924 14.179 54.6809 38.0359 14.2941 
51.4065 38.1113 14.3857 50.7737 37.4706 14.4523 50.294 37.4408 14.982 
57.208 37.8217 13.5599 57.6538 37.1857 13.4009 56.2893 38.122 13.5974 
55.0662 37.8802 13.423 54.5507 37.5568 13.6599 53.9927 37.6194 13.9476 
53.1705 37.4813 13.8199 52.3106 37.6227 13.8419 51.4355 37.5276 13.9604 
57.1788 37.5929 12.881 56.7361 37.4881 12.2961 56.5301 37.8477 12.7159 
55.5308 37.9002 12.5922 54.4422 37.5392 13.0446 54.6 37.7231 12.5047 
53.8936 37.1848 12.4063 55.964 37.5463 11.9962 55.0001 37.5301 11.9102 
54.261 37.3438 11.9295 49.1826 37.1381 23.6224 49.1183 36.3555 23.8697 
49.6948 36.4677 23.3281 48.202 36.378 24.0626 47.3207 36.5318 24.0251 
46.2591 37.0256 23.5426 46.3877 36.5729 23.8404 45.7719 36.4929 23.5053 
56.2617 36.6185 23.0094 56.8501 36.7409 22.4552 55.578 36.639 23.1419 
54.4219 36.5234 23.105 53.3099 36.4728 23.0049 52.2839 36.4624 22.9825 
51.151 37.155 22.5394 51.3283 36.7046 22.8496 50.321 36.4131 22.917 
45.1538 36.8762 22.3801 45.2984 36.4491 22.9804 44.7401 36.2564 22.5387 
42.2097 36.8214 22.1737 42.4092 36.1265 22.7749 42.8498 36.5399 22.3132 
41.6833 36.3273 22.5938 57.3009 36.807 21.596 57.4342 36.3338 22.0824 
57.6499 36.3553 21.4223 44.5374 36.6989 22.1636 42.9756 37.0751 21.6632 
43.6416 36.6447 22.0577 42.4154 37.2237 21.591 41.271 36.6332 22.1599 
39.9668 37.1151 21.5706 40.4735 36.7274 21.9256 39.2756 37.0205 21.358 
39.5878 36.4667 21.7399 38.9784 36.3854 21.1803 57.3496 37.056 20.812 
57.7038 36.5501 20.4345 47.3702 36.8221 20.2681 47.8421 36.5941 20.4481 
47.286 36.2538 20.8429 46.8332 36.4157 20.6026 38.5552 36.3338 20.5297 
57.8073 36.5274 19.4473 48.9259 37.0176 19.3946 49.5514 36.4268 19.3239 
49.0474 36.2532 19.7941 48.4379 36.4615 20.1028 48.0227 36.9896 19.5935 
47.2934 36.9108 19.4037 46.7609 36.5809 19.82 37.9671 36.5594 20.0141 
[...]
CELL_DATA 34892
SCALARS scalars float
LOOKUP_TABLE default
2024 2024 2024 2024 2024 2024 2024 2024 2024 
2024 2024 2024 2024 2024 2024 2024 2024 2024 
2024 2024 2024 2024 2024 2024 2024 2024 2024 
2024 2024 2024 2024 2024 2024 2024 2024 2024 
2024 2024 2024 2024 2024 2024 2024 2024 2024 
2024 2024 2024 2024 2024 2024 2024 2024 2024 
2024 2024 2024 2024 2024 2024 2024 2024 2024 
2024 2024 2024 2024 2024 2024 2024 2024 2024 
2024 2024 2024 2024 2024 2024 2024 2024 2024 
2024 2024 2024 2024 2024 2024 2024 2024 2024 
2024 2024 2024 2024 2024 2024 2024 2024 2024 
2024 2024 2024 2024 2024 2024 2024 2024 2024 
2024 2024 2024 2024 2024 2024 2024 2024 2024 
2024 2024 2024 2024 2024 2024 2024 2024 2024 
2024 2024 2024 2024 2024 2024 2024 2024 2024 
2024 2024 2024 2024 2024 2024 2024 2024 2024 
2024 2024 2024 2024 2024 2024 2024 2024 2024 
2024 2024 2024 2024 2024 2024 2024 2024 2024 
2024 2024 2024 2024 2024 2024 2024 2024 2024 
2024 2024 2024 2024 2024 2024 2024 2024 2024 
2024 2024 2024 2024 2024 2024 2024 2024 2024 
2024 2024 2024 2024 2024 2024 2024 2024 2024 
2024 2024 2024 2024 2024 2024 2024 2024 2024 
2024 2024 2024 2024 2024 2024 2024 2024 2024 
2024 2024 2024 2024 2024 2024 2024 2024 2024 
2024 2024 2024 2024 2024 2024 2024 2024 2024 
2024 2024 2024 2024 2024 2024 2024 2024 2024 
2024 2024 2024 2024 2024 2024 2024 2024 2024 
2024 2024 2024 2024 2024 2024 2024 2024 2024 
2024 2024 2024 2024 2024 2024 2024 2024 2024 
2024 2024 2024 2024 2024 2024 2024 2024 2024 
2024 2024 2024 2024 2024 2024 2024 2024 2024 
2024 2024 2024 2024 2024 2024 2024 2024 2024 
2024 2024 2024 2024 2024 2024 2024 2024 2024 
2024 2024 2024 2024 2024 2024 2024 2024 2024 
2024 2024 2024 2024 2024 2024 2024 2024 2024 
2024 2024 2024 2024 2024 2024 2024 2024 2024 
2024 2024 2024 2024 2024 2024 2024 2024 2024 
2024 2024 2024 2024 2024 2024 2024 2024 2024 
2024 2024 2024 2024 2024 2024 2024 2024 2024 
2024 2024 2024 2024 2024 2024 2024 2024 2024 
2024 2024 2024 2024 2024 2024 2024 2024 2024 
2024 2024 2024 2024 2024 2024 2024 2024 2024 
2024 2024 2024 2024 2024 2024 2024 2024 2024 
2024 2024 2024 2024 2024 2024 2024 2024 2024 
2024 2024 2024 2024 2024 2024 2024 2024 2024 
2024 2024 2024 2024 2024 2024 2024 2024 2024 
2024 2024 2024 2024 2024 2024 2024 2024 2024 
2024 2024 2024 2024 2024 2024 2024 2024 2024 
2024 2024 2024 2024 2024 2024 2024 2024 2024 
2024 2024 2024 2024 2024 2024 2024 2024 2024 
2024 2024 2024 2024 2024 2024 2024 2024 2024 
2024 2024 2024 2024 2024 2024 2024 2024 2024 
2024 2024 2024 2024 2024 2024 2024 2024 2024 
2024 2024 2024 2024 2024 2024 2024 2024 2024 
2024 2024 2024 2024 2024 2024 2024 2024 2024 
2024 2024 2024 2024 2024 2024 2024 2024 2024 
2024 2024 2024 2024 2024 2024 2024 2024 2024 
2024 2024 2024 2024 2024 2024 2024 2024 2024 
2024 2024 2024 2024 2024 2024 2024 2024 2024 
2024 2024 2024 2024 2024 2024 2024 2024 2024 
2024 2024 2024 2024 2024 2024 2024 2024 2024 
2024 2024 2024 2024 2024 2024 2024 2024 2024 
2024 2024 2024 2024 2024 2024 2024 2024 2024 
2024 2024 2024 2024 2024 2024 2024 2024 2024 
2024 2024 2024 2024 2024 2024 2024 2024 2024 
2024 2024 2024 2024 2024 2024 2024 2024 2024 
2024 2024 2024 2024 2024 2024 2024 2024 2024 
2024 2024 2024 2024 2024 2024 2024 2024 2024 
2024 2024 2024 2024 2024 2024 2024 2024 2024 
2024 2024 2024 2024 2024 2024 2024 2024 2024 
2024 2024 2024 2024 2024 2024 2024 2024 2024 
2024 2024 2024 2024 2024 2024 2024 2024 2024 
2024 2024 2024 2024 2024 2024 2024 2024 2024 
2024 2024 2024 2024 2024 2024 2024 2024 2024 
2024 2024 2024 2024 2024 2024 2024 2024 2024 
2024 2024 2024 2024 2024 2024 2024 2024 2024 
2024 2024 2024 2024 2024 2024 2024 2024 2024 
2024 2024 2024 2024 2024 2024 2024 2024 2024 
2024 2024 2024 2024 2024 2024 2024 2024 2024 
2024 2024 2024 2024 2024 2024 2024 2024 2024 
2024 2024 2024 2024 2024 2024 2024 2024 2024 
2024 2024 2024 2024 2024 2024 2024 2024 2024 
2024 2024 2024 2024 2024 2024 2024 2024 2024 
2024 2024 2024 2024 2024 2024 2024 2024 2024 
2024 2024 2024 2024 2024 2024 2024 2024 2024 
2024 2024 2024 2024 2024 2024 2024 2024 2024 
2024 2024 2024 2024 2024 2024 2024 2024 2024 
2024 2024 2024 2024 2024 2024 2024 2024 2024 
2024 2024 2024 2024 2024 2024 2024 2024 2024 
2024 2024 2024 2024 2024 2024 2024 2024 2024 
2024 2024 2024 2024 2024 2024 2024 2024 2024 
2024 2024 2024 2024 2024 2024 2024 2024 2024 
2024 2024 2024 2024 2024 2024 2024 2024 2024 
2024 2024 2024 2024 2024 2024 2024 2024 2024 
2024 2024 2024 2024 2024 2024 2024 2024 2024 
2024 2024 2024 2024 2024 2024 2024 2024 2024 
2024 2024 2024 2024 2024 2024 2024 2024 2024 
2024 2024 2024 2024 2024 2024 2024 2024 2024 
2024 2024 2024 2024 2024 2024 2024 2024 2024 
2024 2024 2024 2024 2024 2024 2024 2024 2024 
2024 2024 2024 2024 2024 2024 2024 2024 2024 
2024 2024 2024 2024 2024 2024 2024 2024 2024 
2024 2024 2024 2024 2024 2024 2024 2024 2024 
2024 2024 2024 2024 2024 2024 2024 2024 2024 
2024 2024 2024 2024 2024 2024 2024 2024 2024 
2024 2024 2024 2024 2024 2024 2024 2024 2024 
2024 2024 2024 2024 2024 2024 2024 2024 2024 
2024 2024 2024 2024 2024 2024 2024 2024 2024 
2024 2024 2024 2024 2024 2024 2024 2024 2024 
2024 2024 2024 2024 2024 2024 2024 2024 2024 
2024 2024 2024 2024 2024 2024 2024 2024 2024 
2024 2024 2024 2024 2024 2024 2024 2024 2024 
2024 2024 2024 2024 2024 2024 2024 2024 2024 
2024 2024 2024 2024 2024 2024 2024 2024 2024 
2024 2024 2024 2024 2024 2024 2024 2024 2024 
2024 2024 2024 2024 2024 2024 2024 2024 2024 
2024 2024 2024 2024 2024 2024 2024 2024 2024 
2024 2024 2024 2024 2024 2024 2024 2024 2024 
2024 2024 2024 2024 2024 2024 2024 2024 2024 
2024 2024 2024 2024 2024 2024 2024 2024 2024 
2024 2024 2024 2024 2024 2024 2024 2024 2024 
2024 2024 2024 2024 2024 2024 2024 2024 2024 
2024 2024 2024 2024 2024 2024 2024 2024 2024 
2024 2024 2024 2024 2024 2024 2024 2024 2024 
2024 2024 2024 2024 2024 2024 2024 2024 2024 
2024 2024 2024 2024 2024 2024 2024 2024 2024 
2024 2024 2024 2024 2024 2024 2024 2024 2024 
2024 2024 2024 2024 2024 2024 2024 2024 2024 
2024 2024 2024 2024 2024 2024 2024 2024 2024 
2024 2024 2024 2024 2024 2024 2024 2024 2024 
2024 2024 2024 2024 2024 2024 2024 2024 2024 
2024 2024 2024 2024 2024 2024 2024 2024 2024 
2024 2024 2024 2024 2024 2024 2024 2024 2024 
2024 2024 2024 2024 2024 2024 2024 2024 2024 
2024 2024 2024 2024 2024 2024 2024 2024 2024 
2024 2024 2024 2024 2024 2024 2024 2024 2024 
2024 2024 2024 2024 2024 2024 2024 2024 2024 
2024 2024 2024 2024 2024 2024 2024 2024 2024 
2024 2024 2024 2024 2024 2024 2024 2024 2024 
2024 2024 2024 2024 2024 2024 2024 2024 2024 
2024 2024 2024 2024 2024 2024 2024 2024 2024 
2024 2024 2024 2024 2024 2024 2024 2024 2024 
2024 2024 2024 2024 2024 2024 2024 2024 2024 
2024 2024 2024 2024 2024 2024 2024 2024 2024 
2024 2024 2024 2024 2024 2024 2024 2024 2024 
2024 2024 2024 2024 2024 2024 2024 2024 2024 
2024 2024 2024 2024 2024 2024 2024 2024 2024 
2024 2024 2024 2024 2024 2024 2024 2024 2024 
2024 2024 2024 2024 2024 2024 2024 2024 2024 
2024 2024 2024 2024 2024 2024 2024 2024 2024 
2024 2024 2024 2024 2024 2024 2024 2024 2024 
2024 2024 2024 2024 2024 2024 2024 2024 2024 
2024 2024 2024 2024 2024 2024 2024 2024 2024 
2024 2024 2024 2024 2024 2024 2024 2024 2024 
2024 2024 2024 2024 2024 2024 2024 2024 2024 
2024 2024 2024 2024 2024 2024 2024 2024 2024 
2024 2024 2024 2024 2024 2024 2024 2024 2024 
2024 2024 2024 2024 2024 2024 2024 2024 2024 
2024 2024 2024 2024 2024 2024 2024 2024 2024 
2024 2024 2024 2024 2024 2024 2024 2024 2024 
2024 2024 2024 2024 2024 2024 2024 2024 2024 
2024 2024 2024 2024 2024 2024 2024 2024 2024 
2024 2024 2024 2024 2024 2024 2024 2024 2024 
2024 2024 2024 2024 2024 2024 2024 2024 2024 
2024 2024 2024 2024 2024 2024 2024 2024 2024 
2024 2024 2024 2024 2024 2024 2024 2024 2024 
2024 2024 2024 2024 2024 2024 2024 2024 2024 
2024 2024 2024 2024 2024 2024 2024 2024 2024 
2024 2024 2024 2024 2024 2024 2024 2024 2024 
2024 2024 2024 2024 2024 2024 2024 2024 2024 
2024 2024 2024 2024 2024 2024 2024 2024 2024 
2024 2024 2024 2024 2024 2024 2024 2024 2024 
2024 2024 2024 2024 2024 2024 2024 2024 2024 
2024 2024 2024 2024 2024 2024 2024 2024 2024 
2024 2024 2024 2024 2024 2024 2024 2024 2024 
2024 2024 2024 2024 2024 2024 2024 2024 2024 
2024 2024 2024 2024 2024 2024 2024 2024 2024 
2024 2024 2024 2024 2024 2024 2024 2024 2024 
2024 2024 2024 2024 2024 2024 2024 2024 2024 
2024 2024 2024 2024 2024 2024 2024 2024 2024 
2024 2024 2024 2024 2024 2024 2024 2024 2024 
2024 2024 2024 2024 2024 2024 2024 2024 2024 
2024 2024 2024 2024 2024 2024 2024 2024 2024 
2024 2024 2024 2024 2024 2024 2024 2024 2024 
2024 2024 2024 2024 2024 2024 2024 2024 2024 
2024 2024 2024 2024 2024 2024 2024 2024 2024 
2024 2024 2024 2024 2024 2024 2024 2024 2024 
2024 2024 2024 2024 2024 2024 2024 2024 2024 
2024 2024 2024 2024 2024 2024 2024 2024 2024 
2024 2024 2024 2024 2024 2024 2024 2024 2024 
2024 2024 2024 2024 2024 2024 2024 2024 2024 
2024 2024 2024 2024 2024 2024 2024 2024 2024 
2024 2024 2024 2024 2024 2024 2024 2024 2024 
2024 2024 2024 2024 2024 2024 2024 2024 2024 
2024 2024 2024 2024 2024 2024 2024 2024 2024 
2024 2024 2024 2024 2024 2024 2024 2024 2024 
2024 2024 2024 2024 2024 2024 2024 2024 2024 
2024 2024 2024 2024 2024 2024 2024 2024 2024 
2024 2024 2024 2024 2024 2024 2024 2024 2024 
2024 2024 2024 2024 2024 2024 2024 2024 2024 
2024 2024 2024 2024 2024 2024 2024 2024 2024 
2024 2024 2024 2024 2024 2024 2024 2024 2024 
2024 2024 2024 2024 2024 2024 2024 2024 2024 
2024 2024 2024 2024 2024 2024 2024 2024 2024 
2024 2024 2024 2024 2024 2024 2024 2024 2024 
2024 2024 2024 2024 2024 2024 2024 2024 2024 
2024 2024 2024 2024 2024 2024 2024 2024 2024 
2024 2024 2024 2024 2024 2024 2024 2024 2024 
2024 2024 2024 2024 2024 2024 2024 2024 2024 
2024 2024 2024 2024 2024 2024 2024 2024 2024 
2024 2024 2024 2024 2024 2024 2024 2024 2024 
2024 2024 2024 2024 2024 2024 2024 2024 2024 
2024 2024 2024 2024 2024 2024 2024 2024 2024 
2024 2024 2024 2024 2024 2024 2024 2024 2024 
2024 2024 2024 2024 2024 2024 2024 2024 2024 
2024 2024 2024 2024 2024 2024 2024 2024 2024 
2024 2024 2024 2024 2024 2024 2024 2024 2024 
2024 2024 2024 2024 2024 2024 2024 2024 2024 
2024 2024 2024 2024 2024 2024 2024 2024 2024 
2024 2024 2024 2024 2024 2024 2024 2024 2024 
2024 2024 2024 2024 2024 2024 2024 2024 2024 
2024 2024 2024 2024 2024 2024 2024 2024 2024 
2024 2024 2024 2024 2024 2024 2024 2024 2024 
2024 2024 2024 2024 2024 2024 2024 2024 2024 
2024 2024 2024 2024 2024 2024 2024 2024 2024 
2024 2024 2024 2024 2024 2024 2024 2024 2024 
2024 2024 2024 2024 2024 2024 2024 2024 2024 
2024 2024 2024 2024 2024 2024 2024 2024 2024 
2024 2024 2024 2024 2024 2024 2024 2024 2024 
2024 2024 2024 2024 2024 2024 2024 2024 2024 
2024 2024 2024 2024 2024 2024 2024 2024 2024 
2024 2024 2024 2024 2024 2024 2024 2024 2024 
2024 2024 2024 2024 2024 2024 2024 2024 2024 
2024 2024 2024 2024 2024 2024 2024 2024 2024 
2024 2024 2024 2024 2024 2024 2024 2024 2024 
2024 2024 2024 2024 2024 2024 2024 2024 2024 
2024 2024 2024 2024 2024 2024 2024 2024 2024 
2024 2024 2024 2024 2024 2024 2024 2024 2024 
2024 2024 2024 2024 2024 2024 2024 2024 2024 
2024 2024 2024 2024 2024 2024 2024 2024 2024 
2024 2024 2024 2024 2024 2024 2024 2024 2024 
2024 2024 2024 2024 2024 2024 2024 2024 2024 
2024 2024 2024 2024 2024 2024 2024 2024 2024 
2024 2024 2024 2024 2024 2024 2024 2024 2024 
2024 2024 2024 2024 2024 2024 2024 2024 2024 
2024 2024 2024 2024 2024 2024 2024 2024 2024 
2024 2024 2024 2024 2024 2024 2024 2024 2024 
2024 2024 2024 2024 2024 2024 2024 2024 2024 
2024 2024 2024 2024 2024 2024 2024 2024 2024 
2024 2024 2024 2024 2024 2024 2024 2024 2024 
2024 2024 2024 2024 2024 2024 2024 2024 2024 
2024 2024 2024 2024 2024 2024 2024 2024 2024 
2024 2024 2024 2024 2024 2024 2024 2024 2024 
2024 2024 2024 2024 2024 2024 2024 2024 2024 
2024 2024 2024 2024 2024 2024 2024 2024 2024 
2024 2024 2024 2024 2024 2024 2024 2024 2024 
2024 2024 2024 2024 2024 2024 2024 2024 2024 
2024 2024 2024 2024 2024 2024 2024 2024 2024 
2024 2024 2024 2024 2024 2024 2024 2024 2024 
2024 2024 2024 2024 2024 2024 2024 2024 2024 
2024 2024 2024 2024 2024 2024 2024 2024 2024 
2024 2024 2024 2024 2024 2024 2024 2024 2024 
2024 2024 2024 2024 2024 2024 2024 2024 2024 
2024 2024 2024 2024 2024 2024 2024 2024 2024 
2024 2024 2024 2024 2024 2024 2024 2024 2024 
2024 2024 2024 2024 2024 2024 2024 2024 2024 
2024 2024 2024 2024 2024 2024 2024 2024 2024 
2024 2024 2024 2024 2024 2024 2024 2024 2024 
2024 2024 2024 2024 2024 2024 2024 2024 2024 
2024 2024 2024 2024 2024 2024 2024 2024 2024 
2024 2024 2024 2024 2024 2024 2024 2024 2024 
2024 2024 2024 2024 2024 2024 2024 2024 2024 
2024 2024 2024 2024 2024 2024 2024 2024 2024 
2024 2024 2024 2024 2024 2024 2024 2024 2024 
2024 2024 2024 2024 2024 2024 2024 2024 2024 
2024 2024 2024 2024 2024 2024 2024 2024 2024 
2024 2024 2024 2024 2024 2024 2024 2024 2024 
2024 2024 2024 2024 2024 2024 2024 2024 2024 
2024 2024 2024 2024 2024 2024 2024 2024 2024 
2024 2024 2024 2024 2024 2024 2024 2024 2024 
2024 2024 2024 2024 2024 2024 2024 2024 2024 
2024 2024 2024 2024 2024 2024 2024 2024 2024 
2024 2024 2024 2024 2024 2024 2024 2024 2024 
2024 2024 2024 2024 2024 2024 2024 2024 2024 
2024 2024 2024 2024 2024 2024 2024 2024 2024 
2024 2024 2024 2024 2024 2024 2024 2024 2024 
2024 2024 2024 2024 2024 2024 2024 2024 2024 
2024 2024 2024 2024 2024 2024 2024 2024 2024 
2024 2024 2024 2024 2024 2024 2024 2024 2024 
2024 2024 2024 2024 2024 2024 2024 2024 2024 
2024 2024 2024 2024 2024 2024 2024 2024 2024 
2024 2024 2024 2024 2024 2024 2024 2024 2024 
2024 2024 2024 2024 2024 2024 2024 2024 2024 
2024 2024 2024 2024 2024 2024 2024 2024 2024 
2024 2024 2024 2024 2024 2024 2024 2024 2024 
2024 2024 2024 2024 2024 2024 2024 2024 2024 
2024 2024 2024 2024 2024 2024 2024 2024 2024 
2024 2024 2024 2024 2024 2024 2024 2024 2024 
2024 2024 2024 2024 2024 2024 2024 2024 2024 
2024 2024 2024 2024 2024 2024 2024 2024 2024 
2024 2024 2024 2024 2024 2024 2024 2024 2024 
2024 2024 2024 2024 2024 2024 2024 2024 2024 
2024 2024 2024 2024 2024 2024 2024 2024 2024 
2024 2024 2024 2024 2024 2024 2024 2024 2024 
2024 2024 2024 2024 2024 2024 2024 2024 2024 
2024 2024 2024 2024 2024 2024 2024 2024 2024 
2024 2024 2024 2024 2024 2024 2024 2024 2024 
2024 2024 2024 2024 2024 2024 2024 2024 2024 
2024 2024 2024 2024 2024 2024 2024 2024 2024 
2024 2024 2024 2024 2024 2024 2024 2024 2024 
2024 2024 2024 2024 2024 2024 2024 2024 2024 
2024 2024 2024 2024 2024 2024 2024 2024 2024 
2024 2024 2024 2024 2024 2024 2024 2024 2024 
2024 2024 2024 2024 2024 2024 2024 2024 2024 
2024 2024 2024 2024 2024 2024 2024 2024 2024 
2024 2024 2024 2024 2024 2024 2024 2024 2024 
2024 2024 2024 2024 2024 2024 2024 2024 2024 
2024 2024 2024 2024 2024 2024 2024 2024 2024 
2024 2024 2024 2024 2024 2024 2024 2024 2024 
2024 2024 2024 2024 2024 2024 2024 2024 2024 
2024 2024 2024 2024 2024 2024 2024 2024 2024 
2024 2024 2024 2024 2024 2024 2024 2024 2024 
2024 2024 2024 2024 2024 2024 2024 2024 2024 
2024 2024 2024 2024 2024 2024 2024 2024 2024 
2024 2024 2024 2024 2024 2024 2024 2024 2024 
2024 2024 2024 2024 2024 2024 2024 2024 2024 
2024 2024 2024 2024 2024 2024 2024 2024 2024 
2024 2024 2024 2024 2024 2024 2024 2024 2024 
2024 2024 2024 2024 2024 2024 2024 2024 2024 
2024 2024 2024 2024 2024 2024 2024 2024 2024 
2024 2024 2024 2024 2024 2024 2024 2024 2024 
2024 2024 2024 2024 2024 2024 2024 2024 2024 
2024 2024 2024 2024 2024 2024 2024 2024 2024 
2024 2024 2024 2024 2024 2024 2024 2024 2024 
2024 2024 2024 2024 2024 2024 2024 2024 2024 
2024 2024 2024 2024 2024 2024 2024 2024 2024 
2024 2024 2024 2024 2024 2024 2024 2024 2024 
2024 2024 2024 2024 2024 2024 2024 2024 2024 
2024 2024 2024 2024 2024 2024 2024 2024 2024 
2024 2024 2024 2024 2024 2024 2024 2024 2024 
2024 2024 2024 2024 2024 2024 2024 2024 2024 
2024 2024 2024 2024 2024 2024 2024 2024 2024 
2024 2024 2024 2024 2024 2024 2024 2024 2024 
2024 2024 2024 2024 2024 2024 2024 2024 2024 
2024 2024 2024 2024 2024 2024 2024 2024 2024 
2024 2024 2024 2024 2024 2024 2024 2024 2024 
2024 2024 2024 2024 2024 2024 2024 2024 2024 
2024 2024 2024 2024 2024 2024 2024 2024 2024 
2024 2024 2024 2024 2024 2024 2024 2024 2024 
2024 2024 2024 2024 2024 2024 2024 2024 2024 
2024 2024 2024 2024 2024 2024 2024 2024 2024 
2024 2024 2024 2024 2024 2024 2024 2024 2024 
2024 2024 2024 2024 2024 2024 2024 2024 2024 
2024 2024 2024 2024 2024 2024 2024 2024 2024 
2024 2024 2024 2024 2024 2024 2024 2024 2024 
2024 2024 2024 2024 2024 2024 2024 2024 2024 
2024 2024 2024 2024 2024 2024 2024 2024 2024 
2024 2024 2024 2024 2024 2024 2024 2024 2024 
2024 2024 2024 2024 2024 2024 2024 2024 2024 
2024 2024 2024 2024 2024 2024 2024 2024 2024 
2024 2024 2024 2024 2024 2024 2024 2024 2024 
2024 2024 2024 2024 2024 2024 2024 2024 2024 
2024 2024 2024 2024 2024 2024 2024 2024 2024 
2024 2024 2024 2024 2024 2024 2024 2024 2024 
2024 2024 2024 2024 2024 2024 2024 2024 2024 
2024 2024 2024 2024 2024 2024 2024 2024 2024 
2024 2024 2024 2024 2024 2024 2024 2024 2024 
2024 2024 2024 2024 2024 2024 2024 2024 2024 
2024 2024 2024 2024 2024 2024 2024 2024 2024 
2024 2024 2024 2024 2024 2024 2024 2024 2024 
2024 2024 2024 2024 2024 2024 2024 2024 2024 
2024 2024 2024 2024 2024 2024 2024 2024 2024 
2024 2024 2024 2024 2024 2024 2024 2024 2024 
2024 2024 2024 2024 2024 2024 2024 2024 2024 
2024 2024 2024 2024 2024 2024 2024 2024 2024 
2024 2024 2024 2024 2024 2024 2024 2024 2024 
2024 2024 2024 2024 2024 2024 2024 2024 2024 
2024 2024 2024 2024 2024 2024 2024 2024 2024 
2024 2024 2024 2024 2024 2024 2024 2024 2024 
2024 2024 2024 2024 2024 2024 2024 2024 2024 
2024 2024 2024 2024 2024 2024 2024 2024 2024 
2024 2024 2024 2024 2024 2024 2024 2024 2024 
2024 2024 2024 2024 2024 2024 2024 2024 2024 
2024 2024 2024 2024 2024 2024 2024 2024 2024 
2024 2024 2024 2024 2024 2024 2024 2024 2024 
2024 2024 2024 2024 2024 2024 2024 2024 2024 
2024 2024 2024 2024 2024 2024 2024 2024 2024 
2024 2024 2024 2024 2024 2024 2024 2024 2024 
2024 2024 2024 2024 2024 2024 2024 2024 2024 
2024 2024 2024 2024 2024 2024 2024 2024 2024 
2024 2024 2024 2024 2024 2024 2024 2024 2024 
2024 2024 2024 2024 2024 2024 2024 2024 2024 
2024 2024 2024 2024 2024 2024 2024 2024 2024 
2024 2024 2024 2024 2024 2024 2024 2024 2024 
2024 2024 2024 2024 2024 2024 2024 2024 2024 
2024 2024 2024 2024 2024 2024 2024 2024 2024 
2024 2024 2024 2024 2024 2024 2024 2024 2024 
2024 2024 2024 2024 2024 2024 2024 2024 2024 
2024 2024 2024 2024 2024 2024 2024 2024 2024 
2024 2024 2024 2024 2024 2024 2024 2024 2024 
2024 2024 2024 2024 2024 2024 2024 2024 2024 
2024 2024 2024 2024 2024 2024 2024 2024 2024 
2024 2024 2024 2024 2024 2024 2024 2024 2024 
2024 2024 2024 2024 2024 2024 2024 2024 2024 
2024 2024 2024 2024 2024 2024 2024 2024 2024 
2024 2024 2024 2024 2024 2024 2024 2024 2024 
2024 2024 2024 2024 2024 2024 2024 2024 2024 
2024 2024 2024 2024 2024 2024 2024 2024 2024 
2024 2024 2024 2024 2024 2024 2024 2024 2024 
2024 2024 2024 2024 2024 2024 2024 2024 2024 
2024 2024 2024 2024 2024 2024 2024 2024 2024 
2024 2024 2024 2024 2024 2024 2024 2024 2024 
2024 2024 2024 2024 2024 2024 2024 2024 2024 
2024 2024 2024 2024 2024 2024 2024 2024 2024 
2024 2024 2024 2024 2024 2024 2024 2024 2024 
2024 2024 2024 2024 2024 2024 2024 2024 2024 
2024 2024 2024 2024 2024 2024 2024 2024 2024 
2024 2024 2024 2024 2024 2024 2024 2024 2024 
2024 2024 2024 2024 2024 2024 2024 2024 2024 
2024 2024 2024 2024 2024 2024 2024 2024 2024 
2024 2024 2024 2024 2024 2024 2024 2024 2024 
2024 2024 2024 2024 2024 2024 2024 2024 2024 
2024 2024 2024 2024 2024 2024 2024 2024 2024 
2024 2024 2024 2024 2024 2024 2024 2024 2024 
2024 2024 2024 2024 2024 2024 2024 2024 2024 
2024 2024 2024 2024 2024 2024 2024 2024 2024 
2024 2024 2024 2024 2024 2024 2024 2024 2024 
2024 2024 2024 2024 2024 2024 2024 2024 2024 
2024 2024 2024 2024 2024 2024 2024 2024 2024 
2024 2024 2024 2024 2024 2024 2024 2024 2024 
2024 2024 2024 2024 2024 2024 2024 2024 2024 
2024 2024 2024 2024 2024 2024 2024 2024 2024 