# vtk DataFile Version 4.2
vtk output
ASCII
DATASET POLYDATA
POINTS 7222 float
-25.1215 5.33304 46.718 -25.2139 5.75796 46.4589 -25.7087 5.43347 46.4265 
-24.9522 5.54409 46.3264 -25.2272 4.52439 46.7929 -25.77 4.23625 46.5716 
-24.8448 4.76488 46.4158 -27.2399 3.25973 46.6811 -27.4815 3.75895 46.4587 
-27.7335 3.14662 46.5527 -26.9742 3.57378 46.4377 -25.3028 3.69358 46.7433 
-25.5759 3.34923 46.4876 -24.8907 3.61226 46.3284 -27.3705 2.72763 46.6899 
-27.7126 2.57251 46.5435 -26.823 2.59683 46.3631 -25.1389 3.00858 46.3748 
-28.3275 1.40686 46.6334 -28.4822 1.67777 46.4872 -28.7077 1.34946 46.3816 
-27.4526 2.30787 46.3729 -28.1372 1.59083 46.3806 -28.3453 1.22244 46.1709 
-26.1927 7.333 45.7077 -26.5489 7.82686 45.2833 -26.7553 7.24202 45.5642 
-25.9972 7.59521 45.3031 -26.261 6.38572 45.9052 -26.9808 6.4559 45.6131 
-25.7323 6.61076 45.2754 -27.1161 5.46725 45.8654 -27.4024 6.09101 45.356 
-27.7976 5.47475 45.3618 -26.3899 5.57781 46.1196 -25.3536 5.92148 45.8901 
-24.9381 5.17166 45.6875 -28.1834 4.56736 45.8349 -28.5039 4.93147 45.1994 
-28.9321 4.36065 45.6074 -27.2659 4.26896 46.1472 -26.4346 4.78155 46.19 
-24.8653 4.16612 45.6741 -29.0024 3.59102 45.8492 -29.361 4.00049 45.5587 
-29.7769 3.35356 45.4502 -28.1096 3.69657 46.1734 -26.2689 3.45976 46.262 
-24.9016 3.23029 45.5323 -29.3689 2.6416 45.8318 -29.9196 2.20841 45.4881 
-28.2455 2.37225 46.1643 -26.0238 2.26635 46.108 -25.3841 2.4309 46.039 
-24.9172 2.37844 45.5246 -29.1832 1.76401 45.9737 -29.6915 1.35503 45.4303 
-27.2235 1.82744 45.8085 -27.8604 1.50956 45.7822 -26.3403 1.67411 45.8705 
-26.662 1.27435 45.4286 -25.5235 1.52112 45.7838 -24.9754 1.59274 45.4903 
-28.9519 1.02441 45.657 -28.1865 1.04437 45.4859 -25.8874 0.992973 45.2909 
-25.1927 1.10808 45.24 -27.1713 7.57542 45.0185 -27.0808 7.91392 44.3239 
-27.575 7.32794 44.4991 -26.2911 7.92708 44.709 -25.8779 7.4328 44.5272 
-27.3403 6.86982 45.1116 -27.7098 6.43768 44.5804 -25.7277 6.66397 44.3089 
-27.9964 5.60282 44.5962 -25.318 5.58163 45.1928 -25.637 5.60236 44.4736 
-29.4021 4.34005 45.1636 -29.1827 4.80349 44.4827 -29.8187 4.39381 44.5372 
-28.5277 5.17234 44.3376 -25.2479 4.69283 45.0088 -25.6507 4.44565 44.3619 
-30.1507 3.73881 44.8712 -30.3221 3.98751 44.1629 -30.6195 3.32239 44.5001 
-25.2545 3.67912 45.0038 -25.6456 3.44178 44.3455 -30.4733 2.62568 45.0011 
-30.9807 2.60102 44.4641 -25.2246 2.73725 44.9025 -25.5734 2.36174 44.1217 
-30.9821 1.56027 44.8354 -31.3155 2.02832 44.494 -31.71 1.31243 44.4855 
-30.231 1.44492 45.1272 -27.403 1.09839 45.2234 -25.1323 1.9806 44.6324 
-24.9739 1.43734 44.8314 -31.3033 0.329961 44.9106 -32.0234 0.352343 44.6323 
-30.3033 0.440936 45.0274 -29.3762 0.49371 45.1272 -28.2973 0.565861 45.112 
-27.4851 0.261289 44.8551 -26.5774 0.609326 44.9448 -25.8355 0.499665 44.3185 
-25.394 1.01886 44.551 -32.1013 -0.313263 44.7676 -32.5345 -0.132455 44.4824 
-32.6467 -0.545817 44.5101 -31.4545 -0.550508 44.8677 -30.3951 -0.576535 44.9427 
-29.4821 -0.394141 45.0206 -28.4847 -0.50013 44.8506 -27.6471 -0.591795 44.3218 
-26.9471 -0.0882933 44.5383 -26.2693 -0.0171892 44.3731 -32.2869 -0.94357 44.372 
-31.0707 -1.07528 44.552 -30.1986 -1.23631 44.6247 -29.841 -1.63422 44.3622 
-29.375 -1.21838 44.7997 -28.6736 -1.40303 44.6036 -28.1962 -1.16061 44.3716 
-29.1145 -1.84414 44.1934 -27.1639 8.17042 43.2884 -27.6946 7.52048 43.5842 
-26.4051 7.93472 43.7836 -25.8986 7.37613 43.4953 -27.9104 6.39645 43.5601 
-25.7529 6.47773 43.4515 -28.1765 5.60095 43.9421 -28.2543 5.85334 43.157 
-28.579 5.36632 43.584 -25.7822 5.45259 43.4907 -29.1585 4.95395 43.4241 
-29.8049 4.50781 43.763 -25.8192 4.4311 43.5321 -30.3014 4.00632 43.2387 
-30.8309 3.36138 43.7728 -25.9288 3.34246 43.5271 -31.4496 2.41131 44.0178 
-31.288 2.95848 43.2041 -31.8132 2.37144 43.5012 -25.9735 2.27733 43.4987 
-32.2593 1.56239 43.9197 -32.3027 1.93632 43.2171 -32.831 1.35886 43.526 
-25.2978 1.54146 44.2115 -25.7531 1.25356 43.5656 -33.1056 0.703075 43.8394 
-33.5316 0.956528 43.2017 -33.8424 0.194227 43.5068 -32.4927 0.552188 44.2494 
-25.707 0.444005 43.4937 -33.1215 -0.309357 44.0383 -33.7362 -0.617607 43.4661 
-27.1698 -0.507997 44.1427 -26.6115 -0.519175 43.9681 -25.7168 -0.374199 43.33 
-33.0962 -1.13379 43.7014 -32.411 -1.4989 43.8256 -32.7477 -1.73518 43.4298 
-31.5809 -1.53619 43.9954 -30.6038 -1.57572 44.1145 -28.427 -1.6534 44.114 
-27.9105 -1.4673 43.5436 -27.264 -0.940933 43.5101 -26.4527 -1.00339 43.2234 
-31.991 -1.99385 43.4754 -31.0544 -2.04433 43.5245 -30.0002 -2.0667 43.6907 
-29.1142 -2.24221 43.5153 -28.4351 -2.06892 43.4925 -27.1458 8.54154 42.7242 
-27.3736 8.77225 42.2769 -27.6188 8.31649 42.6826 -26.8407 8.62555 42.1601 
-27.9415 7.43729 42.5013 -26.4498 8.08838 42.7614 -25.8855 7.3858 42.4689 
-28.0558 6.48069 42.6727 -25.7585 6.50864 42.4327 -28.3647 6.12082 42.3781 
-28.771 5.52601 42.5786 -25.777 5.50897 42.4911 -29.2985 4.93513 42.2039 
-29.7772 4.35328 42.5912 -25.9136 4.44427 42.5752 -30.2012 3.80929 42.4158 
-30.6946 3.48974 42.7928 -26.2261 3.56009 42.8899 -26.55 3.23911 42.554 
-26.2625 3.90731 42.1878 -31.1176 2.9952 42.2111 -31.7825 2.51586 42.7417 
-26.4382 2.60281 43.0484 -26.8847 2.53136 42.4077 -32.2994 1.99904 42.2643 
-32.8343 1.50263 42.7904 -27.0582 1.72926 42.7299 -27.4917 1.41073 42.42 
-27.3223 1.87883 42.1946 -26.4365 1.60381 43.0039 -34.2446 0.511745 43.0256 
-34.0251 0.80812 42.3844 -34.6173 0.216227 42.4929 -33.3226 1.17099 42.3749 
-27.2173 1.00824 42.3644 -26.2825 0.96606 42.6503 -25.7972 0.458319 42.807 
-34.3068 -0.384647 43.0306 -34.7278 -0.632843 42.5075 -25.4817 -0.161377 42.4021 
-25.1666 -0.546851 42.7706 -25.0757 -0.562843 42.4801 -34.2574 -1.44817 42.7936 
-34.6997 -1.58713 42.1679 -33.5029 -1.47983 43.1751 -27.5618 -1.49727 42.7314 
-27.0589 -1.28098 42.7451 -26.4611 -1.43265 42.7244 -26.7534 -1.69892 42.3938 
-25.6516 -1.32789 42.3294 -25.2326 -0.791455 42.659 -34.1889 -2.14952 42.5681 
-33.8278 -2.58343 42.5273 -33.5619 -2.29256 42.8111 -32.5972 -2.39449 43.0037 
-31.5288 -2.5599 43.0099 -30.5601 -2.5469 43.0153 -29.554 -2.56607 43.0175 
-28.6325 -2.56517 42.9082 -27.8492 -2.3965 42.4782 -26.2205 -1.91929 42.3224 
-33.2632 -2.98769 42.3901 -32.0482 -3.10005 42.5414 -31.0273 -3.07103 42.3425 
-30.023 -2.89673 42.333 -29.0171 -2.90093 42.3546 -28.3736 -2.83713 42.3774 
-27.311 8.83191 41.5124 -27.8145 8.32966 41.6724 -26.7418 8.60581 41.2337 
-28.2053 7.6382 41.7683 -28.2052 7.81771 41.3041 -28.5003 7.16595 41.3829 
-26.2402 8.09177 41.7578 -25.8562 7.39483 41.4436 -28.2916 6.84291 42.0027 
-28.6574 6.2663 41.6916 -25.7246 6.52281 41.4074 -29.021 5.57302 41.547 
-25.7255 5.53249 41.4682 -29.3774 5.09641 41.3499 -29.6566 4.5567 41.4869 
-25.8942 4.63379 41.4587 -30.4415 3.40483 42.0654 -30.0151 3.79008 41.6217 
-26.6504 3.32108 41.797 -26.2694 3.97793 41.2281 -31.3042 2.82344 41.3266 
-31.7903 2.48531 41.7542 -30.6221 3.19762 41.3615 -27.0267 2.58437 41.5991 
-32.307 1.97372 41.2308 -32.7996 1.49583 41.7779 -27.7815 1.44282 41.7965 
-27.346 2.03229 41.636 -34.4304 0.380088 41.9315 -33.9827 0.596859 41.5664 
-33.3974 0.995746 41.4089 -29.1456 0.556805 41.7275 -29.5625 0.459663 41.5095 
-29.3823 0.734754 41.3311 -28.6923 1.03934 41.3781 -28.3015 0.5743 41.8777 
-27.4524 0.386021 41.8993 -26.4256 0.415049 42.0723 -34.3349 0.0874218 41.1658 
-34.7764 -0.438319 41.7883 -29.2835 0.00890595 41.4535 -28.095 -0.0494571 41.526 
-27.0395 -0.025426 41.4643 -26.0469 -0.165975 41.6364 -25.3913 -0.608453 42.1188 
-25.7997 -0.704316 41.4741 -34.9988 -1.50337 41.3837 -27.2139 -1.88226 42.2436 
-25.4069 -1.12047 41.4159 -25.1994 -1.49626 41.7984 -24.9809 -1.57598 41.1679 
-34.2306 -2.53437 42.1649 -34.7419 -2.48281 41.5864 -27.0997 -2.70823 42.0253 
-26.479 -2.48627 41.9792 -25.7208 -2.39133 41.7876 -25.1785 -2.02909 41.5202 
-34.0867 -3.15697 41.741 -33.411 -3.52523 41.8731 -33.9288 -3.66283 41.3707 
-32.5689 -3.59699 42.0496 -31.625 -3.59526 41.9832 -30.9896 -3.48644 41.6035 
-30.2764 -3.12122 41.3439 -29.2753 -2.98388 41.4758 -28.2749 -3.0583 41.7381 
-27.414 -3.27336 41.8224 -27.7253 -3.68209 41.1225 -26.6293 -3.38618 41.7664 
-25.8493 -3.22808 41.4916 -33.1593 -3.89497 41.2824 -32.063 -3.93578 41.3815 
-31.3174 -3.82265 41.2964 -26.9421 -3.95805 41.4806 -26.1773 -3.88643 41.426 
-27.4877 8.88164 40.4424 -27.8096 8.41941 40.5035 -26.7398 8.3988 40.1748 
-28.3846 7.35323 40.8772 -28.0175 7.81069 40.6918 -26.2049 7.98576 40.7796 
-25.8875 7.1702 40.3499 -28.5026 7.0593 40.1143 -28.8665 6.47067 40.7989 
-25.6915 6.33822 40.5619 -29.2686 5.63335 40.871 -29.3941 6.05769 40.3118 
-29.6369 5.32432 40.5083 -25.7209 5.48235 40.4701 -29.8946 4.39109 40.5583 
-25.9448 4.61494 40.5172 -30.2071 3.61566 40.9369 -30.2652 3.84978 40.1888 
-30.6103 3.36293 40.5863 -26.7716 3.40762 40.6399 -26.3067 4.12964 40.3704 
-31.1776 2.92668 40.4044 -31.8017 2.45373 40.7521 -27.4051 2.34469 41.0353 
-27.7805 2.29546 40.4875 -27.2944 2.88673 40.1722 -32.2981 1.98071 40.223 
-32.7922 1.46978 40.7282 -28.1247 1.72011 40.9804 -28.6661 1.41628 40.6061 
-28.2822 1.9007 40.2064 -33.2801 0.973956 40.2284 -33.7831 0.495839 40.7089 
-29.8348 0.361521 40.8765 -29.2547 0.971659 40.4472 -34.2656 -0.00775782 40.1999 
-34.8377 -0.661089 40.7302 -30.1702 -0.357043 40.864 -30.6104 -0.601343 40.2789 
-30.4293 -0.0939285 40.2095 -29.5739 -0.629087 40.9812 -28.6522 -0.564906 41.0376 
-27.595 -0.512212 40.9519 -26.5934 -0.483558 40.9918 -35.2622 -1.4561 40.8151 
-35.3164 -1.07703 40.1573 -35.5913 -1.77739 40.4847 -30.08 -0.854579 40.404 
-29.0951 -0.942476 40.3901 -28.0382 -0.900218 40.33 -27.0082 -0.838629 40.307 
-26.0457 -0.841978 40.6653 -25.3511 -1.16797 40.5698 -24.9578 -1.67296 40.4659 
-35.2678 -2.41476 41.0004 -35.8278 -2.66779 40.4139 -25.1948 -2.8811 41.0766 
-24.8949 -2.50242 40.4883 -35.3475 -3.33348 40.7872 -35.667 -3.66536 40.4665 
-34.6786 -3.39782 41.0957 -30.7382 -3.5403 40.7792 -29.9976 -3.16932 40.1995 
-29.4284 -2.95862 40.562 -28.5168 -3.13556 40.6021 -28.032 -3.69217 40.3906 
-25.3617 -3.86107 40.9772 -24.8745 -3.42791 40.4779 -35.0376 -4.01765 40.5437 
[...]
CELL_DATA 14464
SCALARS scalars float
LOOKUP_TABLE default
2035 2035 2035 2035 2035 2035 2035 2035 2035 
2035 2035 2035 2035 2035 2035 2035 2035 2035 
2035 2035 2035 2035 2035 2035 2035 2035 2035 
2035 2035 2035 2035 2035 2035 2035 2035 2035 
2035 2035 2035 2035 2035 2035 2035 2035 2035 
2035 2035 2035 2035 2035 2035 2035 2035 2035 
2035 2035 2035 2035 2035 2035 2035 2035 2035 
2035 2035 2035 2035 2035 2035 2035 2035 2035 
2035 2035 2035 2035 2035 2035 2035 2035 2035 
2035 2035 2035 2035 2035 2035 2035 2035 2035 
2035 2035 2035 2035 2035 2035 2035 2035 2035 
2035 2035 2035 2035 2035 2035 2035 2035 2035 
2035 2035 2035 2035 2035 2035 2035 2035 2035 
2035 2035 2035 2035 2035 2035 2035 2035 2035 
2035 2035 2035 2035 2035 2035 2035 2035 2035 
2035 2035 2035 2035 2035 2035 2035 2035 2035 
2035 2035 2035 2035 2035 2035 2035 2035 2035 
2035 2035 2035 2035 2035 2035 2035 2035 2035 
2035 2035 2035 2035 2035 2035 2035 2035 2035 
2035 2035 2035 2035 2035 2035 2035 2035 2035 
2035 2035 2035 2035 2035 2035 2035 2035 2035 
2035 2035 2035 2035 2035 2035 2035 2035 2035 
2035 2035 2035 2035 2035 2035 2035 2035 2035 
2035 2035 2035 2035 2035 2035 2035 2035 2035 
2035 2035 2035 2035 2035 2035 2035 2035 2035 
2035 2035 2035 2035 2035 2035 2035 2035 2035 
2035 2035 2035 2035 2035 2035 2035 2035 2035 
2035 2035 2035 2035 2035 2035 2035 2035 2035 
2035 2035 2035 2035 2035 2035 2035 2035 2035 
2035 2035 2035 2035 2035 2035 2035 2035 2035 
2035 2035 2035 2035 2035 2035 2035 2035 2035 
2035 2035 2035 2035 2035 2035 2035 2035 2035 
2035 2035 2035 2035 2035 2035 2035 2035 2035 
2035 2035 2035 2035 2035 2035 2035 2035 2035 
2035 2035 2035 2035 2035 2035 2035 2035 2035 
2035 2035 2035 2035 2035 2035 2035 2035 2035 
2035 2035 2035 2035 2035 2035 2035 2035 2035 
2035 2035 2035 2035 2035 2035 2035 2035 2035 
2035 2035 2035 2035 2035 2035 2035 2035 2035 
2035 2035 2035 2035 2035 2035 2035 2035 2035 
2035 2035 2035 2035 2035 2035 2035 2035 2035 
2035 2035 2035 2035 2035 2035 2035 2035 2035 
2035 2035 2035 2035 2035 2035 2035 2035 2035 
2035 2035 2035 2035 2035 2035 2035 2035 2035 
2035 2035 2035 2035 2035 2035 2035 2035 2035 
2035 2035 2035 2035 2035 2035 2035 2035 2035 
2035 2035 2035 2035 2035 2035 2035 2035 2035 
2035 2035 2035 2035 2035 2035 2035 2035 2035 
2035 2035 2035 2035 2035 2035 2035 2035 2035 
2035 2035 2035 2035 2035 2035 2035 2035 2035 
2035 2035 2035 2035 2035 2035 2035 2035 2035 
2035 2035 2035 2035 2035 2035 2035 2035 2035 
2035 2035 2035 2035 2035 2035 2035 2035 2035 
2035 2035 2035 2035 2035 2035 2035 2035 2035 
2035 2035 2035 2035 2035 2035 2035 2035 2035 
2035 2035 2035 2035 2035 2035 2035 2035 2035 
2035 2035 2035 2035 2035 2035 2035 2035 2035 
2035 2035 2035 2035 2035 2035 2035 2035 2035 
2035 2035 2035 2035 2035 2035 2035 2035 2035 
2035 2035 2035 2035 2035 2035 2035 2035 2035 
2035 2035 2035 2035 2035 2035 2035 2035 2035 
2035 2035 2035 2035 2035 2035 2035 2035 2035 
2035 2035 2035 2035 2035 2035 2035 2035 2035 
2035 2035 2035 2035 2035 2035 2035 2035 2035 
2035 2035 2035 2035 2035 2035 2035 2035 2035 
2035 2035 2035 2035 2035 2035 2035 2035 2035 
2035 2035 2035 2035 2035 2035 2035 2035 2035 
2035 2035 2035 2035 2035 2035 2035 2035 2035 
2035 2035 2035 2035 2035 2035 2035 2035 2035 
2035 2035 2035 2035 2035 2035 2035 2035 2035 
2035 2035 2035 2035 2035 2035 2035 2035 2035 
2035 2035 2035 2035 2035 2035 2035 2035 2035 
2035 2035 2035 2035 2035 2035 2035 2035 2035 
2035 2035 2035 2035 2035 2035 2035 2035 2035 
2035 2035 2035 2035 2035 2035 2035 2035 2035 
2035 2035 2035 2035 2035 2035 2035 2035 2035 
2035 2035 2035 2035 2035 2035 2035 2035 2035 
2035 2035 2035 2035 2035 2035 2035 2035 2035 
2035 2035 2035 2035 2035 2035 2035 2035 2035 
2035 2035 2035 2035 2035 2035 2035 2035 2035 
2035 2035 2035 2035 2035 2035 2035 2035 2035 
2035 2035 2035 2035 2035 2035 2035 2035 2035 
2035 2035 2035 2035 2035 2035 2035 2035 2035 
2035 2035 2035 2035 2035 2035 2035 2035 2035 
2035 2035 2035 2035 2035 2035 2035 2035 2035 
2035 2035 2035 2035 2035 2035 2035 2035 2035 
2035 2035 2035 2035 2035 2035 2035 2035 2035 
2035 2035 2035 2035 2035 2035 2035 2035 2035 
2035 2035 2035 2035 2035 2035 2035 2035 2035 
2035 2035 2035 2035 2035 2035 2035 2035 2035 
2035 2035 2035 2035 2035 2035 2035 2035 2035 
2035 2035 2035 2035 2035 2035 2035 2035 2035 
2035 2035 2035 2035 2035 2035 2035 2035 2035 
2035 2035 2035 2035 2035 2035 2035 2035 2035 
2035 2035 2035 2035 2035 2035 2035 2035 2035 
2035 2035 2035 2035 2035 2035 2035 2035 2035 
2035 2035 2035 2035 2035 2035 2035 2035 2035 
2035 2035 2035 2035 2035 2035 2035 2035 2035 
2035 2035 2035 2035 2035 2035 2035 2035 2035 
2035 2035 2035 2035 2035 2035 2035 2035 2035 
2035 2035 2035 2035 2035 2035 2035 2035 2035 
2035 2035 2035 2035 2035 2035 2035 2035 2035 
2035 2035 2035 2035 2035 2035 2035 2035 2035 
2035 2035 2035 2035 2035 2035 2035 2035 2035 
2035 2035 2035 2035 2035 2035 2035 2035 2035 
2035 2035 2035 2035 2035 2035 2035 2035 2035 
2035 2035 2035 2035 2035 2035 2035 2035 2035 
2035 2035 2035 2035 2035 2035 2035 2035 2035 
2035 2035 2035 2035 2035 2035 2035 2035 2035 
2035 2035 2035 2035 2035 2035 2035 2035 2035 
2035 2035 2035 2035 2035 2035 2035 2035 2035 
2035 2035 2035 2035 2035 2035 2035 2035 2035 
2035 2035 2035 2035 2035 2035 2035 2035 2035 
2035 2035 2035 2035 2035 2035 2035 2035 2035 
2035 2035 2035 2035 2035 2035 2035 2035 2035 
2035 2035 2035 2035 2035 2035 2035 2035 2035 
2035 2035 2035 2035 2035 2035 2035 2035 2035 
2035 2035 2035 2035 2035 2035 2035 2035 2035 
2035 2035 2035 2035 2035 2035 2035 2035 2035 
2035 2035 2035 2035 2035 2035 2035 2035 2035 
2035 2035 2035 2035 2035 2035 2035 2035 2035 
2035 2035 2035 2035 2035 2035 2035 2035 2035 
2035 2035 2035 2035 2035 2035 2035 2035 2035 
2035 2035 2035 2035 2035 2035 2035 2035 2035 
2035 2035 2035 2035 2035 2035 2035 2035 2035 
2035 2035 2035 2035 2035 2035 2035 2035 2035 
2035 2035 2035 2035 2035 2035 2035 2035 2035 
2035 2035 2035 2035 2035 2035 2035 2035 2035 
2035 2035 2035 2035 2035 2035 2035 2035 2035 
2035 2035 2035 2035 2035 2035 2035 2035 2035 
2035 2035 2035 2035 2035 2035 2035 2035 2035 
2035 2035 2035 2035 2035 2035 2035 2035 2035 
2035 2035 2035 2035 2035 2035 2035 2035 2035 
2035 2035 2035 2035 2035 2035 2035 2035 2035 
2035 2035 2035 2035 2035 2035 2035 2035 2035 
2035 2035 2035 2035 2035 2035 2035 2035 2035 
2035 2035 2035 2035 2035 2035 2035 2035 2035 
2035 2035 2035 2035 2035 2035 2035 2035 2035 
2035 2035 2035 2035 2035 2035 2035 2035 2035 
2035 2035 2035 2035 2035 2035 2035 2035 2035 
2035 2035 2035 2035 2035 2035 2035 2035 2035 
2035 2035 2035 2035 2035 2035 2035 2035 2035 
2035 2035 2035 2035 2035 2035 2035 2035 2035 
2035 2035 2035 2035 2035 2035 2035 2035 2035 
2035 2035 2035 2035 2035 2035 2035 2035 2035 
2035 2035 2035 2035 2035 2035 2035 2035 2035 
2035 2035 2035 2035 2035 2035 2035 2035 2035 
2035 2035 2035 2035 2035 2035 2035 2035 2035 
2035 2035 2035 2035 2035 2035 2035 2035 2035 
2035 2035 2035 2035 2035 2035 2035 2035 2035 
2035 2035 2035 2035 2035 2035 2035 2035 2035 
2035 2035 2035 2035 2035 2035 2035 2035 2035 
2035 2035 2035 2035 2035 2035 2035 2035 2035 
2035 2035 2035 2035 2035 2035 2035 2035 2035 
2035 2035 2035 2035 2035 2035 2035 2035 2035 
2035 2035 2035 2035 2035 2035 2035 2035 2035 
2035 2035 2035 2035 2035 2035 2035 2035 2035 
2035 2035 2035 2035 2035 2035 2035 2035 2035 
2035 2035 2035 2035 2035 2035 2035 2035 2035 
2035 2035 2035 2035 2035 2035 2035 2035 2035 
2035 2035 2035 2035 2035 2035 2035 2035 2035 
2035 2035 2035 2035 2035 2035 2035 2035 2035 
2035 2035 2035 2035 2035 2035 2035 2035 2035 
2035 2035 2035 2035 2035 2035 2035 2035 2035 
2035 2035 2035 2035 2035 2035 2035 2035 2035 
2035 2035 2035 2035 2035 2035 2035 2035 2035 
2035 2035 2035 2035 2035 2035 2035 2035 2035 
2035 2035 2035 2035 2035 2035 2035 2035 2035 
2035 2035 2035 2035 2035 2035 2035 2035 2035 
2035 2035 2035 2035 2035 2035 2035 2035 2035 
2035 2035 2035 2035 2035 2035 2035 2035 2035 
2035 2035 2035 2035 2035 2035 2035 2035 2035 
2035 2035 2035 2035 2035 2035 2035 2035 2035 
2035 2035 2035 2035 2035 2035 2035 2035 2035 
2035 2035 2035 2035 2035 2035 2035 2035 2035 
2035 2035 2035 2035 2035 2035 2035 2035 2035 
2035 2035 2035 2035 2035 2035 2035 2035 2035 
2035 2035 2035 2035 2035 2035 2035 2035 2035 
2035 2035 2035 2035 2035 2035 2035 2035 2035 
2035 2035 2035 2035 2035 2035 2035 2035 2035 
2035 2035 2035 2035 2035 2035 2035 2035 2035 
2035 2035 2035 2035 2035 2035 2035 2035 2035 
2035 2035 2035 2035 2035 2035 2035 2035 2035 
2035 2035 2035 2035 2035 2035 2035 2035 2035 
2035 2035 2035 2035 2035 2035 2035 2035 2035 
2035 2035 2035 2035 2035 2035 2035 2035 2035 
2035 2035 2035 2035 2035 2035 2035 2035 2035 
2035 2035 2035 2035 2035 2035 2035 2035 2035 
2035 2035 2035 2035 2035 2035 2035 2035 2035 
2035 2035 2035 2035 2035 2035 2035 2035 2035 
2035 2035 2035 2035 2035 2035 2035 2035 2035 
2035 2035 2035 2035 2035 2035 2035 2035 2035 
2035 2035 2035 2035 2035 2035 2035 2035 2035 
2035 2035 2035 2035 2035 2035 2035 2035 2035 
2035 2035 2035 2035 2035 2035 2035 2035 2035 
2035 2035 2035 2035 2035 2035 2035 2035 2035 
2035 2035 2035 2035 2035 2035 2035 2035 2035 
2035 2035 2035 2035 2035 2035 2035 2035 2035 
2035 2035 2035 2035 2035 2035 2035 2035 2035 
2035 2035 2035 2035 2035 2035 2035 2035 2035 
2035 2035 2035 2035 2035 2035 2035 2035 2035 
2035 2035 2035 2035 2035 2035 2035 2035 2035 
2035 2035 2035 2035 2035 2035 2035 2035 2035 
2035 2035 2035 2035 2035 2035 2035 2035 2035 
2035 2035 2035 2035 2035 2035 2035 2035 2035 
2035 2035 2035 2035 2035 2035 2035 2035 2035 
2035 2035 2035 2035 2035 2035 2035 2035 2035 
2035 2035 2035 2035 2035 2035 2035 2035 2035 
2035 2035 2035 2035 2035 2035 2035 2035 2035 
2035 2035 2035 2035 2035 2035 2035 2035 2035 
2035 2035 2035 2035 2035 2035 2035 2035 2035 
2035 2035 2035 2035 2035 2035 2035 2035 2035 
2035 2035 2035 2035 2035 2035 2035 2035 2035 
2035 2035 2035 2035 2035 2035 2035 2035 2035 
2035 2035 2035 2035 2035 2035 2035 2035 2035 
2035 2035 2035 2035 2035 2035 2035 2035 2035 
2035 2035 2035 2035 2035 2035 2035 2035 2035 
2035 2035 2035 2035 2035 2035 2035 2035 2035 
2035 2035 2035 2035 2035 2035 2035 2035 2035 
2035 2035 2035 2035 2035 2035 2035 2035 2035 
2035 2035 2035 2035 2035 2035 2035 2035 2035 
2035 2035 2035 2035 2035 2035 2035 2035 2035 
2035 2035 2035 2035 2035 2035 2035 2035 2035 
2035 2035 2035 2035 2035 2035 2035 2035 2035 
2035 2035 2035 2035 2035 2035 2035 2035 2035 
2035 2035 2035 2035 2035 2035 2035 2035 2035 
2035 2035 2035 2035 2035 2035 2035 2035 2035 
2035 2035 2035 2035 2035 2035 2035 2035 2035 
2035 2035 2035 2035 2035 2035 2035 2035 2035 
2035 2035 2035 2035 2035 2035 2035 2035 2035 
2035 2035 2035 2035 2035 2035 2035 2035 2035 
2035 2035 2035 2035 2035 2035 2035 2035 2035 
2035 2035 2035 2035 2035 2035 2035 2035 2035 
2035 2035 2035 2035 2035 2035 2035 2035 2035 
2035 2035 2035 2035 2035 2035 2035 2035 2035 
2035 2035 2035 2035 2035 2035 2035 2035 2035 
2035 2035 2035 2035 2035 2035 2035 2035 2035 
2035 2035 2035 2035 2035 2035 2035 2035 2035 
2035 2035 2035 2035 2035 2035 2035 2035 2035 
2035 2035 2035 2035 2035 2035 2035 2035 2035 
2035 2035 2035 2035 2035 2035 2035 2035 2035 
2035 2035 2035 2035 2035 2035 2035 2035 2035 
2035 2035 2035 2035 2035 2035 2035 2035 2035 
2035 2035 2035 2035 2035 2035 2035 2035 2035 
2035 2035 2035 2035 2035 2035 2035 2035 2035 
2035 2035 2035 2035 2035 2035 2035 2035 2035 
2035 2035 2035 2035 2035 2035 2035 2035 2035 
2035 2035 2035 2035 2035 2035 2035 2035 2035 
2035 2035 2035 2035 2035 2035 2035 2035 2035 
2035 2035 2035 2035 2035 2035 2035 2035 2035 
2035 2035 2035 2035 2035 2035 2035 2035 2035 
2035 2035 2035 2035 2035 2035 2035 2035 2035 
2035 2035 2035 2035 2035 2035 2035 2035 2035 
2035 2035 2035 2035 2035 2035 2035 2035 2035 
2035 2035 2035 2035 2035 2035 2035 2035 2035 
2035 2035 2035 2035 2035 2035 2035 2035 2035 
2035 2035 2035 2035 2035 2035 2035 2035 2035 
2035 2035 2035 2035 2035 2035 2035 2035 2035 
2035 2035 2035 2035 2035 2035 2035 2035 2035 
2035 2035 2035 2035 2035 2035 2035 2035 2035 
2035 2035 2035 2035 2035 2035 2035 2035 2035 
2035 2035 2035 2035 2035 2035 2035 2035 2035 
2035 2035 2035 2035 2035 2035 2035 2035 2035 
2035 2035 2035 2035 2035 2035 2035 2035 2035 
2035 2035 2035 2035 2035 2035 2035 2035 2035 
2035 2035 2035 2035 2035 2035 2035 2035 2035 
2035 2035 2035 2035 2035 2035 2035 2035 2035 
2035 2035 2035 2035 2035 2035 2035 2035 2035 
2035 2035 2035 2035 2035 2035 2035 2035 2035 
2035 2035 2035 2035 2035 2035 2035 2035 2035 
2035 2035 2035 2035 2035 2035 2035 2035 2035 
2035 2035 2035 2035 2035 2035 2035 2035 2035 
2035 2035 2035 2035 2035 2035 2035 2035 2035 
2035 2035 2035 2035 2035 2035 2035 2035 2035 
2035 2035 2035 2035 2035 2035 2035 2035 2035 
2035 2035 2035 2035 2035 2035 2035 2035 2035 
2035 2035 2035 2035 2035 2035 2035 2035 2035 
2035 2035 2035 2035 2035 2035 2035 2035 2035 
2035 2035 2035 2035 2035 2035 2035 2035 2035 
2035 2035 2035 2035 2035 2035 2035 2035 2035 
2035 2035 2035 2035 2035 2035 2035 2035 2035 
2035 2035 2035 2035 2035 2035 2035 2035 2035 
2035 2035 2035 2035 2035 2035 2035 2035 2035 
2035 2035 2035 2035 2035 2035 2035 2035 2035 
2035 2035 2035 2035 2035 2035 2035 2035 2035 
2035 2035 2035 2035 2035 2035 2035 2035 2035 
2035 2035 2035 2035 2035 2035 2035 2035 2035 
2035 2035 2035 2035 2035 2035 2035 2035 2035 
2035 2035 2035 2035 2035 2035 2035 2035 2035 
2035 2035 2035 2035 2035 2035 2035 2035 2035 
2035 2035 2035 2035 2035 2035 2035 2035 2035 
2035 2035 2035 2035 2035 2035 2035 2035 2035 
2035 2035 2035 2035 2035 2035 2035 2035 2035 
2035 2035 2035 2035 2035 2035 2035 2035 2035 
2035 2035 2035 2035 2035 2035 2035 2035 2035 
2035 2035 2035 2035 2035 2035 2035 2035 2035 
2035 2035 2035 2035 2035 2035 2035 2035 2035 
2035 2035 2035 2035 2035 2035 2035 2035 2035 
2035 2035 2035 2035 2035 2035 2035 2035 2035 
2035 2035 2035 2035 2035 2035 2035 2035 2035 
2035 2035 2035 2035 2035 2035 2035 2035 2035 
2035 2035 2035 2035 2035 2035 2035 2035 2035 
2035 2035 2035 2035 2035 2035 2035 2035 2035 
2035 2035 2035 2035 2035 2035 2035 2035 2035 
2035 2035 2035 2035 2035 2035 2035 2035 2035 
2035 2035 2035 2035 2035 2035 2035 2035 2035 
2035 2035 2035 2035 2035 2035 2035 2035 2035 
2035 2035 2035 2035 2035 2035 2035 2035 2035 
2035 2035 2035 2035 2035 2035 2035 2035 2035 
2035 2035 2035 2035 2035 2035 2035 2035 2035 
2035 2035 2035 2035 2035 2035 2035 2035 2035 
2035 2035 2035 2035 2035 2035 2035 2035 2035 
2035 2035 2035 2035 2035 2035 2035 2035 2035 
2035 2035 2035 2035 2035 2035 2035 2035 2035 
2035 2035 2035 2035 2035 2035 2035 2035 2035 
2035 2035 2035 2035 2035 2035 2035 2035 2035 
2035 2035 2035 2035 2035 2035 2035 2035 2035 
2035 2035 2035 2035 2035 2035 2035 2035 2035 
2035 2035 2035 2035 2035 2035 2035 2035 2035 
2035 2035 2035 2035 2035 2035 2035 2035 2035 
2035 2035 2035 2035 2035 2035 2035 2035 2035 
2035 2035 2035 2035 2035 2035 2035 2035 2035 
2035 2035 2035 2035 2035 2035 2035 2035 2035 
2035 2035 2035 2035 2035 2035 2035 2035 2035 
2035 2035 2035 2035 2035 2035 2035 2035 2035 
2035 2035 2035 2035 2035 2035 2035 2035 2035 
2035 2035 2035 2035 2035 2035 2035 2035 2035 
2035 2035 2035 2035 2035 2035 2035 2035 2035 
2035 2035 2035 2035 2035 2035 2035 2035 2035 
2035 2035 2035 2035 2035 2035 2035 2035 2035 
2035 2035 2035 2035 2035 2035 2035 2035 2035 
2035 2035 2035 2035 2035 2035 2035 2035 2035 
2035 2035 2035 2035 2035 2035 2035 2035 2035 
2035 2035 2035 2035 2035 2035 2035 2035 2035 
2035 2035 2035 2035 2035 2035 2035 2035 2035 
2035 2035 2035 2035 2035 2035 2035 2035 2035 
2035 2035 2035 2035 2035 2035 2035 2035 2035 
2035 2035 2035 2035 2035 2035 2035 2035 2035 
2035 2035 2035 2035 2035 2035 2035 2035 2035 
2035 2035 2035 2035 2035 2035 2035 2035 2035 
2035 2035 2035 2035 2035 2035 2035 2035 2035 
2035 2035 2035 2035 2035 2035 2035 2035 2035 
2035 2035 2035 2035 2035 2035 2035 2035 2035 
2035 2035 2035 2035 2035 2035 2035 2035 2035 
2035 2035 2035 2035 2035 2035 2035 2035 2035 
2035 2035 2035 2035 2035 2035 2035 2035 2035 
2035 2035 2035 2035 2035 2035 2035 2035 2035 
2035 2035 2035 2035 2035 2035 2035 2035 2035 
2035 2035 2035 2035 2035 2035 2035 2035 2035 
2035 2035 2035 2035 2035 2035 2035 2035 2035 
2035 2035 2035 2035 2035 2035 2035 2035 2035 
2035 2035 2035 2035 2035 2035 2035 2035 2035 
2035 2035 2035 2035 2035 2035 2035 2035 2035 
2035 2035 2035 2035 2035 2035 2035 2035 2035 
2035 2035 2035 2035 2035 2035 2035 2035 2035 
2035 2035 2035 2035 2035 2035 2035 2035 2035 
2035 2035 2035 2035 2035 2035 2035 2035 2035 
2035 2035 2035 2035 2035 2035 2035 2035 2035 
2035 2035 2035 2035 2035 2035 2035 2035 2035 
2035 2035 2035 2035 2035 2035 2035 2035 2035 
2035 2035 2035 2035 2035 2035 2035 2035 2035 
2035 2035 2035 2035 2035 2035 2035 2035 2035 
2035 2035 2035 2035 2035 2035 2035 2035 2035 
2035 2035 2035 2035 2035 2035 2035 2035 2035 
2035 2035 2035 2035 2035 2035 2035 2035 2035 
2035 2035 2035 2035 2035 2035 2035 2035 2035 
2035 2035 2035 2035 2035 2035 2035 2035 2035 
2035 2035 2035 2035 2035 2035 2035 2035 2035 
2035 2035 2035 2035 2035 2035 2035 2035 2035 
2035 2035 2035 2035 2035 2035 2035 2035 2035 
2035 2035 2035 2035 2035 2035 2035 2035 2035 
2035 2035 2035 2035 2035 2035 2035 2035 2035 
2035 2035 2035 2035 2035 2035 2035 2035 2035 
2035 2035 2035 2035 2035 2035 2035 2035 2035 
2035 2035 2035 2035 2035 2035 2035 2035 2035 
2035 2035 2035 2035 2035 2035 2035 2035 2035 
2035 2035 2035 2035 2035 2035 2035 2035 2035 
2035 2035 2035 2035 2035 2035 2035 2035 2035 
2035 2035 2035 2035 2035 2035 2035 2035 2035 
2035 2035 2035 2035 2035 2035 2035 2035 2035 
2035 2035 2035 2035 2035 2035 2035 2035 2035 
2035 2035 2035 2035 2035 2035 2035 2035 2035 
2035 2035 2035 2035 2035 2035 2035 2035 2035 
2035 2035 2035 2035 2035 2035 2035 2035 2035 
2035 2035 2035 2035 2035 2035 2035 2035 2035 
2035 2035 2035 2035 2035 2035 2035 2035 2035 
2035 2035 2035 2035 2035 2035 2035 2035 2035 
2035 2035 2035 2035 2035 2035 2035 2035 2035 
2035 2035 2035 2035 2035 2035 2035 2035 2035 
2035 2035 2035 2035 2035 2035 2035 2035 2035 
2035 2035 2035 2035 2035 2035 2035 2035 2035 
2035 2035 2035 2035 2035 2035 2035 2035 2035 
2035 2035 2035 2035 2035 2035 2035 2035 2035 
2035 2035 2035 2035 2035 2035 2035 2035 2035 
2035 2035 2035 2035 2035 2035 2035 2035 2035 
2035 2035 2035 2035 2035 2035 2035 2035 2035 
2035 2035 2035 2035 2035 2035 2035 2035 2035 
2035 2035 2035 2035 2035 2035 2035 2035 2035 
2035 2035 2035 2035 2035 2035 2035 2035 2035 
2035 2035 2035 2035 2035 2035 2035 2035 2035 
2035 2035 2035 2035 2035 2035 2035 2035 2035 
2035 2035 2035 2035 2035 2035 2035 2035 2035 
2035 2035 2035 2035 2035 2035 2035 2035 2035 
2035 2035 2035 2035 2035 2035 2035 2035 2035 
2035 2035 2035 2035 2035 2035 2035 2035 2035 
2035 2035 2035 2035 2035 2035 2035 2035 2035 
2035 2035 2035 2035 2035 2035 2035 2035 2035 
2035 2035 2035 2035 2035 2035 2035 2035 2035 
2035 2035 2035 2035 2035 2035 2035 2035 2035 
2035 2035 2035 2035 2035 2035 2035 2035 2035 
2035 2035 2035 2035 2035 2035 2035 2035 2035 
2035 2035 2035 2035 2035 2035 2035 2035 2035 
2035 2035 2035 2035 2035 2035 2035 2035 2035 
2035 2035 2035 2035 2035 2035 2035 2035 2035 
2035 2035 2035 2035 2035 2035 2035 2035 2035 
2035 2035 2035 2035 2035 2035 2035 2035 2035 
2035 2035 2035 2035 2035 2035 2035 2035 2035 
2035 2035 2035 2035 2035 2035 2035 2035 2035 
2035 2035 2035 2035 2035 2035 2035 2035 2035 
2035 2035 2035 2035 2035 2035 2035 2035 2035 
2035 2035 2035 2035 2035 2035 2035 2035 2035 
2035 2035 2035 2035 2035 2035 2035 2035 2035 
2035 2035 2035 2035 2035 2035 2035 2035 2035 
2035 2035 2035 2035 2035 2035 2035 2035 2035 
2035 2035 2035 2035 2035 2035 2035 2035 2035 
2035 2035 2035 2035 2035 2035 2035 2035 2035 
2035 2035 2035 2035 2035 2035 2035 2035 2035 
2035 2035 2035 2035 2035 2035 2035 2035 2035 
2035 2035 2035 2035 2035 2035 2035 2035 2035 
2035 2035 2035 2035 2035 2035 2035 2035 2035 
2035 2035 2035 2035 2035 2035 2035 2035 2035 
2035 2035 2035 2035 2035 2035 2035 2035 2035 
2035 2035 2035 2035 2035 2035 2035 2035 2035 