# vtk DataFile Version 4.2
vtk output
ASCII
DATASET POLYDATA
POINTS 28094 float
-9.9536 88.7213 5.27223 -9.50168 88.4157 5.79662 -9.24844 88.5063 5.20076 
-10.0745 88.4158 5.69189 -9.89657 88.8829 4.48251 -9.16319 88.531 4.24339 
-10.5496 88.5567 5.12346 -10.8104 88.8379 4.38635 -11.1477 88.4273 4.64823 
-9.75077 88.941 3.36084 -9.00738 88.5742 3.39863 -10.7504 89.0448 3.4622 
-11.6007 88.5488 4.02784 -11.6253 88.8037 3.38549 -12.1235 88.4034 3.53495 
-9.02359 88.7685 2.56039 -8.51847 88.4058 2.89767 -8.41952 88.4035 2.2947 
-9.85609 89.0319 2.30198 -10.5562 89.074 2.57508 -11.4073 88.8486 2.39863 
-12.2105 88.467 2.76574 -8.80361 88.5522 1.8642 -9.22872 88.4203 1.26014 
-9.49576 88.7995 1.684 -10.5252 88.851 1.65005 -11.3134 88.5644 1.57848 
-11.9334 88.4225 2.00847 -10.0316 88.4788 0.984363 -10.838 88.4306 1.07437 
-9.86905 87.7933 7.30065 -9.60767 87.4208 7.85294 -9.09724 87.5467 7.33154 
-10.9706 87.845 7.40693 -10.4258 87.4887 8.0528 -11.9185 87.7873 7.24404 
-11.3634 87.5017 7.99119 -12.1126 87.4404 7.66946 -8.78457 87.8174 6.53264 
-8.47074 87.4455 6.88815 -8.03438 87.5657 6.28603 -9.72166 88.0993 6.26967 
-10.7065 87.9884 6.52768 -11.729 87.9869 6.51024 -12.5747 87.5622 7.07618 
-12.7738 87.8209 6.36019 -13.1427 87.4497 6.6426 -7.99445 87.8254 5.53155 
-7.54864 87.363 5.99544 -7.37086 87.3647 5.34431 -8.85614 88.1383 5.73447 
-10.7903 88.1616 5.47726 -11.6997 87.9967 5.51269 -12.7176 87.9795 5.46767 
-13.5541 87.5569 6.03891 -13.597 87.7741 5.4008 -14.0452 87.4206 5.55591 
-7.79669 87.8678 4.45403 -7.29257 87.394 4.40823 -8.53951 88.1512 4.77743 
-11.8591 88.1417 4.40786 -12.7686 87.9868 4.44899 -13.8142 87.8642 4.39795 
-14.3066 87.4835 4.78732 -7.54328 87.8822 3.44598 -7.02229 87.4609 3.52959 
-8.40233 88.1824 3.64454 -12.783 88.1007 3.34638 -13.7636 87.9717 3.43037 
-14.6161 87.5496 4.025 -14.6151 87.7639 3.3796 -15.1185 87.3999 3.52508 
-6.99835 87.831 2.52482 -6.60642 87.3759 3.06277 -6.35406 87.3976 2.40149 
-7.93076 88.1066 2.51204 -12.7456 88.1143 2.1704 -13.5944 87.9932 2.59883 
-14.4259 87.8094 2.42 -15.1779 87.4644 2.7766 -6.80238 87.8686 1.47212 
-6.13837 87.4163 1.36893 -7.67848 88.0001 1.46279 -8.55258 88.1642 1.47591 
-11.8185 88.1593 1.22056 -12.8832 88.0103 1.27825 -13.7365 87.8809 1.57698 
-14.429 87.5836 1.50855 -14.9189 87.4455 2.00857 -6.81433 87.904 0.451659 
-6.15255 87.5493 0.209591 -7.71027 88.0153 0.446328 -8.69904 88.0039 0.438196 
-9.65263 88.1086 0.462833 -10.8417 88.1151 0.431837 -11.6931 88.0104 0.462871 
-12.4323 87.8929 0.405801 -13.4105 87.8005 0.593228 -14.2498 87.3363 0.538542 
-6.82584 87.9186 -0.564786 -6.1765 87.533 -0.803477 -7.7165 88.0515 -0.566033 
-8.73605 88.0155 -0.573884 -9.56747 87.9931 -0.403836 -10.4217 87.8888 -0.592231 
-11.5063 87.8216 -0.303613 -12.2903 87.3452 -0.588829 -13.0117 87.5262 -0.134504 
-13.6868 87.3814 -0.0614387 -6.81848 87.8233 -1.49354 -6.32763 87.469 -1.64567 
-7.52414 88.0249 -1.38712 -8.44259 87.9162 -1.61828 -9.55799 87.8165 -1.33705 
-10.3135 87.3037 -1.58578 -11.0119 87.5123 -1.10383 -11.6547 87.3607 -1.01549 
-6.83037 87.5865 -2.17087 -7.26477 87.4187 -2.73637 -7.57641 87.7706 -2.23153 
-8.31385 87.5646 -2.42451 -9.06932 87.4935 -2.16262 -9.74061 87.2934 -2.03636 
-7.87395 87.3888 -2.84664 -10.8196 87.8099 -3.87122 -10.7582 87.4096 -3.32307 
-10.1494 87.3956 -3.48369 -11.2659 87.336 -3.33237 -9.98033 87.7758 -4.30504 
-9.54568 87.428 -4.10945 -9.45783 87.4516 -4.72565 -10.5702 87.9042 -4.56677 
-11.5991 87.6215 -3.94475 -11.3927 87.7871 -4.48764 -12.0309 87.4704 -4.38205 
-10.0157 87.5564 -5.01057 -10.9631 87.5471 -5.0652 -11.8249 87.4391 -4.8892 
-9.87337 86.8336 9.30553 -9.78948 86.5078 9.91956 -9.20319 86.4874 9.47937 
-10.9691 86.8644 9.39238 -10.4761 86.4896 10.0235 -11.8922 86.7906 9.22999 
-11.6369 86.277 10.0143 -12.2997 86.354 9.55903 -8.79177 86.8306 8.49892 
-8.48884 86.4526 8.8786 -8.0481 86.5844 8.26719 -9.69723 87.1313 8.39627 
-10.6876 87.1533 8.6777 -11.7597 87.1318 8.45849 -12.5452 86.5878 9.04672 
-12.7365 86.8486 8.34505 -13.1106 86.4588 8.62833 -7.9236 86.8007 7.63766 
-7.56625 86.3534 8.00713 -7.35739 86.3543 7.39441 -8.73977 87.1719 7.60246 
-12.818 87.1931 7.43434 -13.7478 86.3478 8.07104 -13.7757 86.8438 7.32418 
-14.2942 86.3823 7.50241 -7.79845 87.0727 6.77902 -7.25569 86.557 6.40239 
-13.8136 87.1934 6.39721 -14.7658 86.3263 7.05285 -14.7502 86.8612 6.33751 
-15.2831 86.3785 6.53765 -7.18072 86.5241 5.4381 -14.7212 87.1295 5.34316 
-15.7679 86.3509 6.07278 -15.754 86.8457 5.34509 -16.277 86.3549 5.53346 
-7.0655 86.5772 4.4108 -15.0222 87.2006 4.26114 -15.7571 87.0249 4.44246 
-16.7472 86.3332 5.06053 -16.7821 86.833 4.36112 -17.3349 86.3673 4.54908 
-6.75096 86.9495 3.62648 -6.70655 86.1814 3.89833 -6.37645 86.7383 3.20922 
-15.7524 87.1114 3.35329 -16.5732 86.9861 3.61884 -17.6176 86.5798 4.04611 
-17.4216 86.7728 3.37326 -18.0531 86.4419 3.63993 -5.98426 86.6451 2.44116 
-15.5725 87.1377 2.22872 -16.5473 86.8403 2.48809 -17.3571 86.5794 2.61203 
-17.9286 86.4542 3.0531 -5.72084 86.8415 1.59076 -5.6049 86.3281 2.09432 
-5.40101 86.3514 1.41946 -14.9718 87.1931 1.23184 -15.8293 86.8786 1.40041 
-16.3603 86.4439 1.36838 -16.9031 86.4456 2.01956 -5.67958 87.0131 0.762289 
-5.31148 86.3826 0.471026 -14.828 87.0112 0.497597 -15.3874 86.8079 0.559759 
-15.956 86.4996 0.68062 -5.66582 87.0381 -0.247458 -5.17585 86.4218 -0.64325 
-12.7995 87.1214 -0.588169 -13.378 86.9597 -0.566592 -14.1381 86.772 -0.375987 
-14.9552 86.4421 -0.0796997 -15.6836 86.2668 0.175168 -5.76599 87.0319 -1.41648 
-5.15591 86.3599 -1.83511 -10.9266 87.08 -1.69732 -11.7065 87.0171 -1.68338 
-12.1992 86.7498 -1.35234 -12.9029 86.4021 -1.06973 -13.8516 86.1819 -0.852116 
-5.79289 86.811 -2.46849 -5.35684 86.226 -2.75461 -6.55836 87.1889 -2.49675 
-8.68519 87.1433 -2.91952 -9.71769 87.0322 -2.72045 -10.274 86.4561 -2.39237 
-10.7052 86.3778 -2.138 -11.0142 86.1079 -2.45037 -11.5254 86.872 -2.57728 
-12.6952 86.4012 -1.89757 -12.7755 86.8617 -2.50745 -13.9662 86.8775 -2.64406 
-13.6781 86.3176 -2.15738 -15.0002 86.905 -2.6373 -14.7066 86.3253 -2.16194 
-16.0063 86.9258 -2.64028 -15.704 86.374 -2.12618 -16.9283 86.8322 -2.76074 
-16.4999 86.5288 -2.2171 -17.2616 86.3482 -2.30085 -5.82958 86.5841 -3.10306 
-6.15049 86.5181 -3.5241 -6.61114 86.8311 -3.41705 -7.77275 87.0726 -3.43187 
-8.72156 86.9756 -3.56621 -9.35427 87.1079 -3.50111 -10.7398 86.5882 -2.8556 
-12.0201 87.23 -3.70872 -12.7418 87.0186 -3.53967 -13.7297 87.0276 -3.52305 
-14.7188 87.0645 -3.53329 -15.7171 87.0706 -3.51282 -16.5807 87.034 -3.38724 
-17.6165 86.5913 -2.91593 -17.4246 86.7749 -3.63895 -18.0383 86.4502 -3.34847 
-6.55803 86.3878 -4.06465 -7.13365 86.5288 -4.9177 -7.65918 86.874 -4.52561 
-8.84386 87.0884 -4.42296 -12.5989 87.1031 -4.69897 -13.7107 87.0054 -4.55823 
-14.7052 87.0214 -4.56782 -15.5419 87.0347 -4.41993 -16.5296 86.8596 -4.51357 
-17.383 86.5546 -4.41511 -17.9348 86.4264 -3.94323 -7.71594 86.789 -5.38457 
-7.32948 86.5564 -5.49458 -8.45764 86.8749 -5.45308 -9.42846 87.0245 -5.43877 
-10.4484 87.0242 -5.58198 -11.6294 87.0009 -5.45571 -12.5581 86.8167 -5.54337 
-13.4531 86.8394 -5.42288 -14.4689 86.8414 -5.44553 -15.5518 86.8093 -5.37144 
-16.3057 86.5451 -5.44283 -16.927 86.4357 -5.01418 -7.7416 86.4142 -6.00162 
-8.93537 86.5265 -6.12527 -9.94377 86.4982 -6.10462 -10.9555 86.4804 -6.06816 
-11.9913 86.4746 -6.04464 -13.0109 86.4842 -6.05137 -14.0132 86.5001 -6.08178 
-15.0102 86.4842 -6.10091 -15.818 86.4177 -5.94768 -9.82795 85.9905 10.2917 
-9.65198 85.3926 10.8062 -9.13227 85.5634 10.2923 -10.9979 85.9676 10.5076 
-10.4709 85.4684 10.992 -11.6683 85.8489 10.4963 -11.4268 85.4753 10.9391 
-12.1131 85.5516 10.5593 -7.9067 85.7375 9.48516 -7.69468 85.2952 9.93584 
-7.39098 85.3574 9.37807 -8.67637 86.0036 9.57383 -8.37379 85.4759 10.0415 
-13.0609 86.0835 9.27254 -12.6267 85.7659 9.98174 -13.759 85.718 9.18909 
-13.4514 85.4708 9.85619 -14.0541 85.1512 9.65259 -7.82932 86.071 8.79031 
-7.27677 85.531 8.40605 -13.5994 86.0749 8.6766 -14.2358 85.4185 8.70201 
-7.1877 85.4653 7.47148 -14.7049 86.0195 7.43234 -14.5297 85.7654 7.85723 
-15.1076 85.2502 7.53958 -7.19197 85.4784 6.5099 -15.7279 86.0301 6.4506 
-15.6471 85.5348 6.82865 -16.2314 85.4693 6.42035 -7.1937 85.4956 5.50738 
-11.7027 85.8029 5.21315 -11.3202 85.4503 5.35127 -11.7654 85.2577 5.9681 
-12.1909 85.4367 5.43567 -16.699 85.986 5.43006 -16.7242 85.4507 5.92405 
-17.184 85.4724 5.43252 -19.8899 85.6634 5.53719 -19.5755 85.4371 5.81272 
-19.3923 85.4896 5.47861 -20.49 85.6611 5.39928 -20.3461 85.5039 5.9059 
-20.9902 85.4441 5.62697 -7.06514 85.4866 4.63065 -11.5427 85.7912 4.70342 
-11.3097 85.2144 4.43265 -12.0916 85.6247 4.79164 -18.0814 86.0617 4.30495 
-17.5647 85.7265 4.96842 -18.9302 85.7504 4.2144 -18.3922 85.442 4.91196 
-19.9334 85.4418 5.06624 -19.1369 85.3724 4.64272 -20.8423 85.4247 5.11423 
-6.70303 85.2236 3.99874 -6.18769 85.7787 3.32572 -11.7882 85.5151 4.23876 
-18.503 86.1199 3.39742 -19.5874 85.5227 4.07313 -19.4154 85.7435 3.35382 
-19.9943 85.4224 3.62158 -5.7462 85.9043 2.68442 -5.70066 85.1579 2.94881 
-5.39398 85.6674 2.23264 -10.7255 85.7306 2.28908 -10.3856 85.5625 2.22 
-10.58 85.3135 2.66832 -11.1198 85.3378 2.64037 -17.6794 86.2128 2.34743 
-18.5784 85.8518 2.37691 -19.3917 85.3338 2.37044 -19.9174 85.4178 3.0303 
-5.07618 85.5174 1.36142 -10.6208 85.7621 1.7265 -10.2964 85.3861 1.53158 
-11.1424 85.5651 1.79722 -16.8462 86.0339 1.42544 -17.6186 85.8335 1.59024 
-18.2511 85.5987 1.59368 -18.782 85.3917 1.82934 -4.96574 85.7663 0.260415 
-10.8225 85.511 1.19433 -16.2609 85.6135 0.450964 -17.0121 85.3421 0.90329 
-17.8642 85.2465 1.15519 -4.7505 85.8734 -0.47726 -4.59194 85.3573 0.0457686 
-4.37843 85.3731 -0.622594 -14.5496 86.0485 -0.621761 -15.1749 85.3633 -0.701927 
-15.6739 85.5362 -0.23098 -4.69226 85.9768 -1.23967 -4.33694 85.2176 -1.62942 
-12.7881 86.0351 -1.61649 -13.2436 85.5265 -1.52328 -13.8101 85.277 -1.23309 
-14.4451 85.456 -0.904586 -17.8428 85.8078 -1.8443 -17.6258 85.1355 -1.28494 
[...]
CELL_DATA 56256
SCALARS scalars float
LOOKUP_TABLE default
1028 1028 1028 1028 1028 1028 1028 1028 1028 
1028 1028 1028 1028 1028 1028 1028 1028 1028 
1028 1028 1028 1028 1028 1028 1028 1028 1028 
1028 1028 1028 1028 1028 1028 1028 1028 1028 
1028 1028 1028 1028 1028 1028 1028 1028 1028 
1028 1028 1028 1028 1028 1028 1028 1028 1028 
1028 1028 1028 1028 1028 1028 1028 1028 1028 
1028 1028 1028 1028 1028 1028 1028 1028 1028 
1028 1028 1028 1028 1028 1028 1028 1028 1028 
1028 1028 1028 1028 1028 1028 1028 1028 1028 
1028 1028 1028 1028 1028 1028 1028 1028 1028 
1028 1028 1028 1028 1028 1028 1028 1028 1028 
1028 1028 1028 1028 1028 1028 1028 1028 1028 
1028 1028 1028 1028 1028 1028 1028 1028 1028 
1028 1028 1028 1028 1028 1028 1028 1028 1028 
1028 1028 1028 1028 1028 1028 1028 1028 1028 
1028 1028 1028 1028 1028 1028 1028 1028 1028 
1028 1028 1028 1028 1028 1028 1028 1028 1028 
1028 1028 1028 1028 1028 1028 1028 1028 1028 
1028 1028 1028 1028 1028 1028 1028 1028 1028 
1028 1028 1028 1028 1028 1028 1028 1028 1028 
1028 1028 1028 1028 1028 1028 1028 1028 1028 
1028 1028 1028 1028 1028 1028 1028 1028 1028 
1028 1028 1028 1028 1028 1028 1028 1028 1028 
1028 1028 1028 1028 1028 1028 1028 1028 1028 
1028 1028 1028 1028 1028 1028 1028 1028 1028 
1028 1028 1028 1028 1028 1028 1028 1028 1028 
1028 1028 1028 1028 1028 1028 1028 1028 1028 
1028 1028 1028 1028 1028 1028 1028 1028 1028 
1028 1028 1028 1028 1028 1028 1028 1028 1028 
1028 1028 1028 1028 1028 1028 1028 1028 1028 
1028 1028 1028 1028 1028 1028 1028 1028 1028 
1028 1028 1028 1028 1028 1028 1028 1028 1028 
1028 1028 1028 1028 1028 1028 1028 1028 1028 
1028 1028 1028 1028 1028 1028 1028 1028 1028 
1028 1028 1028 1028 1028 1028 1028 1028 1028 
1028 1028 1028 1028 1028 1028 1028 1028 1028 
1028 1028 1028 1028 1028 1028 1028 1028 1028 
1028 1028 1028 1028 1028 1028 1028 1028 1028 
1028 1028 1028 1028 1028 1028 1028 1028 1028 
1028 1028 1028 1028 1028 1028 1028 1028 1028 
1028 1028 1028 1028 1028 1028 1028 1028 1028 
1028 1028 1028 1028 1028 1028 1028 1028 1028 
1028 1028 1028 1028 1028 1028 1028 1028 1028 
1028 1028 1028 1028 1028 1028 1028 1028 1028 
1028 1028 1028 1028 1028 1028 1028 1028 1028 
1028 1028 1028 1028 1028 1028 1028 1028 1028 
1028 1028 1028 1028 1028 1028 1028 1028 1028 
1028 1028 1028 1028 1028 1028 1028 1028 1028 
1028 1028 1028 1028 1028 1028 1028 1028 1028 
1028 1028 1028 1028 1028 1028 1028 1028 1028 
1028 1028 1028 1028 1028 1028 1028 1028 1028 
1028 1028 1028 1028 1028 1028 1028 1028 1028 
1028 1028 1028 1028 1028 1028 1028 1028 1028 
1028 1028 1028 1028 1028 1028 1028 1028 1028 
1028 1028 1028 1028 1028 1028 1028 1028 1028 
1028 1028 1028 1028 1028 1028 1028 1028 1028 
1028 1028 1028 1028 1028 1028 1028 1028 1028 
1028 1028 1028 1028 1028 1028 1028 1028 1028 
1028 1028 1028 1028 1028 1028 1028 1028 1028 
1028 1028 1028 1028 1028 1028 1028 1028 1028 
1028 1028 1028 1028 1028 1028 1028 1028 1028 
1028 1028 1028 1028 1028 1028 1028 1028 1028 
1028 1028 1028 1028 1028 1028 1028 1028 1028 
1028 1028 1028 1028 1028 1028 1028 1028 1028 
1028 1028 1028 1028 1028 1028 1028 1028 1028 
1028 1028 1028 1028 1028 1028 1028 1028 1028 
1028 1028 1028 1028 1028 1028 1028 1028 1028 
1028 1028 1028 1028 1028 1028 1028 1028 1028 
1028 1028 1028 1028 1028 1028 1028 1028 1028 
1028 1028 1028 1028 1028 1028 1028 1028 1028 
1028 1028 1028 1028 1028 1028 1028 1028 1028 
1028 1028 1028 1028 1028 1028 1028 1028 1028 
1028 1028 1028 1028 1028 1028 1028 1028 1028 
1028 1028 1028 1028 1028 1028 1028 1028 1028 
1028 1028 1028 1028 1028 1028 1028 1028 1028 
1028 1028 1028 1028 1028 1028 1028 1028 1028 
1028 1028 1028 1028 1028 1028 1028 1028 1028 
1028 1028 1028 1028 1028 1028 1028 1028 1028 
1028 1028 1028 1028 1028 1028 1028 1028 1028 
1028 1028 1028 1028 1028 1028 1028 1028 1028 
1028 1028 1028 1028 1028 1028 1028 1028 1028 
1028 1028 1028 1028 1028 1028 1028 1028 1028 
1028 1028 1028 1028 1028 1028 1028 1028 1028 
1028 1028 1028 1028 1028 1028 1028 1028 1028 
1028 1028 1028 1028 1028 1028 1028 1028 1028 
1028 1028 1028 1028 1028 1028 1028 1028 1028 
1028 1028 1028 1028 1028 1028 1028 1028 1028 
1028 1028 1028 1028 1028 1028 1028 1028 1028 
1028 1028 1028 1028 1028 1028 1028 1028 1028 
1028 1028 1028 1028 1028 1028 1028 1028 1028 
1028 1028 1028 1028 1028 1028 1028 1028 1028 
1028 1028 1028 1028 1028 1028 1028 1028 1028 
1028 1028 1028 1028 1028 1028 1028 1028 1028 
1028 1028 1028 1028 1028 1028 1028 1028 1028 
1028 1028 1028 1028 1028 1028 1028 1028 1028 
1028 1028 1028 1028 1028 1028 1028 1028 1028 
1028 1028 1028 1028 1028 1028 1028 1028 1028 
1028 1028 1028 1028 1028 1028 1028 1028 1028 
1028 1028 1028 1028 1028 1028 1028 1028 1028 
1028 1028 1028 1028 1028 1028 1028 1028 1028 
1028 1028 1028 1028 1028 1028 1028 1028 1028 
1028 1028 1028 1028 1028 1028 1028 1028 1028 
1028 1028 1028 1028 1028 1028 1028 1028 1028 
1028 1028 1028 1028 1028 1028 1028 1028 1028 
1028 1028 1028 1028 1028 1028 1028 1028 1028 
1028 1028 1028 1028 1028 1028 1028 1028 1028 
1028 1028 1028 1028 1028 1028 1028 1028 1028 
1028 1028 1028 1028 1028 1028 1028 1028 1028 
1028 1028 1028 1028 1028 1028 1028 1028 1028 
1028 1028 1028 1028 1028 1028 1028 1028 1028 
1028 1028 1028 1028 1028 1028 1028 1028 1028 
1028 1028 1028 1028 1028 1028 1028 1028 1028 
1028 1028 1028 1028 1028 1028 1028 1028 1028 
1028 1028 1028 1028 1028 1028 1028 1028 1028 
1028 1028 1028 1028 1028 1028 1028 1028 1028 
1028 1028 1028 1028 1028 1028 1028 1028 1028 
1028 1028 1028 1028 1028 1028 1028 1028 1028 
1028 1028 1028 1028 1028 1028 1028 1028 1028 
1028 1028 1028 1028 1028 1028 1028 1028 1028 
1028 1028 1028 1028 1028 1028 1028 1028 1028 
1028 1028 1028 1028 1028 1028 1028 1028 1028 
1028 1028 1028 1028 1028 1028 1028 1028 1028 
1028 1028 1028 1028 1028 1028 1028 1028 1028 
1028 1028 1028 1028 1028 1028 1028 1028 1028 
1028 1028 1028 1028 1028 1028 1028 1028 1028 
1028 1028 1028 1028 1028 1028 1028 1028 1028 
1028 1028 1028 1028 1028 1028 1028 1028 1028 
1028 1028 1028 1028 1028 1028 1028 1028 1028 
1028 1028 1028 1028 1028 1028 1028 1028 1028 
1028 1028 1028 1028 1028 1028 1028 1028 1028 
1028 1028 1028 1028 1028 1028 1028 1028 1028 
1028 1028 1028 1028 1028 1028 1028 1028 1028 
1028 1028 1028 1028 1028 1028 1028 1028 1028 
1028 1028 1028 1028 1028 1028 1028 1028 1028 
1028 1028 1028 1028 1028 1028 1028 1028 1028 
1028 1028 1028 1028 1028 1028 1028 1028 1028 
1028 1028 1028 1028 1028 1028 1028 1028 1028 
1028 1028 1028 1028 1028 1028 1028 1028 1028 
1028 1028 1028 1028 1028 1028 1028 1028 1028 
1028 1028 1028 1028 1028 1028 1028 1028 1028 
1028 1028 1028 1028 1028 1028 1028 1028 1028 
1028 1028 1028 1028 1028 1028 1028 1028 1028 
1028 1028 1028 1028 1028 1028 1028 1028 1028 
1028 1028 1028 1028 1028 1028 1028 1028 1028 
1028 1028 1028 1028 1028 1028 1028 1028 1028 
1028 1028 1028 1028 1028 1028 1028 1028 1028 
1028 1028 1028 1028 1028 1028 1028 1028 1028 
1028 1028 1028 1028 1028 1028 1028 1028 1028 
1028 1028 1028 1028 1028 1028 1028 1028 1028 
1028 1028 1028 1028 1028 1028 1028 1028 1028 
1028 1028 1028 1028 1028 1028 1028 1028 1028 
1028 1028 1028 1028 1028 1028 1028 1028 1028 
1028 1028 1028 1028 1028 1028 1028 1028 1028 
1028 1028 1028 1028 1028 1028 1028 1028 1028 
1028 1028 1028 1028 1028 1028 1028 1028 1028 
1028 1028 1028 1028 1028 1028 1028 1028 1028 
1028 1028 1028 1028 1028 1028 1028 1028 1028 
1028 1028 1028 1028 1028 1028 1028 1028 1028 
1028 1028 1028 1028 1028 1028 1028 1028 1028 
1028 1028 1028 1028 1028 1028 1028 1028 1028 
1028 1028 1028 1028 1028 1028 1028 1028 1028 
1028 1028 1028 1028 1028 1028 1028 1028 1028 
1028 1028 1028 1028 1028 1028 1028 1028 1028 
1028 1028 1028 1028 1028 1028 1028 1028 1028 
1028 1028 1028 1028 1028 1028 1028 1028 1028 
1028 1028 1028 1028 1028 1028 1028 1028 1028 
1028 1028 1028 1028 1028 1028 1028 1028 1028 
1028 1028 1028 1028 1028 1028 1028 1028 1028 
1028 1028 1028 1028 1028 1028 1028 1028 1028 
1028 1028 1028 1028 1028 1028 1028 1028 1028 
1028 1028 1028 1028 1028 1028 1028 1028 1028 
1028 1028 1028 1028 1028 1028 1028 1028 1028 
1028 1028 1028 1028 1028 1028 1028 1028 1028 
1028 1028 1028 1028 1028 1028 1028 1028 1028 
1028 1028 1028 1028 1028 1028 1028 1028 1028 
1028 1028 1028 1028 1028 1028 1028 1028 1028 
1028 1028 1028 1028 1028 1028 1028 1028 1028 
1028 1028 1028 1028 1028 1028 1028 1028 1028 
1028 1028 1028 1028 1028 1028 1028 1028 1028 
1028 1028 1028 1028 1028 1028 1028 1028 1028 
1028 1028 1028 1028 1028 1028 1028 1028 1028 
1028 1028 1028 1028 1028 1028 1028 1028 1028 
1028 1028 1028 1028 1028 1028 1028 1028 1028 
1028 1028 1028 1028 1028 1028 1028 1028 1028 
1028 1028 1028 1028 1028 1028 1028 1028 1028 
1028 1028 1028 1028 1028 1028 1028 1028 1028 
1028 1028 1028 1028 1028 1028 1028 1028 1028 
1028 1028 1028 1028 1028 1028 1028 1028 1028 
1028 1028 1028 1028 1028 1028 1028 1028 1028 
1028 1028 1028 1028 1028 1028 1028 1028 1028 
1028 1028 1028 1028 1028 1028 1028 1028 1028 
1028 1028 1028 1028 1028 1028 1028 1028 1028 
1028 1028 1028 1028 1028 1028 1028 1028 1028 
1028 1028 1028 1028 1028 1028 1028 1028 1028 
1028 1028 1028 1028 1028 1028 1028 1028 1028 
1028 1028 1028 1028 1028 1028 1028 1028 1028 
1028 1028 1028 1028 1028 1028 1028 1028 1028 
1028 1028 1028 1028 1028 1028 1028 1028 1028 
1028 1028 1028 1028 1028 1028 1028 1028 1028 
1028 1028 1028 1028 1028 1028 1028 1028 1028 
1028 1028 1028 1028 1028 1028 1028 1028 1028 
1028 1028 1028 1028 1028 1028 1028 1028 1028 
1028 1028 1028 1028 1028 1028 1028 1028 1028 
1028 1028 1028 1028 1028 1028 1028 1028 1028 
1028 1028 1028 1028 1028 1028 1028 1028 1028 
1028 1028 1028 1028 1028 1028 1028 1028 1028 
1028 1028 1028 1028 1028 1028 1028 1028 1028 
1028 1028 1028 1028 1028 1028 1028 1028 1028 
1028 1028 1028 1028 1028 1028 1028 1028 1028 
1028 1028 1028 1028 1028 1028 1028 1028 1028 
1028 1028 1028 1028 1028 1028 1028 1028 1028 
1028 1028 1028 1028 1028 1028 1028 1028 1028 
1028 1028 1028 1028 1028 1028 1028 1028 1028 
1028 1028 1028 1028 1028 1028 1028 1028 1028 
1028 1028 1028 1028 1028 1028 1028 1028 1028 
1028 1028 1028 1028 1028 1028 1028 1028 1028 
1028 1028 1028 1028 1028 1028 1028 1028 1028 
1028 1028 1028 1028 1028 1028 1028 1028 1028 
1028 1028 1028 1028 1028 1028 1028 1028 1028 
1028 1028 1028 1028 1028 1028 1028 1028 1028 
1028 1028 1028 1028 1028 1028 1028 1028 1028 
1028 1028 1028 1028 1028 1028 1028 1028 1028 
1028 1028 1028 1028 1028 1028 1028 1028 1028 
1028 1028 1028 1028 1028 1028 1028 1028 1028 
1028 1028 1028 1028 1028 1028 1028 1028 1028 
1028 1028 1028 1028 1028 1028 1028 1028 1028 
1028 1028 1028 1028 1028 1028 1028 1028 1028 
1028 1028 1028 1028 1028 1028 1028 1028 1028 
1028 1028 1028 1028 1028 1028 1028 1028 1028 
1028 1028 1028 1028 1028 1028 1028 1028 1028 
1028 1028 1028 1028 1028 1028 1028 1028 1028 
1028 1028 1028 1028 1028 1028 1028 1028 1028 
1028 1028 1028 1028 1028 1028 1028 1028 1028 
1028 1028 1028 1028 1028 1028 1028 1028 1028 
1028 1028 1028 1028 1028 1028 1028 1028 1028 
1028 1028 1028 1028 1028 1028 1028 1028 1028 
1028 1028 1028 1028 1028 1028 1028 1028 1028 
1028 1028 1028 1028 1028 1028 1028 1028 1028 
1028 1028 1028 1028 1028 1028 1028 1028 1028 
1028 1028 1028 1028 1028 1028 1028 1028 1028 
1028 1028 1028 1028 1028 1028 1028 1028 1028 
1028 1028 1028 1028 1028 1028 1028 1028 1028 
1028 1028 1028 1028 1028 1028 1028 1028 1028 
1028 1028 1028 1028 1028 1028 1028 1028 1028 
1028 1028 1028 1028 1028 1028 1028 1028 1028 
1028 1028 1028 1028 1028 1028 1028 1028 1028 
1028 1028 1028 1028 1028 1028 1028 1028 1028 
1028 1028 1028 1028 1028 1028 1028 1028 1028 
1028 1028 1028 1028 1028 1028 1028 1028 1028 
1028 1028 1028 1028 1028 1028 1028 1028 1028 
1028 1028 1028 1028 1028 1028 1028 1028 1028 
1028 1028 1028 1028 1028 1028 1028 1028 1028 
1028 1028 1028 1028 1028 1028 1028 1028 1028 
1028 1028 1028 1028 1028 1028 1028 1028 1028 
1028 1028 1028 1028 1028 1028 1028 1028 1028 
1028 1028 1028 1028 1028 1028 1028 1028 1028 
1028 1028 1028 1028 1028 1028 1028 1028 1028 
1028 1028 1028 1028 1028 1028 1028 1028 1028 
1028 1028 1028 1028 1028 1028 1028 1028 1028 
1028 1028 1028 1028 1028 1028 1028 1028 1028 
1028 1028 1028 1028 1028 1028 1028 1028 1028 
1028 1028 1028 1028 1028 1028 1028 1028 1028 
1028 1028 1028 1028 1028 1028 1028 1028 1028 
1028 1028 1028 1028 1028 1028 1028 1028 1028 
1028 1028 1028 1028 1028 1028 1028 1028 1028 
1028 1028 1028 1028 1028 1028 1028 1028 1028 
1028 1028 1028 1028 1028 1028 1028 1028 1028 
1028 1028 1028 1028 1028 1028 1028 1028 1028 
1028 1028 1028 1028 1028 1028 1028 1028 1028 
1028 1028 1028 1028 1028 1028 1028 1028 1028 
1028 1028 1028 1028 1028 1028 1028 1028 1028 
1028 1028 1028 1028 1028 1028 1028 1028 1028 
1028 1028 1028 1028 1028 1028 1028 1028 1028 
1028 1028 1028 1028 1028 1028 1028 1028 1028 
1028 1028 1028 1028 1028 1028 1028 1028 1028 
1028 1028 1028 1028 1028 1028 1028 1028 1028 
1028 1028 1028 1028 1028 1028 1028 1028 1028 
1028 1028 1028 1028 1028 1028 1028 1028 1028 
1028 1028 1028 1028 1028 1028 1028 1028 1028 
1028 1028 1028 1028 1028 1028 1028 1028 1028 
1028 1028 1028 1028 1028 1028 1028 1028 1028 
1028 1028 1028 1028 1028 1028 1028 1028 1028 
1028 1028 1028 1028 1028 1028 1028 1028 1028 
1028 1028 1028 1028 1028 1028 1028 1028 1028 
1028 1028 1028 1028 1028 1028 1028 1028 1028 
1028 1028 1028 1028 1028 1028 1028 1028 1028 
1028 1028 1028 1028 1028 1028 1028 1028 1028 
1028 1028 1028 1028 1028 1028 1028 1028 1028 
1028 1028 1028 1028 1028 1028 1028 1028 1028 
1028 1028 1028 1028 1028 1028 1028 1028 1028 
1028 1028 1028 1028 1028 1028 1028 1028 1028 
1028 1028 1028 1028 1028 1028 1028 1028 1028 
1028 1028 1028 1028 1028 1028 1028 1028 1028 
1028 1028 1028 1028 1028 1028 1028 1028 1028 
1028 1028 1028 1028 1028 1028 1028 1028 1028 
1028 1028 1028 1028 1028 1028 1028 1028 1028 
1028 1028 1028 1028 1028 1028 1028 1028 1028 
1028 1028 1028 1028 1028 1028 1028 1028 1028 
1028 1028 1028 1028 1028 1028 1028 1028 1028 
1028 1028 1028 1028 1028 1028 1028 1028 1028 
1028 1028 1028 1028 1028 1028 1028 1028 1028 
1028 1028 1028 1028 1028 1028 1028 1028 1028 
1028 1028 1028 1028 1028 1028 1028 1028 1028 
1028 1028 1028 1028 1028 1028 1028 1028 1028 
1028 1028 1028 1028 1028 1028 1028 1028 1028 
1028 1028 1028 1028 1028 1028 1028 1028 1028 
1028 1028 1028 1028 1028 1028 1028 1028 1028 
1028 1028 1028 1028 1028 1028 1028 1028 1028 
1028 1028 1028 1028 1028 1028 1028 1028 1028 
1028 1028 1028 1028 1028 1028 1028 1028 1028 
1028 1028 1028 1028 1028 1028 1028 1028 1028 
1028 1028 1028 1028 1028 1028 1028 1028 1028 
1028 1028 1028 1028 1028 1028 1028 1028 1028 
1028 1028 1028 1028 1028 1028 1028 1028 1028 
1028 1028 1028 1028 1028 1028 1028 1028 1028 
1028 1028 1028 1028 1028 1028 1028 1028 1028 
1028 1028 1028 1028 1028 1028 1028 1028 1028 
1028 1028 1028 1028 1028 1028 1028 1028 1028 
1028 1028 1028 1028 1028 1028 1028 1028 1028 
1028 1028 1028 1028 1028 1028 1028 1028 1028 
1028 1028 1028 1028 1028 1028 1028 1028 1028 
1028 1028 1028 1028 1028 1028 1028 1028 1028 
1028 1028 1028 1028 1028 1028 1028 1028 1028 
1028 1028 1028 1028 1028 1028 1028 1028 1028 
1028 1028 1028 1028 1028 1028 1028 1028 1028 
1028 1028 1028 1028 1028 1028 1028 1028 1028 
1028 1028 1028 1028 1028 1028 1028 1028 1028 
1028 1028 1028 1028 1028 1028 1028 1028 1028 
1028 1028 1028 1028 1028 1028 1028 1028 1028 
1028 1028 1028 1028 1028 1028 1028 1028 1028 
1028 1028 1028 1028 1028 1028 1028 1028 1028 
1028 1028 1028 1028 1028 1028 1028 1028 1028 
1028 1028 1028 1028 1028 1028 1028 1028 1028 
1028 1028 1028 1028 1028 1028 1028 1028 1028 
1028 1028 1028 1028 1028 1028 1028 1028 1028 
1028 1028 1028 1028 1028 1028 1028 1028 1028 
1028 1028 1028 1028 1028 1028 1028 1028 1028 
1028 1028 1028 1028 1028 1028 1028 1028 1028 
1028 1028 1028 1028 1028 1028 1028 1028 1028 
1028 1028 1028 1028 1028 1028 1028 1028 1028 
1028 1028 1028 1028 1028 1028 1028 1028 1028 
1028 1028 1028 1028 1028 1028 1028 1028 1028 
1028 1028 1028 1028 1028 1028 1028 1028 1028 
1028 1028 1028 1028 1028 1028 1028 1028 1028 
1028 1028 1028 1028 1028 1028 1028 1028 1028 
1028 1028 1028 1028 1028 1028 1028 1028 1028 
1028 1028 1028 1028 1028 1028 1028 1028 1028 
1028 1028 1028 1028 1028 1028 1028 1028 1028 
1028 1028 1028 1028 1028 1028 1028 1028 1028 
1028 1028 1028 1028 1028 1028 1028 1028 1028 
1028 1028 1028 1028 1028 1028 1028 1028 1028 
1028 1028 1028 1028 1028 1028 1028 1028 1028 
1028 1028 1028 1028 1028 1028 1028 1028 1028 
1028 1028 1028 1028 1028 1028 1028 1028 1028 
1028 1028 1028 1028 1028 1028 1028 1028 1028 
1028 1028 1028 1028 1028 1028 1028 1028 1028 
1028 1028 1028 1028 1028 1028 1028 1028 1028 
1028 1028 1028 1028 1028 1028 1028 1028 1028 
1028 1028 1028 1028 1028 1028 1028 1028 1028 
1028 1028 1028 1028 1028 1028 1028 1028 1028 
1028 1028 1028 1028 1028 1028 1028 1028 1028 
1028 1028 1028 1028 1028 1028 1028 1028 1028 
1028 1028 1028 1028 1028 1028 1028 1028 1028 
1028 1028 1028 1028 1028 1028 1028 1028 1028 
1028 1028 1028 1028 1028 1028 1028 1028 1028 
1028 1028 1028 1028 1028 1028 1028 1028 1028 
1028 1028 1028 1028 1028 1028 1028 1028 1028 
1028 1028 1028 1028 1028 1028 1028 1028 1028 
1028 1028 1028 1028 1028 1028 1028 1028 1028 
1028 1028 1028 1028 1028 1028 1028 1028 1028 
1028 1028 1028 1028 1028 1028 1028 1028 1028 
1028 1028 1028 1028 1028 1028 1028 1028 1028 
1028 1028 1028 1028 1028 1028 1028 1028 1028 
1028 1028 1028 1028 1028 1028 1028 1028 1028 
1028 1028 1028 1028 1028 1028 1028 1028 1028 
1028 1028 1028 1028 1028 1028 1028 1028 1028 
1028 1028 1028 1028 1028 1028 1028 1028 1028 
1028 1028 1028 1028 1028 1028 1028 1028 1028 
1028 1028 1028 1028 1028 1028 1028 1028 1028 
1028 1028 1028 1028 1028 1028 1028 1028 1028 
1028 1028 1028 1028 1028 1028 1028 1028 1028 
1028 1028 1028 1028 1028 1028 1028 1028 1028 
1028 1028 1028 1028 1028 1028 1028 1028 1028 
1028 1028 1028 1028 1028 1028 1028 1028 1028 
1028 1028 1028 1028 1028 1028 1028 1028 1028 
1028 1028 1028 1028 1028 1028 1028 1028 1028 
1028 1028 1028 1028 1028 1028 1028 1028 1028 
1028 1028 1028 1028 1028 1028 1028 1028 1028 
1028 1028 1028 1028 1028 1028 1028 1028 1028 
1028 1028 1028 1028 1028 1028 1028 1028 1028 
1028 1028 1028 1028 1028 1028 1028 1028 1028 
1028 1028 1028 1028 1028 1028 1028 1028 1028 
1028 1028 1028 1028 1028 1028 1028 1028 1028 
1028 1028 1028 1028 1028 1028 1028 1028 1028 
1028 1028 1028 1028 1028 1028 1028 1028 1028 
1028 1028 1028 1028 1028 1028 1028 1028 1028 
1028 1028 1028 1028 1028 1028 1028 1028 1028 
1028 1028 1028 1028 1028 1028 1028 1028 1028 
1028 1028 1028 1028 1028 1028 1028 1028 1028 
1028 1028 1028 1028 1028 1028 1028 1028 1028 
1028 1028 1028 1028 1028 1028 1028 1028 1028 
1028 1028 1028 1028 1028 1028 1028 1028 1028 
1028 1028 1028 1028 1028 1028 1028 1028 1028 
1028 1028 1028 1028 1028 1028 1028 1028 1028 
1028 1028 1028 1028 1028 1028 1028 1028 1028 
1028 1028 1028 1028 1028 1028 1028 1028 1028 
1028 1028 1028 1028 1028 1028 1028 1028 1028 
1028 1028 1028 1028 1028 1028 1028 1028 1028 
1028 1028 1028 1028 1028 1028 1028 1028 1028 
1028 1028 1028 1028 1028 1028 1028 1028 1028 
1028 1028 1028 1028 1028 1028 1028 1028 1028 
1028 1028 1028 1028 1028 1028 1028 1028 1028 
1028 1028 1028 1028 1028 1028 1028 1028 1028 
1028 1028 1028 1028 1028 1028 1028 1028 1028 
1028 1028 1028 1028 1028 1028 1028 1028 1028 
1028 1028 1028 1028 1028 1028 1028 1028 1028 
1028 1028 1028 1028 1028 1028 1028 1028 1028 
1028 1028 1028 1028 1028 1028 1028 1028 1028 
1028 1028 1028 1028 1028 1028 1028 1028 1028 
1028 1028 1028 1028 1028 1028 1028 1028 1028 
1028 1028 1028 1028 1028 1028 1028 1028 1028 
1028 1028 1028 1028 1028 1028 1028 1028 1028 
1028 1028 1028 1028 1028 1028 1028 1028 1028 
1028 1028 1028 1028 1028 1028 1028 1028 1028 
1028 1028 1028 1028 1028 1028 1028 1028 1028 
1028 1028 1028 1028 1028 1028 1028 1028 1028 
1028 1028 1028 1028 1028 1028 1028 1028 1028 
1028 1028 1028 1028 1028 1028 1028 1028 1028 
1028 1028 1028 1028 1028 1028 1028 1028 1028 
1028 1028 1028 1028 1028 1028 1028 1028 1028 
1028 1028 1028 1028 1028 1028 1028 1028 1028 
1028 1028 1028 1028 1028 1028 1028 1028 1028 