# vtk DataFile Version 4.2
vtk output
ASCII
DATASET POLYDATA
POINTS 1688 float
7.9616 -10.5464 85.7564 7.70502 -10.0792 85.5309 7.40316 -10.4835 85.4126 
8.88136 -10.6093 85.8955 8.34425 -9.96615 85.5522 9.92467 -10.6117 85.9131 
9.38178 -9.94229 85.5506 10.9657 -10.6266 85.9191 10.5803 -9.9501 85.4208 
11.9226 -10.7492 85.8508 11.6379 -10.1707 85.4145 12.3168 -10.3947 85.3916 
7.77166 -11.0897 85.6086 8.06621 -11.8498 85.5201 8.61938 -11.4773 85.9082 
9.69549 -11.5255 86.0562 10.7295 -11.5225 86.0764 11.7213 -11.5447 86.0726 
12.7855 -10.8683 85.3576 12.5723 -11.5675 85.8609 13.2023 -11.5043 85.4008 
8.82275 -12.4868 85.8009 8.36654 -12.6353 85.427 9.66244 -12.5258 86.0238 
10.6932 -12.5651 86.0567 11.7047 -12.5729 86.0441 12.5708 -12.5267 85.9095 
13.2276 -12.2652 85.5501 8.8787 -13.1443 85.5689 9.29749 -13.7287 85.4447 
9.52642 -13.3053 85.798 10.4581 -13.433 85.8803 11.4714 -13.4637 85.8722 
12.4066 -13.4364 85.7856 13.1718 -13.2198 85.513 10.0517 -14.0227 85.4927 
11.0208 -14.1135 85.506 12.0299 -14.0957 85.4954 12.8461 -13.9202 85.4117 
7.73185 -9.69477 85.0391 7.59897 -9.18077 84.1569 7.03363 -9.64957 84.6157 
8.93051 -9.44865 85.0432 8.70782 -9.12129 84.3367 9.968 -9.44895 85.0307 
9.75132 -9.1029 84.3965 10.8063 -9.53114 84.8469 10.5055 -9.22304 84.5104 
11.1765 -9.48142 84.156 6.89377 -10.4269 84.9261 6.55593 -9.89109 84.3942 
6.36367 -10.5668 84.3336 11.6604 -9.86374 84.5797 12.7417 -10.4576 85.0215 
12.4548 -10.1886 84.741 13.1095 -10.5759 84.324 6.79228 -11.4161 84.8062 
6.3663 -11.5736 84.1352 7.35155 -11.2953 85.2321 13.9144 -11.87 84.9719 
13.656 -11.1322 84.5567 14.2963 -11.4553 84.3166 18.0472 -11.6689 84.8626 
17.5965 -11.153 84.4857 17.2627 -11.8271 84.5444 18.7109 -11.7399 84.7858 
18.3872 -11.0527 84.534 19.0489 -11.4043 84.4354 6.83744 -12.0994 84.5737 
7.11121 -12.8527 84.512 7.60677 -12.3823 85.0139 13.8964 -12.8027 85.1832 
14.797 -11.9302 84.3125 14.7956 -12.6541 84.8548 15.3406 -12.4644 84.3521 
17.8322 -12.5299 84.9205 17.194 -12.7832 84.3404 18.602 -12.5193 84.9074 
19.2499 -12.277 84.5162 7.79146 -13.5433 84.8476 7.17832 -13.7909 84.4746 
8.58584 -13.4993 85.1771 13.705 -13.8385 85.1384 14.5644 -13.3994 85.0289 
15.5781 -12.9649 84.5621 15.3671 -13.6079 84.7945 16.0713 -13.4644 84.1148 
17.7305 -13.2856 84.794 17.4322 -13.7386 84.2328 18.3886 -13.3773 84.8656 
19.1691 -13.2398 84.5424 7.69805 -14.3076 84.7282 7.35264 -14.6155 84.4284 
8.56904 -14.5225 84.8655 9.48642 -14.3744 85.1207 10.5759 -14.7933 84.9805 
11.7164 -14.7108 85.1261 12.8592 -14.5876 85.12 13.7288 -14.5766 85.0079 
14.5191 -14.4767 84.8625 15.307 -14.3881 84.6241 15.8073 -14.1188 84.322 
18.0639 -13.9836 84.5633 18.803 -13.9181 84.4889 8.03031 -15.0153 84.5158 
8.79847 -15.271 84.5578 9.30334 -15.7282 84.3834 9.58726 -15.2101 84.7261 
10.317 -15.3928 84.5484 10.8781 -15.3073 84.5527 11.3127 -15.7023 84.4103 
11.5166 -15.2884 84.7664 12.4685 -15.4058 84.8675 13.5605 -15.3487 84.8122 
14.3245 -15.6174 84.3308 14.8928 -14.9691 84.4567 9.89239 -15.7859 84.3758 
12.0422 -15.9689 84.4984 12.9705 -16.1071 84.5159 13.6988 -16.1156 84.3533 
6.79493 -9.39518 84.0941 6.91065 -8.99512 83.3981 6.31964 -9.61744 83.5937 
7.65407 -8.99089 83.4846 8.54357 -8.90197 83.3451 9.71544 -8.98536 83.5246 
10.584 -9.14529 83.7667 11.2401 -9.52689 83.1907 19.8861 -9.63183 83.8502 
19.6276 -9.05318 83.1364 19.068 -9.54369 83.5528 20.977 -9.65956 83.8217 
20.495 -9.11752 83.4739 21.2475 -9.59872 83.1507 6.08291 -10.6778 83.3523 
11.892 -9.8827 83.4641 12.5993 -10.1773 83.742 13.2332 -10.5499 83.1468 
15.9495 -10.5347 83.7147 15.8504 -10.3314 83.4099 15.5017 -10.4986 83.5092 
16.814 -10.477 83.8524 16.7166 -10.2243 83.2982 17.753 -10.5656 84.0377 
17.5029 -10.1307 83.4887 18.9775 -10.4541 84.0237 18.3248 -9.87 83.3388 
19.9209 -10.6188 84.0348 20.7938 -10.4523 84.0247 21.6712 -10.0248 83.5749 
21.6811 -10.5553 83.8278 22.0089 -10.7202 83.4298 6.18349 -11.5509 83.475 
13.7058 -10.8668 83.5985 14.7207 -11.5239 83.9409 14.6024 -11.1228 83.371 
15.7561 -10.8922 83.5556 15.1289 -11.65 83.639 16.0479 -11.3644 83.2406 
16.5783 -11.3 83.9971 19.7689 -11.6185 84.1296 20.7542 -11.5157 84.0198 
21.6608 -11.5356 83.8889 22.0655 -11.5478 83.4934 6.61082 -12.4288 84.1551 
6.19226 -12.5139 83.4921 16.0559 -12.4574 83.9808 15.5465 -12.0003 83.7232 
16.6926 -12.2678 84.101 19.8961 -12.8263 84.1641 20.5994 -12.42 84.0098 
21.4608 -12.6231 83.83 22.0089 -12.3669 83.6085 6.66673 -13.274 84.0071 
6.16822 -13.7877 83.5071 16.5989 -13.0643 83.7408 16.4173 -13.6099 83.5079 
17.0074 -13.5769 83.5657 19.5407 -13.7854 84.1679 20.5675 -13.5461 83.8513 
21.4808 -13.4405 83.1798 21.844 -12.9039 83.5125 6.79523 -14.4665 84.0057 
6.1739 -14.8247 83.5135 15.7093 -14.8874 84.0639 16.3682 -14.4699 83.3511 
17.5966 -14.632 84.0979 17.0308 -14.6836 83.3734 18.5866 -14.633 84.0635 
19.6546 -14.4406 83.8208 20.3489 -14.6377 83.3618 20.8559 -14.17 83.3531 
6.80612 -15.5148 83.8096 6.26274 -15.4811 83.5061 7.64225 -15.5101 84.1257 
8.63888 -15.7449 84.2176 10.6001 -15.8849 84.215 14.9283 -15.445 84.0856 
15.5161 -15.5804 83.8482 16.5413 -14.9432 83.5464 16.6254 -15.3047 83.7967 
17.6359 -15.4189 83.8189 18.3351 -15.6361 83.3836 19.0056 -15.1272 83.5196 
19.6935 -15.0476 83.3642 6.56168 -16.0525 83.4023 7.17035 -16.5801 83.4938 
7.48219 -16.3183 83.7937 8.4337 -16.4379 83.8733 9.58738 -16.3397 83.991 
10.5496 -16.5596 83.8434 11.4266 -16.3995 84.009 12.4473 -16.586 84.0423 
13.3587 -16.6203 83.9521 14.1017 -16.4341 83.7687 14.877 -16.0995 83.6292 
15.8828 -15.9399 83.3985 16.8522 -15.7624 83.3065 17.6348 -16.0252 83.2623 
7.74086 -16.969 83.3388 8.97603 -17.0694 83.5053 9.99873 -17.071 83.5051 
10.9901 -17.0577 83.3364 11.9583 -16.9289 83.3857 12.9354 -16.9639 83.3708 
13.861 -16.9161 83.2354 6.80457 -8.57247 82.7294 6.53601 -8.20988 82.1204 
6.19336 -8.81812 82.6761 7.2395 -8.39838 82.3421 8.88484 -8.58795 82.7191 
8.62837 -8.24768 82.1585 8.27751 -8.60266 82.6636 9.32086 -8.42551 82.3279 
5.93472 -9.68677 82.7758 7.57479 -8.75619 82.8561 9.69474 -8.81958 82.6207 
10.5863 -9.15684 82.7806 11.2294 -9.55923 82.1689 18.7906 -9.31827 83.038 
19.0413 -9.19383 82.4831 18.4167 -9.50869 82.6138 19.8869 -9.06749 82.4134 
20.5944 -9.09105 82.756 21.0531 -9.68256 82.4151 5.76509 -10.3778 82.7113 
5.57551 -9.90862 82.2968 5.43442 -10.6356 82.113 11.8639 -9.93821 82.4127 
12.72 -10.2076 82.5253 13.3787 -10.4823 82.3213 14.8835 -10.6371 82.7004 
14.5898 -10.2798 82.1131 14.2894 -10.6275 82.6191 15.7531 -10.6703 83.2992 
15.3272 -10.4893 82.2857 16.3876 -10.6015 83.0018 17.0625 -10.4441 82.5157 
17.8178 -10.0046 82.3986 21.7643 -10.3868 83.1279 21.3229 -10.616 82.5231 
5.78355 -10.9638 82.6408 5.95952 -11.6556 82.8376 13.7937 -10.7604 82.7704 
15.544 -11.5135 83.1975 15.7446 -10.9995 82.5691 16.6385 -10.9041 82.3581 
21.8431 -11.3039 82.9679 21.2915 -11.8614 82.4715 5.78996 -12.4708 82.8081 
5.63112 -11.9851 82.3327 5.4157 -12.6272 82.3419 21.8023 -12.4325 83.1115 
21.3583 -12.7259 82.6363 5.7035 -13.2806 82.9719 5.17949 -13.6789 82.2852 
16.6542 -13.7023 83.2448 21.5035 -13.2247 82.4279 21.8127 -13.5876 82.7826 
21.8887 -13.5784 82.4992 5.65915 -14.283 83.0088 5.32723 -14.678 82.4717 
16.8013 -14.2216 83.0591 20.7607 -14.6264 83.0364 21.1995 -14.409 82.4384 
21.6929 -13.7964 82.4853 5.7849 -15.301 82.9986 5.34106 -15.5968 82.1382 
16.7295 -15.2756 83.085 16.4336 -15.8281 82.5333 16.7411 -15.0173 82.6636 
17.0028 -15.8437 82.5379 18.7908 -15.5807 83.1147 19.3618 -15.5521 82.9448 
20.1357 -15.4033 82.7714 20.7405 -15.1019 82.5489 5.91851 -16.0797 82.6508 
6.68701 -16.5734 82.9983 6.2278 -16.6738 82.4123 14.5712 -16.6918 83.165 
15.497 -16.5117 82.9284 16.5567 -16.444 82.6739 16.7188 -16.1009 82.4468 
17.432 -16.5424 82.7995 18.1477 -16.4159 82.8094 18.9432 -16.0918 82.4672 
19.9242 -15.8981 82.2004 6.92101 -17.1082 82.641 7.61468 -17.4768 82.7917 
7.27595 -17.7001 82.3856 8.45422 -17.5612 82.9872 9.48144 -17.5888 83.0263 
10.4067 -17.561 82.943 11.0322 -17.4737 82.6093 11.716 -17.1707 82.4018 
12.7065 -17.0731 82.5132 13.7098 -17.1031 82.4747 14.7887 -17.018 82.47 
15.837 -16.9362 82.452 16.7776 -16.8915 82.2075 17.9122 -16.9227 82.2502 
8.04537 -17.9993 82.4779 9.00115 -18.0852 82.5184 10.0119 -18.0606 82.3305 
10.713 -17.7994 82.2769 5.77129 -8.4505 81.982 5.86543 -8.14412 81.2909 
5.36944 -8.6737 81.5159 6.80779 -7.99168 81.3386 7.85031 -8.42808 82.276 
7.74325 -8.08429 81.6221 8.86822 -8.00852 81.3639 9.89929 -8.56741 81.9292 
9.4777 -8.20728 81.6866 10.1738 -8.5517 81.1453 5.61177 -9.13416 82.0936 
5.25288 -9.54233 81.5175 10.6769 -9.06185 81.6144 11.3754 -9.54484 81.3298 
18.7714 -9.69043 82.0682 19.7244 -9.58006 82.0225 20.5159 -9.41876 82.1567 
5.18765 -10.3652 81.2798 11.8575 -9.89674 81.4633 12.5211 -10.1016 81.6053 
13.8566 -10.4726 82.1868 13.5132 -10.0799 81.5217 14.6936 -9.91428 81.3459 
15.9066 -10.6261 81.8644 15.6223 -10.245 81.4972 16.3413 -10.5077 81.2726 
17.6713 -10.1845 81.1293 17.2008 -10.5438 81.7294 18.6244 -10.0916 81.5562 
19.6331 -10.453 81.81 19.2798 -10.6677 81.31 20.6112 -10.2034 82.028 
5.62697 -11.4022 82.2426 5.31395 -11.4992 81.6199 9.96235 -11.7975 81.843 
9.39818 -11.7995 81.6146 9.66236 -11.0512 81.2494 10.2708 -11.4222 81.4352 
16.5192 -10.7972 81.6796 19.7664 -11.5846 81.8268 19.2866 -11.7452 81.4985 
20.595 -11.291 82.0605 5.07727 -12.6141 81.5734 9.75789 -12.5886 82.0258 
9.26346 -12.5776 81.4803 10.754 -11.9127 81.3976 10.7064 -12.6736 81.955 
11.2891 -12.4555 81.4246 19.6148 -12.3459 81.7225 19.3685 -12.3051 81.2245 
20.5991 -12.4582 82.0188 4.7653 -13.4049 81.7679 4.64268 -13.1047 81.1679 
4.4323 -13.7905 81.2313 9.62137 -13.34 81.8905 9.3723 -13.447 81.2405 
10.356 -13.4584 82.0315 11.765 -12.9458 81.4161 11.34 -13.5278 81.8659 
12.1269 -13.5157 81.4418 19.9852 -12.7931 81.3884 20.9379 -13.1467 81.6149 
21.6251 -13.5046 82.0671 21.2835 -13.7414 81.5319 4.74675 -13.9702 81.6913 
4.98866 -14.7224 81.7223 10.0151 -13.908 81.4892 10.9719 -13.9814 81.5007 
11.9217 -13.9116 81.3504 21.2998 -14.4378 81.2662 4.99808 -15.701 81.4615 
[...]
CELL_DATA 3384
SCALARS scalars float
LOOKUP_TABLE default
1032 1032 1032 1032 1032 1032 1032 1032 1032 
1032 1032 1032 1032 1032 1032 1032 1032 1032 
1032 1032 1032 1032 1032 1032 1032 1032 1032 
1032 1032 1032 1032 1032 1032 1032 1032 1032 
1032 1032 1032 1032 1032 1032 1032 1032 1032 
1032 1032 1032 1032 1032 1032 1032 1032 1032 
1032 1032 1032 1032 1032 1032 1032 1032 1032 
1032 1032 1032 1032 1032 1032 1032 1032 1032 
1032 1032 1032 1032 1032 1032 1032 1032 1032 
1032 1032 1032 1032 1032 1032 1032 1032 1032 
1032 1032 1032 1032 1032 1032 1032 1032 1032 
1032 1032 1032 1032 1032 1032 1032 1032 1032 
1032 1032 1032 1032 1032 1032 1032 1032 1032 
1032 1032 1032 1032 1032 1032 1032 1032 1032 
1032 1032 1032 1032 1032 1032 1032 1032 1032 
1032 1032 1032 1032 1032 1032 1032 1032 1032 
1032 1032 1032 1032 1032 1032 1032 1032 1032 
1032 1032 1032 1032 1032 1032 1032 1032 1032 
1032 1032 1032 1032 1032 1032 1032 1032 1032 
1032 1032 1032 1032 1032 1032 1032 1032 1032 
1032 1032 1032 1032 1032 1032 1032 1032 1032 
1032 1032 1032 1032 1032 1032 1032 1032 1032 
1032 1032 1032 1032 1032 1032 1032 1032 1032 
1032 1032 1032 1032 1032 1032 1032 1032 1032 
1032 1032 1032 1032 1032 1032 1032 1032 1032 
1032 1032 1032 1032 1032 1032 1032 1032 1032 
1032 1032 1032 1032 1032 1032 1032 1032 1032 
1032 1032 1032 1032 1032 1032 1032 1032 1032 
1032 1032 1032 1032 1032 1032 1032 1032 1032 
1032 1032 1032 1032 1032 1032 1032 1032 1032 
1032 1032 1032 1032 1032 1032 1032 1032 1032 
1032 1032 1032 1032 1032 1032 1032 1032 1032 
1032 1032 1032 1032 1032 1032 1032 1032 1032 
1032 1032 1032 1032 1032 1032 1032 1032 1032 
1032 1032 1032 1032 1032 1032 1032 1032 1032 
1032 1032 1032 1032 1032 1032 1032 1032 1032 
1032 1032 1032 1032 1032 1032 1032 1032 1032 
1032 1032 1032 1032 1032 1032 1032 1032 1032 
1032 1032 1032 1032 1032 1032 1032 1032 1032 
1032 1032 1032 1032 1032 1032 1032 1032 1032 
1032 1032 1032 1032 1032 1032 1032 1032 1032 
1032 1032 1032 1032 1032 1032 1032 1032 1032 
1032 1032 1032 1032 1032 1032 1032 1032 1032 
1032 1032 1032 1032 1032 1032 1032 1032 1032 
1032 1032 1032 1032 1032 1032 1032 1032 1032 
1032 1032 1032 1032 1032 1032 1032 1032 1032 
1032 1032 1032 1032 1032 1032 1032 1032 1032 
1032 1032 1032 1032 1032 1032 1032 1032 1032 
1032 1032 1032 1032 1032 1032 1032 1032 1032 
1032 1032 1032 1032 1032 1032 1032 1032 1032 
1032 1032 1032 1032 1032 1032 1032 1032 1032 
1032 1032 1032 1032 1032 1032 1032 1032 1032 
1032 1032 1032 1032 1032 1032 1032 1032 1032 
1032 1032 1032 1032 1032 1032 1032 1032 1032 
1032 1032 1032 1032 1032 1032 1032 1032 1032 
1032 1032 1032 1032 1032 1032 1032 1032 1032 
1032 1032 1032 1032 1032 1032 1032 1032 1032 
1032 1032 1032 1032 1032 1032 1032 1032 1032 
1032 1032 1032 1032 1032 1032 1032 1032 1032 
1032 1032 1032 1032 1032 1032 1032 1032 1032 
1032 1032 1032 1032 1032 1032 1032 1032 1032 
1032 1032 1032 1032 1032 1032 1032 1032 1032 
1032 1032 1032 1032 1032 1032 1032 1032 1032 
1032 1032 1032 1032 1032 1032 1032 1032 1032 
1032 1032 1032 1032 1032 1032 1032 1032 1032 
1032 1032 1032 1032 1032 1032 1032 1032 1032 
1032 1032 1032 1032 1032 1032 1032 1032 1032 
1032 1032 1032 1032 1032 1032 1032 1032 1032 
1032 1032 1032 1032 1032 1032 1032 1032 1032 
1032 1032 1032 1032 1032 1032 1032 1032 1032 
1032 1032 1032 1032 1032 1032 1032 1032 1032 
1032 1032 1032 1032 1032 1032 1032 1032 1032 
1032 1032 1032 1032 1032 1032 1032 1032 1032 
1032 1032 1032 1032 1032 1032 1032 1032 1032 
1032 1032 1032 1032 1032 1032 1032 1032 1032 
1032 1032 1032 1032 1032 1032 1032 1032 1032 
1032 1032 1032 1032 1032 1032 1032 1032 1032 
1032 1032 1032 1032 1032 1032 1032 1032 1032 
1032 1032 1032 1032 1032 1032 1032 1032 1032 
1032 1032 1032 1032 1032 1032 1032 1032 1032 
1032 1032 1032 1032 1032 1032 1032 1032 1032 
1032 1032 1032 1032 1032 1032 1032 1032 1032 
1032 1032 1032 1032 1032 1032 1032 1032 1032 
1032 1032 1032 1032 1032 1032 1032 1032 1032 
1032 1032 1032 1032 1032 1032 1032 1032 1032 
1032 1032 1032 1032 1032 1032 1032 1032 1032 
1032 1032 1032 1032 1032 1032 1032 1032 1032 
1032 1032 1032 1032 1032 1032 1032 1032 1032 
1032 1032 1032 1032 1032 1032 1032 1032 1032 
1032 1032 1032 1032 1032 1032 1032 1032 1032 
1032 1032 1032 1032 1032 1032 1032 1032 1032 
1032 1032 1032 1032 1032 1032 1032 1032 1032 
1032 1032 1032 1032 1032 1032 1032 1032 1032 
1032 1032 1032 1032 1032 1032 1032 1032 1032 
1032 1032 1032 1032 1032 1032 1032 1032 1032 
1032 1032 1032 1032 1032 1032 1032 1032 1032 
1032 1032 1032 1032 1032 1032 1032 1032 1032 
1032 1032 1032 1032 1032 1032 1032 1032 1032 
1032 1032 1032 1032 1032 1032 1032 1032 1032 
1032 1032 1032 1032 1032 1032 1032 1032 1032 
1032 1032 1032 1032 1032 1032 1032 1032 1032 
1032 1032 1032 1032 1032 1032 1032 1032 1032 
1032 1032 1032 1032 1032 1032 1032 1032 1032 
1032 1032 1032 1032 1032 1032 1032 1032 1032 
1032 1032 1032 1032 1032 1032 1032 1032 1032 
1032 1032 1032 1032 1032 1032 1032 1032 1032 
1032 1032 1032 1032 1032 1032 1032 1032 1032 
1032 1032 1032 1032 1032 1032 1032 1032 1032 
1032 1032 1032 1032 1032 1032 1032 1032 1032 
1032 1032 1032 1032 1032 1032 1032 1032 1032 
1032 1032 1032 1032 1032 1032 1032 1032 1032 
1032 1032 1032 1032 1032 1032 1032 1032 1032 
1032 1032 1032 1032 1032 1032 1032 1032 1032 
1032 1032 1032 1032 1032 1032 1032 1032 1032 
1032 1032 1032 1032 1032 1032 1032 1032 1032 
1032 1032 1032 1032 1032 1032 1032 1032 1032 
1032 1032 1032 1032 1032 1032 1032 1032 1032 
1032 1032 1032 1032 1032 1032 1032 1032 1032 
1032 1032 1032 1032 1032 1032 1032 1032 1032 
1032 1032 1032 1032 1032 1032 1032 1032 1032 
1032 1032 1032 1032 1032 1032 1032 1032 1032 
1032 1032 1032 1032 1032 1032 1032 1032 1032 
1032 1032 1032 1032 1032 1032 1032 1032 1032 
1032 1032 1032 1032 1032 1032 1032 1032 1032 
1032 1032 1032 1032 1032 1032 1032 1032 1032 
1032 1032 1032 1032 1032 1032 1032 1032 1032 
1032 1032 1032 1032 1032 1032 1032 1032 1032 
1032 1032 1032 1032 1032 1032 1032 1032 1032 
1032 1032 1032 1032 1032 1032 1032 1032 1032 
1032 1032 1032 1032 1032 1032 1032 1032 1032 
1032 1032 1032 1032 1032 1032 1032 1032 1032 
1032 1032 1032 1032 1032 1032 1032 1032 1032 
1032 1032 1032 1032 1032 1032 1032 1032 1032 
1032 1032 1032 1032 1032 1032 1032 1032 1032 
1032 1032 1032 1032 1032 1032 1032 1032 1032 
1032 1032 1032 1032 1032 1032 1032 1032 1032 
1032 1032 1032 1032 1032 1032 1032 1032 1032 
1032 1032 1032 1032 1032 1032 1032 1032 1032 
1032 1032 1032 1032 1032 1032 1032 1032 1032 
1032 1032 1032 1032 1032 1032 1032 1032 1032 
1032 1032 1032 1032 1032 1032 1032 1032 1032 
1032 1032 1032 1032 1032 1032 1032 1032 1032 
1032 1032 1032 1032 1032 1032 1032 1032 1032 
1032 1032 1032 1032 1032 1032 1032 1032 1032 
1032 1032 1032 1032 1032 1032 1032 1032 1032 
1032 1032 1032 1032 1032 1032 1032 1032 1032 
1032 1032 1032 1032 1032 1032 1032 1032 1032 
1032 1032 1032 1032 1032 1032 1032 1032 1032 
1032 1032 1032 1032 1032 1032 1032 1032 1032 
1032 1032 1032 1032 1032 1032 1032 1032 1032 
1032 1032 1032 1032 1032 1032 1032 1032 1032 
1032 1032 1032 1032 1032 1032 1032 1032 1032 
1032 1032 1032 1032 1032 1032 1032 1032 1032 
1032 1032 1032 1032 1032 1032 1032 1032 1032 
1032 1032 1032 1032 1032 1032 1032 1032 1032 
1032 1032 1032 1032 1032 1032 1032 1032 1032 
1032 1032 1032 1032 1032 1032 1032 1032 1032 
1032 1032 1032 1032 1032 1032 1032 1032 1032 
1032 1032 1032 1032 1032 1032 1032 1032 1032 
1032 1032 1032 1032 1032 1032 1032 1032 1032 
1032 1032 1032 1032 1032 1032 1032 1032 1032 
1032 1032 1032 1032 1032 1032 1032 1032 1032 
1032 1032 1032 1032 1032 1032 1032 1032 1032 
1032 1032 1032 1032 1032 1032 1032 1032 1032 
1032 1032 1032 1032 1032 1032 1032 1032 1032 
1032 1032 1032 1032 1032 1032 1032 1032 1032 
1032 1032 1032 1032 1032 1032 1032 1032 1032 
1032 1032 1032 1032 1032 1032 1032 1032 1032 
1032 1032 1032 1032 1032 1032 1032 1032 1032 
1032 1032 1032 1032 1032 1032 1032 1032 1032 
1032 1032 1032 1032 1032 1032 1032 1032 1032 
1032 1032 1032 1032 1032 1032 1032 1032 1032 
1032 1032 1032 1032 1032 1032 1032 1032 1032 
1032 1032 1032 1032 1032 1032 1032 1032 1032 
1032 1032 1032 1032 1032 1032 1032 1032 1032 
1032 1032 1032 1032 1032 1032 1032 1032 1032 
1032 1032 1032 1032 1032 1032 1032 1032 1032 
1032 1032 1032 1032 1032 1032 1032 1032 1032 
1032 1032 1032 1032 1032 1032 1032 1032 1032 
1032 1032 1032 1032 1032 1032 1032 1032 1032 
1032 1032 1032 1032 1032 1032 1032 1032 1032 
1032 1032 1032 1032 1032 1032 1032 1032 1032 
1032 1032 1032 1032 1032 1032 1032 1032 1032 
1032 1032 1032 1032 1032 1032 1032 1032 1032 
1032 1032 1032 1032 1032 1032 1032 1032 1032 
1032 1032 1032 1032 1032 1032 1032 1032 1032 
1032 1032 1032 1032 1032 1032 1032 1032 1032 
1032 1032 1032 1032 1032 1032 1032 1032 1032 
1032 1032 1032 1032 1032 1032 1032 1032 1032 
1032 1032 1032 1032 1032 1032 1032 1032 1032 
1032 1032 1032 1032 1032 1032 1032 1032 1032 
1032 1032 1032 1032 1032 1032 1032 1032 1032 
1032 1032 1032 1032 1032 1032 1032 1032 1032 
1032 1032 1032 1032 1032 1032 1032 1032 1032 
1032 1032 1032 1032 1032 1032 1032 1032 1032 
1032 1032 1032 1032 1032 1032 1032 1032 1032 
1032 1032 1032 1032 1032 1032 1032 1032 1032 
1032 1032 1032 1032 1032 1032 1032 1032 1032 
1032 1032 1032 1032 1032 1032 1032 1032 1032 
1032 1032 1032 1032 1032 1032 1032 1032 1032 
1032 1032 1032 1032 1032 1032 1032 1032 1032 
1032 1032 1032 1032 1032 1032 1032 1032 1032 
1032 1032 1032 1032 1032 1032 1032 1032 1032 
1032 1032 1032 1032 1032 1032 1032 1032 1032 
1032 1032 1032 1032 1032 1032 1032 1032 1032 
1032 1032 1032 1032 1032 1032 1032 1032 1032 
1032 1032 1032 1032 1032 1032 1032 1032 1032 
1032 1032 1032 1032 1032 1032 1032 1032 1032 
1032 1032 1032 1032 1032 1032 1032 1032 1032 
1032 1032 1032 1032 1032 1032 1032 1032 1032 
1032 1032 1032 1032 1032 1032 1032 1032 1032 
1032 1032 1032 1032 1032 1032 1032 1032 1032 
1032 1032 1032 1032 1032 1032 1032 1032 1032 
1032 1032 1032 1032 1032 1032 1032 1032 1032 
1032 1032 1032 1032 1032 1032 1032 1032 1032 
1032 1032 1032 1032 1032 1032 1032 1032 1032 
1032 1032 1032 1032 1032 1032 1032 1032 1032 
1032 1032 1032 1032 1032 1032 1032 1032 1032 
1032 1032 1032 1032 1032 1032 1032 1032 1032 
1032 1032 1032 1032 1032 1032 1032 1032 1032 
1032 1032 1032 1032 1032 1032 1032 1032 1032 
1032 1032 1032 1032 1032 1032 1032 1032 1032 
1032 1032 1032 1032 1032 1032 1032 1032 1032 
1032 1032 1032 1032 1032 1032 1032 1032 1032 
1032 1032 1032 1032 1032 1032 1032 1032 1032 
1032 1032 1032 1032 1032 1032 1032 1032 1032 
1032 1032 1032 1032 1032 1032 1032 1032 1032 
1032 1032 1032 1032 1032 1032 1032 1032 1032 
1032 1032 1032 1032 1032 1032 1032 1032 1032 
1032 1032 1032 1032 1032 1032 1032 1032 1032 
1032 1032 1032 1032 1032 1032 1032 1032 1032 
1032 1032 1032 1032 1032 1032 1032 1032 1032 
1032 1032 1032 1032 1032 1032 1032 1032 1032 
1032 1032 1032 1032 1032 1032 1032 1032 1032 
1032 1032 1032 1032 1032 1032 1032 1032 1032 
1032 1032 1032 1032 1032 1032 1032 1032 1032 
1032 1032 1032 1032 1032 1032 1032 1032 1032 
1032 1032 1032 1032 1032 1032 1032 1032 1032 
1032 1032 1032 1032 1032 1032 1032 1032 1032 
1032 1032 1032 1032 1032 1032 1032 1032 1032 
1032 1032 1032 1032 1032 1032 1032 1032 1032 
1032 1032 1032 1032 1032 1032 1032 1032 1032 
1032 1032 1032 1032 1032 1032 1032 1032 1032 
1032 1032 1032 1032 1032 1032 1032 1032 1032 
1032 1032 1032 1032 1032 1032 1032 1032 1032 
1032 1032 1032 1032 1032 1032 1032 1032 1032 
1032 1032 1032 1032 1032 1032 1032 1032 1032 
1032 1032 1032 1032 1032 1032 1032 1032 1032 
1032 1032 1032 1032 1032 1032 1032 1032 1032 
1032 1032 1032 1032 1032 1032 1032 1032 1032 
1032 1032 1032 1032 1032 1032 1032 1032 1032 
1032 1032 1032 1032 1032 1032 1032 1032 1032 
1032 1032 1032 1032 1032 1032 1032 1032 1032 
1032 1032 1032 1032 1032 1032 1032 1032 1032 
1032 1032 1032 1032 1032 1032 1032 1032 1032 
1032 1032 1032 1032 1032 1032 1032 1032 1032 
1032 1032 1032 1032 1032 1032 1032 1032 1032 
1032 1032 1032 1032 1032 1032 1032 1032 1032 
1032 1032 1032 1032 1032 1032 1032 1032 1032 
1032 1032 1032 1032 1032 1032 1032 1032 1032 
1032 1032 1032 1032 1032 1032 1032 1032 1032 
1032 1032 1032 1032 1032 1032 1032 1032 1032 
1032 1032 1032 1032 1032 1032 1032 1032 1032 
1032 1032 1032 1032 1032 1032 1032 1032 1032 
1032 1032 1032 1032 1032 1032 1032 1032 1032 
1032 1032 1032 1032 1032 1032 1032 1032 1032 
1032 1032 1032 1032 1032 1032 1032 1032 1032 
1032 1032 1032 1032 1032 1032 1032 1032 1032 
1032 1032 1032 1032 1032 1032 1032 1032 1032 
1032 1032 1032 1032 1032 1032 1032 1032 1032 
1032 1032 1032 1032 1032 1032 1032 1032 1032 
1032 1032 1032 1032 1032 1032 1032 1032 1032 
1032 1032 1032 1032 1032 1032 1032 1032 1032 
1032 1032 1032 1032 1032 1032 1032 1032 1032 
1032 1032 1032 1032 1032 1032 1032 1032 1032 
1032 1032 1032 1032 1032 1032 1032 1032 1032 
1032 1032 1032 1032 1032 1032 1032 1032 1032 
1032 1032 1032 1032 1032 1032 1032 1032 1032 
1032 1032 1032 1032 1032 1032 1032 1032 1032 
1032 1032 1032 1032 1032 1032 1032 1032 1032 
1032 1032 1032 1032 1032 1032 1032 1032 1032 
1032 1032 1032 1032 1032 1032 1032 1032 1032 
1032 1032 1032 1032 1032 1032 1032 1032 1032 
1032 1032 1032 1032 1032 1032 1032 1032 1032 
1032 1032 1032 1032 1032 1032 1032 1032 1032 
1032 1032 1032 1032 1032 1032 1032 1032 1032 
1032 1032 1032 1032 1032 1032 1032 1032 1032 
1032 1032 1032 1032 1032 1032 1032 1032 1032 
1032 1032 1032 1032 1032 1032 1032 1032 1032 
1032 1032 1032 1032 1032 1032 1032 1032 1032 
1032 1032 1032 1032 1032 1032 1032 1032 1032 
1032 1032 1032 1032 1032 1032 1032 1032 1032 
1032 1032 1032 1032 1032 1032 1032 1032 1032 
1032 1032 1032 1032 1032 1032 1032 1032 1032 
1032 1032 1032 1032 1032 1032 1032 1032 1032 
1032 1032 1032 1032 1032 1032 1032 1032 1032 
1032 1032 1032 1032 1032 1032 1032 1032 1032 
1032 1032 1032 1032 1032 1032 1032 1032 1032 
1032 1032 1032 1032 1032 1032 1032 1032 1032 
1032 1032 1032 1032 1032 1032 1032 1032 1032 
1032 1032 1032 1032 1032 1032 1032 1032 1032 
1032 1032 1032 1032 1032 1032 1032 1032 1032 
1032 1032 1032 1032 1032 1032 1032 1032 1032 
1032 1032 1032 1032 1032 1032 1032 1032 1032 
1032 1032 1032 1032 1032 1032 1032 1032 1032 
1032 1032 1032 1032 1032 1032 1032 1032 1032 
1032 1032 1032 1032 1032 1032 1032 1032 1032 
1032 1032 1032 1032 1032 1032 1032 1032 1032 
1032 1032 1032 1032 1032 1032 1032 1032 1032 
1032 1032 1032 1032 1032 1032 1032 1032 1032 
1032 1032 1032 1032 1032 1032 1032 1032 1032 
1032 1032 1032 1032 1032 1032 1032 1032 1032 
1032 1032 1032 1032 1032 1032 1032 1032 1032 
1032 1032 1032 1032 1032 1032 1032 1032 1032 
1032 1032 1032 1032 1032 1032 1032 1032 1032 
1032 1032 1032 1032 1032 1032 1032 1032 1032 
1032 1032 1032 1032 1032 1032 1032 1032 1032 
1032 1032 1032 1032 1032 1032 1032 1032 1032 
1032 1032 1032 1032 1032 1032 1032 1032 1032 
1032 1032 1032 1032 1032 1032 1032 1032 1032 
1032 1032 1032 1032 1032 1032 1032 1032 1032 
1032 1032 1032 1032 1032 1032 1032 1032 1032 
1032 1032 1032 1032 1032 1032 1032 1032 1032 
1032 1032 1032 1032 1032 1032 1032 1032 1032 
1032 1032 1032 1032 1032 1032 1032 1032 1032 
1032 1032 1032 1032 1032 1032 1032 1032 1032 
1032 1032 1032 1032 1032 1032 1032 1032 1032 
1032 1032 1032 1032 1032 1032 1032 1032 1032 
1032 1032 1032 1032 1032 1032 1032 1032 1032 
1032 1032 1032 1032 1032 1032 1032 1032 1032 
1032 1032 1032 1032 1032 1032 1032 1032 1032 
1032 1032 1032 1032 1032 1032 1032 1032 1032 
1032 1032 1032 1032 1032 1032 1032 1032 1032 
1032 1032 1032 1032 1032 1032 1032 1032 1032 
1032 1032 1032 1032 1032 1032 1032 1032 1032 
1032 1032 1032 1032 1032 1032 1032 1032 1032 
1032 1032 1032 1032 1032 1032 1032 1032 1032 
1032 1032 1032 1032 1032 1032 1032 1032 1032 
1032 1032 1032 1032 1032 1032 1032 1032 1032 
1032 1032 1032 1032 1032 1032 1032 1032 1032 
1032 1032 1032 1032 1032 1032 1032 1032 1032 
1032 1032 1032 1032 1032 1032 1032 1032 1032 
1032 1032 1032 1032 1032 1032 1032 1032 1032 
1032 1032 1032 1032 1032 1032 1032 1032 1032 
1032 1032 1032 1032 1032 1032 1032 1032 1032 
1032 1032 1032 1032 1032 1032 1032 1032 1032 
1032 1032 1032 1032 1032 1032 1032 1032 1032 
1032 1032 1032 1032 1032 1032 1032 1032 1032 
1032 1032 1032 1032 1032 1032 1032 1032 1032 
1032 1032 1032 1032 1032 1032 1032 1032 1032 
1032 1032 1032 1032 1032 1032 1032 1032 1032 
1032 1032 1032 1032 1032 1032 1032 1032 1032 
1032 1032 1032 1032 1032 1032 1032 1032 1032 
1032 1032 1032 1032 1032 1032 1032 1032 1032 
1032 1032 1032 1032 1032 1032 1032 1032 1032 
1032 1032 1032 1032 1032 1032 1032 1032 1032 
1032 1032 1032 1032 1032 1032 1032 1032 1032 
1032 1032 1032 1032 1032 1032 1032 1032 1032 
1032 1032 1032 1032 1032 1032 1032 1032 1032 
1032 1032 1032 1032 1032 1032 1032 1032 1032 
1032 1032 1032 1032 1032 1032 1032 1032 1032 
1032 1032 1032 1032 1032 1032 1032 1032 1032 
1032 1032 1032 1032 1032 1032 1032 1032 1032 
1032 1032 1032 1032 1032 1032 1032 1032 1032 
1032 1032 1032 1032 1032 1032 1032 1032 1032 
1032 1032 1032 1032 1032 1032 1032 1032 1032 
1032 1032 1032 1032 1032 1032 1032 1032 1032 
1032 1032 1032 1032 1032 1032 1032 1032 1032 
1032 1032 1032 1032 1032 1032 1032 1032 1032 
1032 1032 1032 1032 1032 1032 1032 1032 1032 
1032 1032 1032 1032 1032 1032 1032 1032 1032 
1032 1032 1032 1032 1032 1032 1032 1032 1032 
1032 1032 1032 1032 1032 1032 1032 1032 1032 
1032 1032 1032 1032 1032 1032 1032 1032 1032 
1032 1032 1032 1032 1032 1032 1032 1032 1032 
1032 1032 1032 1032 1032 1032 1032 1032 1032 

