# vtk DataFile Version 4.2
vtk output
ASCII
DATASET POLYDATA
POINTS 11196 float
7.97393 -39.3983 37.0817 8.05491 -39.1518 36.825 8.19736 -39.4303 36.9848 
7.83245 -39.2476 36.8084 8.06506 -39.7505 37.1045 8.23672 -39.8379 36.7846 
7.7269 -39.6853 36.8648 7.84622 -40.0674 36.8255 7.95438 -39.1492 36.4893 
8.23072 -39.4193 36.4538 7.73802 -39.3565 36.4831 8.27209 -39.9104 36.2362 
7.54315 -39.5421 36.2481 7.33274 -39.9517 36.6146 6.88783 -39.9894 36.442 
6.97789 -39.6682 36.336 6.60483 -39.8236 36.2802 7.95407 -40.1659 36.3335 
7.28865 -40.1812 36.341 6.69658 -40.0757 36.229 6.19441 -40.3429 36.341 
6.30889 -40.5685 36.1609 6.19012 -40.4953 36.4043 6.05488 -40.4135 36.3078 
6.10939 -40.6466 36.2913 5.44381 -40.8489 36.2496 5.74049 -41.0108 36.2964 
5.37531 -41.1477 36.4999 4.9741 -41.2439 36.5164 5.11883 -40.9511 36.3478 
4.84477 -41.1089 36.2131 5.66707 -41.4202 36.3007 5.35165 -41.7626 36.2583 
5.13057 -41.558 36.5089 4.70533 -41.6399 36.1965 5.0635 -41.8699 36.2234 
6.75649 -38.2542 35.9223 6.8539 -37.9391 35.6082 7.13013 -38.1496 35.713 
6.49668 -37.9548 35.6569 7.20095 -38.6183 35.938 7.41438 -38.4128 35.517 
7.56126 -38.8184 35.714 6.69627 -38.7571 36.0516 6.30459 -38.3255 35.8178 
6.15609 -38.7379 35.9492 5.91738 -38.5934 35.5495 7.96338 -39.3968 36.114 
7.31863 -39.2043 36.0321 7.7101 -39.2154 35.7133 6.74741 -39.3087 36.1223 
6.17178 -39.2721 36.0571 5.508 -38.9374 35.6662 5.48162 -39.2707 35.9739 
4.94365 -39.416 35.8822 5.05863 -39.11 35.7572 4.77726 -39.272 35.5951 
7.98896 -39.4822 35.6991 8.21913 -39.7656 35.6736 6.26072 -40.0424 36.1054 
5.68223 -39.7918 36.0367 5.1684 -39.9209 35.9098 4.74018 -39.8359 35.5445 
7.96906 -40.1413 35.6925 7.4105 -40.237 35.7169 6.79974 -40.2049 35.8363 
6.5169 -40.4303 35.6638 5.67362 -40.5122 36.0869 5.13848 -40.4182 35.7742 
4.95747 -40.2041 35.699 6.09364 -41.0054 36.1196 6.41017 -41.0749 35.5974 
5.09035 -40.7726 35.9398 4.69883 -41.0958 35.8103 6.08315 -41.4661 35.8521 
5.70665 -41.704 35.9832 5.96368 -41.7742 35.6237 4.34408 -41.4154 35.6543 
4.23973 -41.8809 35.974 4.05243 -41.6734 35.6369 5.50508 -41.9396 35.769 
4.9849 -42.0901 35.8273 4.4631 -42.1843 35.995 4.75503 -42.3676 35.6645 
3.85058 -41.9269 35.8224 3.85757 -42.2726 35.9551 3.31833 -42.3786 35.8786 
3.3958 -42.0474 35.7802 2.98663 -42.2081 35.6044 4.27128 -42.5355 35.6251 
3.58518 -42.5712 35.6805 3.1375 -42.4933 35.6135 6.22748 -37.661 35.3289 
6.15602 -37.2805 35.1273 6.39062 -37.3732 35.1082 5.97729 -37.3537 34.9764 
6.64916 -37.709 35.291 7.13659 -38.1473 35.0705 6.15474 -38.1365 35.57 
5.94243 -38.0373 35.1452 7.38765 -38.4486 35.1351 7.65052 -38.8213 35.2086 
5.80953 -38.6351 34.9597 7.97998 -39.2449 35.3553 8.02649 -39.0779 34.9833 
8.31133 -39.5339 35.1042 5.49679 -38.9198 35.1254 5.03022 -39.0578 35.3028 
4.74364 -39.3657 35.1133 8.22594 -39.9252 34.9817 4.59651 -39.8148 34.9321 
7.92785 -40.1236 35.0816 7.5027 -40.2256 35.183 6.92126 -40.3056 35.1937 
6.574 -40.6801 35.0695 4.76044 -40.5316 35.5366 4.37776 -40.2124 35.1043 
4.28684 -40.5242 35.3135 3.8373 -40.6185 35.2799 3.90401 -40.3219 35.1149 
3.33506 -40.5466 35.2195 3.39116 -40.2385 35.0445 2.99029 -40.3581 34.9966 
0.224469 -40.6907 35.3189 0.0374451 -40.1925 35.0129 0.495905 -40.4585 35.1988 
-0.170242 -40.5669 35.0208 6.49347 -41.1133 35.1103 4.39567 -40.91 35.4591 
4.03903 -41.0744 35.2214 3.59815 -40.8531 34.9892 3.19009 -40.6532 34.9775 
0.636493 -40.9667 35.3252 0.798331 -40.7608 35.207 0.918384 -41.1055 35.0842 
0.326962 -41.1355 35.3116 0.0234283 -40.9785 35.1749 6.26669 -41.6338 35.4514 
6.42594 -41.6704 34.9959 3.60826 -41.697 35.4786 3.83775 -41.4064 35.1581 
2.99124 -41.7638 35.4045 3.22274 -41.4705 35.0063 2.39912 -41.7474 35.3338 
2.59908 -41.471 35.0408 1.9674 -41.8379 35.3078 2.11297 -41.5378 35.1548 
1.71186 -41.6345 35.0323 0.569311 -41.422 35.0343 0.168585 -41.2937 35.0317 
6.02966 -42.0019 35.2132 5.49225 -42.1577 35.2853 5.10577 -42.2949 35.383 
5.38965 -42.3723 35.0159 2.56536 -42.1091 35.1108 2.89775 -42.3701 35.2538 
2.12099 -42.329 35.0512 2.10472 -42.1676 35.2815 1.80808 -42.1444 35.0819 
4.88893 -42.538 35.0849 4.29328 -42.6505 35.0427 3.77336 -42.6512 35.1306 
3.22843 -42.5584 35.1494 1.95659 -42.4162 35.1471 12.8289 -33.8462 34.6406 
12.7905 -33.7067 34.3829 12.9722 -34.0161 34.4257 12.5782 -33.7952 34.5058 
12.7128 -34.0174 34.5468 6.20319 -37.0451 34.8143 6.13188 -36.7205 34.4603 
6.47786 -36.8334 34.437 5.95345 -36.9179 34.4724 8.4215 -37.5403 34.6666 
8.51956 -37.3709 34.442 8.66989 -37.4816 34.5392 7.8864 -37.6661 34.6948 
8.15208 -37.3306 34.4804 7.71891 -37.4199 34.4813 6.74674 -37.4776 34.8108 
6.84927 -37.2473 34.4513 7.0968 -37.6089 34.5493 5.84936 -37.4512 34.516 
8.5434 -37.7326 34.5985 8.43122 -38.0344 34.452 8.1789 -38.0744 34.7565 
7.44094 -37.6728 34.5595 7.43805 -38.0132 34.7415 5.86528 -38.1016 34.5211 
8.46714 -38.6155 34.7218 8.61129 -38.4744 34.3483 8.77374 -38.8664 34.5517 
7.90691 -38.6926 34.7263 7.3423 -38.5945 34.8201 7.39095 -38.5241 34.5626 
7.52571 -38.7547 34.4481 7.26297 -38.6153 34.5433 5.80588 -38.6341 34.3521 
8.52309 -39.1349 34.799 8.81227 -39.236 34.3567 7.54133 -38.8229 34.6168 
5.58917 -38.9231 34.6175 5.12108 -39.1184 34.6508 4.77622 -39.4506 34.6331 
8.60014 -39.5304 34.5914 8.33435 -39.8743 34.4313 4.60826 -39.7536 34.4087 
2.94599 -39.9443 34.7764 3.18832 -39.6866 34.3288 3.42679 -39.9333 34.6341 
2.58767 -39.8537 34.6792 2.60923 -39.6831 34.4641 2.32724 -39.8223 34.4461 
0.27388 -39.9783 34.8173 0.194879 -39.7256 34.3858 0.447592 -39.942 34.5407 
-0.103271 -39.8696 34.4105 7.91972 -40.1302 34.4764 7.33773 -40.2675 34.6415 
6.82867 -40.4361 34.7234 6.99047 -40.4678 34.2798 4.38266 -40.0516 34.6369 
3.90488 -40.1034 34.678 2.58414 -40.1505 34.6168 2.89618 -40.5354 34.6847 
0.785989 -40.4678 34.8624 0.860861 -40.1965 34.3195 1.17419 -40.6853 34.3821 
-0.447006 -40.5759 34.6818 -0.378442 -40.2264 34.6587 -0.60943 -40.4401 34.3831 
6.68615 -40.668 34.5329 6.53568 -41.0949 34.593 3.74408 -41.1574 34.83 
3.47082 -41.0626 34.5575 3.18768 -40.815 34.5752 1.33732 -41.1499 34.7781 
1.39789 -40.9186 34.492 1.64231 -41.1837 34.4616 -0.139655 -41.0188 34.7464 
-0.39147 -40.7938 34.272 6.48971 -41.6221 34.4372 3.37641 -41.2844 34.6106 
2.74048 -41.3598 34.4629 2.03665 -41.4059 34.6313 1.46631 -41.8164 34.8224 
0.982114 -41.6611 34.7772 0.55361 -41.6551 34.5405 0.227335 -41.4222 34.6906 
6.24565 -42.2403 34.8051 6.41953 -42.1864 34.419 5.83846 -42.345 34.8522 
2.92741 -42.3218 34.7171 2.71864 -42.0956 34.3639 2.05417 -42.0532 34.5799 
1.95443 -42.3775 34.9697 1.39307 -41.9163 34.4977 0.937582 -41.869 34.4257 
6.06211 -42.5216 34.4446 5.47209 -42.5647 34.5422 4.91743 -42.6268 34.4225 
4.4075 -42.6365 34.5105 3.90974 -42.6446 34.6 3.39642 -42.5146 34.4692 
12.7244 -33.6264 33.805 13.0393 -33.8739 34.0603 12.1695 -34.0759 34.2538 
12.3596 -33.6629 34.0716 11.8927 -33.8496 33.742 12.6702 -34.4225 34.2799 
13.1523 -34.3485 33.8901 12.0749 -34.6061 34.2849 11.6331 -34.1874 33.9375 
11.6253 -34.5556 34.1384 11.3776 -34.4867 33.8052 12.8322 -34.7982 33.8748 
12.5091 -35.1917 33.8863 12.3219 -34.9927 34.1926 11.7583 -35.1428 34.1724 
11.3587 -34.9969 33.7973 12.1316 -35.6356 34.1426 12.4281 -35.7038 33.8911 
11.7599 -35.6958 34.0288 11.5104 -35.4735 33.8853 12.2506 -36.1713 34.0772 
12.4246 -36.3421 33.7623 11.8977 -36.2646 33.8566 9.03236 -36.3632 34.1309 
9.17242 -36.0357 33.9678 9.4444 -36.3955 33.9293 8.4489 -36.3775 34.1635 
8.76915 -35.962 33.9671 7.8168 -36.3653 34.1394 8.06685 -35.9634 33.876 
7.21774 -36.3504 34.1318 7.38829 -36.038 33.8575 6.67482 -36.3956 34.1204 
6.90142 -36.0977 33.9013 6.48487 -36.2401 33.6998 12.1862 -36.59 33.8695 
9.22743 -36.7567 34.1045 9.45871 -36.8471 33.9717 8.70669 -36.8927 34.1354 
7.98653 -36.9833 34.2679 7.46171 -36.7845 34.2284 6.95648 -36.8282 34.2783 
6.18972 -36.5577 34.0648 5.913 -36.9279 33.9075 9.91106 -37.3124 33.8468 
9.88906 -37.5713 33.8124 9.78327 -37.5368 34.0108 9.18727 -37.0451 33.899 
9.69895 -37.4492 33.8612 8.74517 -37.1053 33.7722 8.57145 -37.5723 34.3963 
8.36478 -37.3459 34.028 7.30714 -37.3015 34.3539 5.85544 -37.4992 33.8997 
10.374 -38.1065 34.0335 10.3806 -37.9798 33.75 10.5135 -38.2622 33.7967 
9.73135 -37.6421 33.7933 10.2256 -38.1685 33.8235 8.4011 -38.0154 33.9607 
5.88238 -38.1242 33.9004 10.3456 -38.3608 33.8762 8.62259 -38.3218 33.8779 
8.84134 -38.7453 34.0032 7.36016 -38.7398 34.367 5.82586 -38.6499 33.7493 
8.85134 -39.3675 33.7352 5.5014 -39.0109 34.0749 4.97206 -39.375 34.1678 
5.24577 -39.2936 33.7196 8.63937 -39.6631 34.102 8.41491 -39.9661 33.8486 
4.93438 -39.4829 33.8577 4.45311 -39.6881 33.8319 4.20202 -39.8967 34.2489 
3.73826 -39.847 34.3126 3.72369 -39.6669 33.8877 3.09819 -39.5581 33.8233 
2.69357 -39.5579 34.0263 1.97186 -40.0918 34.1995 2.19743 -39.5857 33.9266 
1.7201 -39.7833 33.8658 0.235574 -39.681 33.8425 0.49303 -39.8513 34.0987 
-0.193616 -39.9837 33.6956 8.07585 -40.1367 33.867 7.49559 -40.3037 33.9712 
7.10639 -40.4815 33.9253 2.54965 -40.6436 34.2941 1.9699 -40.5034 34.201 
1.32553 -40.1003 34.0186 1.46739 -40.4562 34.1872 0.903891 -40.0158 33.9145 
-0.497205 -40.2008 34.1243 -0.611655 -40.5358 34.0341 6.85224 -40.7712 33.9549 
6.57947 -41.3121 33.904 3.03687 -41.0771 34.3176 2.55564 -41.1559 34.1485 
1.99923 -40.974 34.0577 1.29494 -41.2194 34.2118 1.40796 -40.9047 33.7417 
1.83397 -41.1059 33.871 1.08355 -40.9835 33.9827 0.167358 -41.2687 34.2654 
0.496225 -41.2349 33.9162 0.15704 -40.9474 33.7911 -0.339468 -40.7049 33.7471 
6.50053 -41.8289 34.032 2.21167 -41.494 33.9288 1.78153 -41.6251 34.2983 
2.02099 -41.2689 33.884 1.26817 -41.7488 34.2607 0.865118 -41.243 33.9314 
0.770215 -41.5551 34.1649 6.44138 -42.2613 33.7876 3.10576 -42.2504 34.206 
3.40076 -42.33 33.9085 3.06627 -42.0879 33.7501 2.44809 -41.9266 33.8362 
6.1592 -42.5589 33.926 5.63437 -42.6425 33.9279 5.02461 -42.6337 33.9093 
4.41379 -42.6207 33.8816 3.81522 -42.5392 33.9508 12.7052 -33.6413 33.1576 
13.1543 -34.0334 33.4215 12.1648 -33.5934 33.3689 11.7368 -33.8002 33.25 
[...]
CELL_DATA 22428
SCALARS scalars float
LOOKUP_TABLE default
2012 2012 2012 2012 2012 2012 2012 2012 2012 
2012 2012 2012 2012 2012 2012 2012 2012 2012 
2012 2012 2012 2012 2012 2012 2012 2012 2012 
2012 2012 2012 2012 2012 2012 2012 2012 2012 
2012 2012 2012 2012 2012 2012 2012 2012 2012 
2012 2012 2012 2012 2012 2012 2012 2012 2012 
2012 2012 2012 2012 2012 2012 2012 2012 2012 
2012 2012 2012 2012 2012 2012 2012 2012 2012 
2012 2012 2012 2012 2012 2012 2012 2012 2012 
2012 2012 2012 2012 2012 2012 2012 2012 2012 
2012 2012 2012 2012 2012 2012 2012 2012 2012 
2012 2012 2012 2012 2012 2012 2012 2012 2012 
2012 2012 2012 2012 2012 2012 2012 2012 2012 
2012 2012 2012 2012 2012 2012 2012 2012 2012 
2012 2012 2012 2012 2012 2012 2012 2012 2012 
2012 2012 2012 2012 2012 2012 2012 2012 2012 
2012 2012 2012 2012 2012 2012 2012 2012 2012 
2012 2012 2012 2012 2012 2012 2012 2012 2012 
2012 2012 2012 2012 2012 2012 2012 2012 2012 
2012 2012 2012 2012 2012 2012 2012 2012 2012 
2012 2012 2012 2012 2012 2012 2012 2012 2012 
2012 2012 2012 2012 2012 2012 2012 2012 2012 
2012 2012 2012 2012 2012 2012 2012 2012 2012 
2012 2012 2012 2012 2012 2012 2012 2012 2012 
2012 2012 2012 2012 2012 2012 2012 2012 2012 
2012 2012 2012 2012 2012 2012 2012 2012 2012 
2012 2012 2012 2012 2012 2012 2012 2012 2012 
2012 2012 2012 2012 2012 2012 2012 2012 2012 
2012 2012 2012 2012 2012 2012 2012 2012 2012 
2012 2012 2012 2012 2012 2012 2012 2012 2012 
2012 2012 2012 2012 2012 2012 2012 2012 2012 
2012 2012 2012 2012 2012 2012 2012 2012 2012 
2012 2012 2012 2012 2012 2012 2012 2012 2012 
2012 2012 2012 2012 2012 2012 2012 2012 2012 
2012 2012 2012 2012 2012 2012 2012 2012 2012 
2012 2012 2012 2012 2012 2012 2012 2012 2012 
2012 2012 2012 2012 2012 2012 2012 2012 2012 
2012 2012 2012 2012 2012 2012 2012 2012 2012 
2012 2012 2012 2012 2012 2012 2012 2012 2012 
2012 2012 2012 2012 2012 2012 2012 2012 2012 
2012 2012 2012 2012 2012 2012 2012 2012 2012 
2012 2012 2012 2012 2012 2012 2012 2012 2012 
2012 2012 2012 2012 2012 2012 2012 2012 2012 
2012 2012 2012 2012 2012 2012 2012 2012 2012 
2012 2012 2012 2012 2012 2012 2012 2012 2012 
2012 2012 2012 2012 2012 2012 2012 2012 2012 
2012 2012 2012 2012 2012 2012 2012 2012 2012 
2012 2012 2012 2012 2012 2012 2012 2012 2012 
2012 2012 2012 2012 2012 2012 2012 2012 2012 
2012 2012 2012 2012 2012 2012 2012 2012 2012 
2012 2012 2012 2012 2012 2012 2012 2012 2012 
2012 2012 2012 2012 2012 2012 2012 2012 2012 
2012 2012 2012 2012 2012 2012 2012 2012 2012 
2012 2012 2012 2012 2012 2012 2012 2012 2012 
2012 2012 2012 2012 2012 2012 2012 2012 2012 
2012 2012 2012 2012 2012 2012 2012 2012 2012 
2012 2012 2012 2012 2012 2012 2012 2012 2012 
2012 2012 2012 2012 2012 2012 2012 2012 2012 
2012 2012 2012 2012 2012 2012 2012 2012 2012 
2012 2012 2012 2012 2012 2012 2012 2012 2012 
2012 2012 2012 2012 2012 2012 2012 2012 2012 
2012 2012 2012 2012 2012 2012 2012 2012 2012 
2012 2012 2012 2012 2012 2012 2012 2012 2012 
2012 2012 2012 2012 2012 2012 2012 2012 2012 
2012 2012 2012 2012 2012 2012 2012 2012 2012 
2012 2012 2012 2012 2012 2012 2012 2012 2012 
2012 2012 2012 2012 2012 2012 2012 2012 2012 
2012 2012 2012 2012 2012 2012 2012 2012 2012 
2012 2012 2012 2012 2012 2012 2012 2012 2012 
2012 2012 2012 2012 2012 2012 2012 2012 2012 
2012 2012 2012 2012 2012 2012 2012 2012 2012 
2012 2012 2012 2012 2012 2012 2012 2012 2012 
2012 2012 2012 2012 2012 2012 2012 2012 2012 
2012 2012 2012 2012 2012 2012 2012 2012 2012 
2012 2012 2012 2012 2012 2012 2012 2012 2012 
2012 2012 2012 2012 2012 2012 2012 2012 2012 
2012 2012 2012 2012 2012 2012 2012 2012 2012 
2012 2012 2012 2012 2012 2012 2012 2012 2012 
2012 2012 2012 2012 2012 2012 2012 2012 2012 
2012 2012 2012 2012 2012 2012 2012 2012 2012 
2012 2012 2012 2012 2012 2012 2012 2012 2012 
2012 2012 2012 2012 2012 2012 2012 2012 2012 
2012 2012 2012 2012 2012 2012 2012 2012 2012 
2012 2012 2012 2012 2012 2012 2012 2012 2012 
2012 2012 2012 2012 2012 2012 2012 2012 2012 
2012 2012 2012 2012 2012 2012 2012 2012 2012 
2012 2012 2012 2012 2012 2012 2012 2012 2012 
2012 2012 2012 2012 2012 2012 2012 2012 2012 
2012 2012 2012 2012 2012 2012 2012 2012 2012 
2012 2012 2012 2012 2012 2012 2012 2012 2012 
2012 2012 2012 2012 2012 2012 2012 2012 2012 
2012 2012 2012 2012 2012 2012 2012 2012 2012 
2012 2012 2012 2012 2012 2012 2012 2012 2012 
2012 2012 2012 2012 2012 2012 2012 2012 2012 
2012 2012 2012 2012 2012 2012 2012 2012 2012 
2012 2012 2012 2012 2012 2012 2012 2012 2012 
2012 2012 2012 2012 2012 2012 2012 2012 2012 
2012 2012 2012 2012 2012 2012 2012 2012 2012 
2012 2012 2012 2012 2012 2012 2012 2012 2012 
2012 2012 2012 2012 2012 2012 2012 2012 2012 
2012 2012 2012 2012 2012 2012 2012 2012 2012 
2012 2012 2012 2012 2012 2012 2012 2012 2012 
2012 2012 2012 2012 2012 2012 2012 2012 2012 
2012 2012 2012 2012 2012 2012 2012 2012 2012 
2012 2012 2012 2012 2012 2012 2012 2012 2012 
2012 2012 2012 2012 2012 2012 2012 2012 2012 
2012 2012 2012 2012 2012 2012 2012 2012 2012 
2012 2012 2012 2012 2012 2012 2012 2012 2012 
2012 2012 2012 2012 2012 2012 2012 2012 2012 
2012 2012 2012 2012 2012 2012 2012 2012 2012 
2012 2012 2012 2012 2012 2012 2012 2012 2012 
2012 2012 2012 2012 2012 2012 2012 2012 2012 
2012 2012 2012 2012 2012 2012 2012 2012 2012 
2012 2012 2012 2012 2012 2012 2012 2012 2012 
2012 2012 2012 2012 2012 2012 2012 2012 2012 
2012 2012 2012 2012 2012 2012 2012 2012 2012 
2012 2012 2012 2012 2012 2012 2012 2012 2012 
2012 2012 2012 2012 2012 2012 2012 2012 2012 
2012 2012 2012 2012 2012 2012 2012 2012 2012 
2012 2012 2012 2012 2012 2012 2012 2012 2012 
2012 2012 2012 2012 2012 2012 2012 2012 2012 
2012 2012 2012 2012 2012 2012 2012 2012 2012 
2012 2012 2012 2012 2012 2012 2012 2012 2012 
2012 2012 2012 2012 2012 2012 2012 2012 2012 
2012 2012 2012 2012 2012 2012 2012 2012 2012 
2012 2012 2012 2012 2012 2012 2012 2012 2012 
2012 2012 2012 2012 2012 2012 2012 2012 2012 
2012 2012 2012 2012 2012 2012 2012 2012 2012 
2012 2012 2012 2012 2012 2012 2012 2012 2012 
2012 2012 2012 2012 2012 2012 2012 2012 2012 
2012 2012 2012 2012 2012 2012 2012 2012 2012 
2012 2012 2012 2012 2012 2012 2012 2012 2012 
2012 2012 2012 2012 2012 2012 2012 2012 2012 
2012 2012 2012 2012 2012 2012 2012 2012 2012 
2012 2012 2012 2012 2012 2012 2012 2012 2012 
2012 2012 2012 2012 2012 2012 2012 2012 2012 
2012 2012 2012 2012 2012 2012 2012 2012 2012 
2012 2012 2012 2012 2012 2012 2012 2012 2012 
2012 2012 2012 2012 2012 2012 2012 2012 2012 
2012 2012 2012 2012 2012 2012 2012 2012 2012 
2012 2012 2012 2012 2012 2012 2012 2012 2012 
2012 2012 2012 2012 2012 2012 2012 2012 2012 
2012 2012 2012 2012 2012 2012 2012 2012 2012 
2012 2012 2012 2012 2012 2012 2012 2012 2012 
2012 2012 2012 2012 2012 2012 2012 2012 2012 
2012 2012 2012 2012 2012 2012 2012 2012 2012 
2012 2012 2012 2012 2012 2012 2012 2012 2012 
2012 2012 2012 2012 2012 2012 2012 2012 2012 
2012 2012 2012 2012 2012 2012 2012 2012 2012 
2012 2012 2012 2012 2012 2012 2012 2012 2012 
2012 2012 2012 2012 2012 2012 2012 2012 2012 
2012 2012 2012 2012 2012 2012 2012 2012 2012 
2012 2012 2012 2012 2012 2012 2012 2012 2012 
2012 2012 2012 2012 2012 2012 2012 2012 2012 
2012 2012 2012 2012 2012 2012 2012 2012 2012 
2012 2012 2012 2012 2012 2012 2012 2012 2012 
2012 2012 2012 2012 2012 2012 2012 2012 2012 
2012 2012 2012 2012 2012 2012 2012 2012 2012 
2012 2012 2012 2012 2012 2012 2012 2012 2012 
2012 2012 2012 2012 2012 2012 2012 2012 2012 
2012 2012 2012 2012 2012 2012 2012 2012 2012 
2012 2012 2012 2012 2012 2012 2012 2012 2012 
2012 2012 2012 2012 2012 2012 2012 2012 2012 
2012 2012 2012 2012 2012 2012 2012 2012 2012 
2012 2012 2012 2012 2012 2012 2012 2012 2012 
2012 2012 2012 2012 2012 2012 2012 2012 2012 
2012 2012 2012 2012 2012 2012 2012 2012 2012 
2012 2012 2012 2012 2012 2012 2012 2012 2012 
2012 2012 2012 2012 2012 2012 2012 2012 2012 
2012 2012 2012 2012 2012 2012 2012 2012 2012 
2012 2012 2012 2012 2012 2012 2012 2012 2012 
2012 2012 2012 2012 2012 2012 2012 2012 2012 
2012 2012 2012 2012 2012 2012 2012 2012 2012 
2012 2012 2012 2012 2012 2012 2012 2012 2012 
2012 2012 2012 2012 2012 2012 2012 2012 2012 
2012 2012 2012 2012 2012 2012 2012 2012 2012 
2012 2012 2012 2012 2012 2012 2012 2012 2012 
2012 2012 2012 2012 2012 2012 2012 2012 2012 
2012 2012 2012 2012 2012 2012 2012 2012 2012 
2012 2012 2012 2012 2012 2012 2012 2012 2012 
2012 2012 2012 2012 2012 2012 2012 2012 2012 
2012 2012 2012 2012 2012 2012 2012 2012 2012 
2012 2012 2012 2012 2012 2012 2012 2012 2012 
2012 2012 2012 2012 2012 2012 2012 2012 2012 
2012 2012 2012 2012 2012 2012 2012 2012 2012 
2012 2012 2012 2012 2012 2012 2012 2012 2012 
2012 2012 2012 2012 2012 2012 2012 2012 2012 
2012 2012 2012 2012 2012 2012 2012 2012 2012 
2012 2012 2012 2012 2012 2012 2012 2012 2012 
2012 2012 2012 2012 2012 2012 2012 2012 2012 
2012 2012 2012 2012 2012 2012 2012 2012 2012 
2012 2012 2012 2012 2012 2012 2012 2012 2012 
2012 2012 2012 2012 2012 2012 2012 2012 2012 
2012 2012 2012 2012 2012 2012 2012 2012 2012 
2012 2012 2012 2012 2012 2012 2012 2012 2012 
2012 2012 2012 2012 2012 2012 2012 2012 2012 
2012 2012 2012 2012 2012 2012 2012 2012 2012 
2012 2012 2012 2012 2012 2012 2012 2012 2012 
2012 2012 2012 2012 2012 2012 2012 2012 2012 
2012 2012 2012 2012 2012 2012 2012 2012 2012 
2012 2012 2012 2012 2012 2012 2012 2012 2012 
2012 2012 2012 2012 2012 2012 2012 2012 2012 
2012 2012 2012 2012 2012 2012 2012 2012 2012 
2012 2012 2012 2012 2012 2012 2012 2012 2012 
2012 2012 2012 2012 2012 2012 2012 2012 2012 
2012 2012 2012 2012 2012 2012 2012 2012 2012 
2012 2012 2012 2012 2012 2012 2012 2012 2012 
2012 2012 2012 2012 2012 2012 2012 2012 2012 
2012 2012 2012 2012 2012 2012 2012 2012 2012 
2012 2012 2012 2012 2012 2012 2012 2012 2012 
2012 2012 2012 2012 2012 2012 2012 2012 2012 
2012 2012 2012 2012 2012 2012 2012 2012 2012 
2012 2012 2012 2012 2012 2012 2012 2012 2012 
2012 2012 2012 2012 2012 2012 2012 2012 2012 
2012 2012 2012 2012 2012 2012 2012 2012 2012 
2012 2012 2012 2012 2012 2012 2012 2012 2012 
2012 2012 2012 2012 2012 2012 2012 2012 2012 
2012 2012 2012 2012 2012 2012 2012 2012 2012 
2012 2012 2012 2012 2012 2012 2012 2012 2012 
2012 2012 2012 2012 2012 2012 2012 2012 2012 
2012 2012 2012 2012 2012 2012 2012 2012 2012 
2012 2012 2012 2012 2012 2012 2012 2012 2012 
2012 2012 2012 2012 2012 2012 2012 2012 2012 
2012 2012 2012 2012 2012 2012 2012 2012 2012 
2012 2012 2012 2012 2012 2012 2012 2012 2012 
2012 2012 2012 2012 2012 2012 2012 2012 2012 
2012 2012 2012 2012 2012 2012 2012 2012 2012 
2012 2012 2012 2012 2012 2012 2012 2012 2012 
2012 2012 2012 2012 2012 2012 2012 2012 2012 
2012 2012 2012 2012 2012 2012 2012 2012 2012 
2012 2012 2012 2012 2012 2012 2012 2012 2012 
2012 2012 2012 2012 2012 2012 2012 2012 2012 
2012 2012 2012 2012 2012 2012 2012 2012 2012 
2012 2012 2012 2012 2012 2012 2012 2012 2012 
2012 2012 2012 2012 2012 2012 2012 2012 2012 
2012 2012 2012 2012 2012 2012 2012 2012 2012 
2012 2012 2012 2012 2012 2012 2012 2012 2012 
2012 2012 2012 2012 2012 2012 2012 2012 2012 
2012 2012 2012 2012 2012 2012 2012 2012 2012 
2012 2012 2012 2012 2012 2012 2012 2012 2012 
2012 2012 2012 2012 2012 2012 2012 2012 2012 
2012 2012 2012 2012 2012 2012 2012 2012 2012 
2012 2012 2012 2012 2012 2012 2012 2012 2012 
2012 2012 2012 2012 2012 2012 2012 2012 2012 
2012 2012 2012 2012 2012 2012 2012 2012 2012 
2012 2012 2012 2012 2012 2012 2012 2012 2012 
2012 2012 2012 2012 2012 2012 2012 2012 2012 
2012 2012 2012 2012 2012 2012 2012 2012 2012 
2012 2012 2012 2012 2012 2012 2012 2012 2012 
2012 2012 2012 2012 2012 2012 2012 2012 2012 
2012 2012 2012 2012 2012 2012 2012 2012 2012 
2012 2012 2012 2012 2012 2012 2012 2012 2012 
2012 2012 2012 2012 2012 2012 2012 2012 2012 
2012 2012 2012 2012 2012 2012 2012 2012 2012 
2012 2012 2012 2012 2012 2012 2012 2012 2012 
2012 2012 2012 2012 2012 2012 2012 2012 2012 
2012 2012 2012 2012 2012 2012 2012 2012 2012 
2012 2012 2012 2012 2012 2012 2012 2012 2012 
2012 2012 2012 2012 2012 2012 2012 2012 2012 
2012 2012 2012 2012 2012 2012 2012 2012 2012 
2012 2012 2012 2012 2012 2012 2012 2012 2012 
2012 2012 2012 2012 2012 2012 2012 2012 2012 
2012 2012 2012 2012 2012 2012 2012 2012 2012 
2012 2012 2012 2012 2012 2012 2012 2012 2012 
2012 2012 2012 2012 2012 2012 2012 2012 2012 
2012 2012 2012 2012 2012 2012 2012 2012 2012 
2012 2012 2012 2012 2012 2012 2012 2012 2012 
2012 2012 2012 2012 2012 2012 2012 2012 2012 
2012 2012 2012 2012 2012 2012 2012 2012 2012 
2012 2012 2012 2012 2012 2012 2012 2012 2012 
2012 2012 2012 2012 2012 2012 2012 2012 2012 
2012 2012 2012 2012 2012 2012 2012 2012 2012 
2012 2012 2012 2012 2012 2012 2012 2012 2012 
2012 2012 2012 2012 2012 2012 2012 2012 2012 
2012 2012 2012 2012 2012 2012 2012 2012 2012 
2012 2012 2012 2012 2012 2012 2012 2012 2012 
2012 2012 2012 2012 2012 2012 2012 2012 2012 
2012 2012 2012 2012 2012 2012 2012 2012 2012 
2012 2012 2012 2012 2012 2012 2012 2012 2012 
2012 2012 2012 2012 2012 2012 2012 2012 2012 
2012 2012 2012 2012 2012 2012 2012 2012 2012 
2012 2012 2012 2012 2012 2012 2012 2012 2012 
2012 2012 2012 2012 2012 2012 2012 2012 2012 
2012 2012 2012 2012 2012 2012 2012 2012 2012 
2012 2012 2012 2012 2012 2012 2012 2012 2012 
2012 2012 2012 2012 2012 2012 2012 2012 2012 
2012 2012 2012 2012 2012 2012 2012 2012 2012 
2012 2012 2012 2012 2012 2012 2012 2012 2012 
2012 2012 2012 2012 2012 2012 2012 2012 2012 
2012 2012 2012 2012 2012 2012 2012 2012 2012 
2012 2012 2012 2012 2012 2012 2012 2012 2012 
2012 2012 2012 2012 2012 2012 2012 2012 2012 
2012 2012 2012 2012 2012 2012 2012 2012 2012 
2012 2012 2012 2012 2012 2012 2012 2012 2012 
2012 2012 2012 2012 2012 2012 2012 2012 2012 
2012 2012 2012 2012 2012 2012 2012 2012 2012 
2012 2012 2012 2012 2012 2012 2012 2012 2012 
2012 2012 2012 2012 2012 2012 2012 2012 2012 
2012 2012 2012 2012 2012 2012 2012 2012 2012 
2012 2012 2012 2012 2012 2012 2012 2012 2012 
2012 2012 2012 2012 2012 2012 2012 2012 2012 
2012 2012 2012 2012 2012 2012 2012 2012 2012 
2012 2012 2012 2012 2012 2012 2012 2012 2012 
2012 2012 2012 2012 2012 2012 2012 2012 2012 
2012 2012 2012 2012 2012 2012 2012 2012 2012 
2012 2012 2012 2012 2012 2012 2012 2012 2012 
2012 2012 2012 2012 2012 2012 2012 2012 2012 
2012 2012 2012 2012 2012 2012 2012 2012 2012 
2012 2012 2012 2012 2012 2012 2012 2012 2012 
2012 2012 2012 2012 2012 2012 2012 2012 2012 
2012 2012 2012 2012 2012 2012 2012 2012 2012 
2012 2012 2012 2012 2012 2012 2012 2012 2012 
2012 2012 2012 2012 2012 2012 2012 2012 2012 
2012 2012 2012 2012 2012 2012 2012 2012 2012 
2012 2012 2012 2012 2012 2012 2012 2012 2012 
2012 2012 2012 2012 2012 2012 2012 2012 2012 
2012 2012 2012 2012 2012 2012 2012 2012 2012 
2012 2012 2012 2012 2012 2012 2012 2012 2012 
2012 2012 2012 2012 2012 2012 2012 2012 2012 
2012 2012 2012 2012 2012 2012 2012 2012 2012 
2012 2012 2012 2012 2012 2012 2012 2012 2012 
2012 2012 2012 2012 2012 2012 2012 2012 2012 
2012 2012 2012 2012 2012 2012 2012 2012 2012 
2012 2012 2012 2012 2012 2012 2012 2012 2012 
2012 2012 2012 2012 2012 2012 2012 2012 2012 
2012 2012 2012 2012 2012 2012 2012 2012 2012 
2012 2012 2012 2012 2012 2012 2012 2012 2012 
2012 2012 2012 2012 2012 2012 2012 2012 2012 
2012 2012 2012 2012 2012 2012 2012 2012 2012 
2012 2012 2012 2012 2012 2012 2012 2012 2012 
2012 2012 2012 2012 2012 2012 2012 2012 2012 
2012 2012 2012 2012 2012 2012 2012 2012 2012 
2012 2012 2012 2012 2012 2012 2012 2012 2012 
2012 2012 2012 2012 2012 2012 2012 2012 2012 
2012 2012 2012 2012 2012 2012 2012 2012 2012 
2012 2012 2012 2012 2012 2012 2012 2012 2012 
2012 2012 2012 2012 2012 2012 2012 2012 2012 
2012 2012 2012 2012 2012 2012 2012 2012 2012 
2012 2012 2012 2012 2012 2012 2012 2012 2012 
2012 2012 2012 2012 2012 2012 2012 2012 2012 
2012 2012 2012 2012 2012 2012 2012 2012 2012 
2012 2012 2012 2012 2012 2012 2012 2012 2012 
2012 2012 2012 2012 2012 2012 2012 2012 2012 
2012 2012 2012 2012 2012 2012 2012 2012 2012 
2012 2012 2012 2012 2012 2012 2012 2012 2012 
2012 2012 2012 2012 2012 2012 2012 2012 2012 
2012 2012 2012 2012 2012 2012 2012 2012 2012 
2012 2012 2012 2012 2012 2012 2012 2012 2012 
2012 2012 2012 2012 2012 2012 2012 2012 2012 
2012 2012 2012 2012 2012 2012 2012 2012 2012 
2012 2012 2012 2012 2012 2012 2012 2012 2012 
2012 2012 2012 2012 2012 2012 2012 2012 2012 
2012 2012 2012 2012 2012 2012 2012 2012 2012 
2012 2012 2012 2012 2012 2012 2012 2012 2012 
2012 2012 2012 2012 2012 2012 2012 2012 2012 
2012 2012 2012 2012 2012 2012 2012 2012 2012 
2012 2012 2012 2012 2012 2012 2012 2012 2012 
2012 2012 2012 2012 2012 2012 2012 2012 2012 
2012 2012 2012 2012 2012 2012 2012 2012 2012 
2012 2012 2012 2012 2012 2012 2012 2012 2012 
2012 2012 2012 2012 2012 2012 2012 2012 2012 
2012 2012 2012 2012 2012 2012 2012 2012 2012 
2012 2012 2012 2012 2012 2012 2012 2012 2012 
2012 2012 2012 2012 2012 2012 2012 2012 2012 
2012 2012 2012 2012 2012 2012 2012 2012 2012 
2012 2012 2012 2012 2012 2012 2012 2012 2012 
2012 2012 2012 2012 2012 2012 2012 2012 2012 
2012 2012 2012 2012 2012 2012 2012 2012 2012 
2012 2012 2012 2012 2012 2012 2012 2012 2012 
2012 2012 2012 2012 2012 2012 2012 2012 2012 
2012 2012 2012 2012 2012 2012 2012 2012 2012 
2012 2012 2012 2012 2012 2012 2012 2012 2012 
2012 2012 2012 2012 2012 2012 2012 2012 2012 
2012 2012 2012 2012 2012 2012 2012 2012 2012 
2012 2012 2012 2012 2012 2012 2012 2012 2012 
2012 2012 2012 2012 2012 2012 2012 2012 2012 
2012 2012 2012 2012 2012 2012 2012 2012 2012 
2012 2012 2012 2012 2012 2012 2012 2012 2012 
2012 2012 2012 2012 2012 2012 2012 2012 2012 
2012 2012 2012 2012 2012 2012 2012 2012 2012 
2012 2012 2012 2012 2012 2012 2012 2012 2012 
2012 2012 2012 2012 2012 2012 2012 2012 2012 
2012 2012 2012 2012 2012 2012 2012 2012 2012 
2012 2012 2012 2012 2012 2012 2012 2012 2012 
2012 2012 2012 2012 2012 2012 2012 2012 2012 
2012 2012 2012 2012 2012 2012 2012 2012 2012 
2012 2012 2012 2012 2012 2012 2012 2012 2012 
2012 2012 2012 2012 2012 2012 2012 2012 2012 
2012 2012 2012 2012 2012 2012 2012 2012 2012 
2012 2012 2012 2012 2012 2012 2012 2012 2012 
2012 2012 2012 2012 2012 2012 2012 2012 2012 
2012 2012 2012 2012 2012 2012 2012 2012 2012 
2012 2012 2012 2012 2012 2012 2012 2012 2012 
2012 2012 2012 2012 2012 2012 2012 2012 2012 
2012 2012 2012 2012 2012 2012 2012 2012 2012 
2012 2012 2012 2012 2012 2012 2012 2012 2012 
2012 2012 2012 2012 2012 2012 2012 2012 2012 
2012 2012 2012 2012 2012 2012 2012 2012 2012 
2012 2012 2012 2012 2012 2012 2012 2012 2012 
2012 2012 2012 2012 2012 2012 2012 2012 2012 
2012 2012 2012 2012 2012 2012 2012 2012 2012 
2012 2012 2012 2012 2012 2012 2012 2012 2012 
2012 2012 2012 2012 2012 2012 2012 2012 2012 
2012 2012 2012 2012 2012 2012 2012 2012 2012 
2012 2012 2012 2012 2012 2012 2012 2012 2012 
2012 2012 2012 2012 2012 2012 2012 2012 2012 
2012 2012 2012 2012 2012 2012 2012 2012 2012 
2012 2012 2012 2012 2012 2012 2012 2012 2012 
2012 2012 2012 2012 2012 2012 2012 2012 2012 
2012 2012 2012 2012 2012 2012 2012 2012 2012 
2012 2012 2012 2012 2012 2012 2012 2012 2012 
2012 2012 2012 2012 2012 2012 2012 2012 2012 
2012 2012 2012 2012 2012 2012 2012 2012 2012 
2012 2012 2012 2012 2012 2012 2012 2012 2012 
2012 2012 2012 2012 2012 2012 2012 2012 2012 
2012 2012 2012 2012 2012 2012 2012 2012 2012 
2012 2012 2012 2012 2012 2012 2012 2012 2012 
2012 2012 2012 2012 2012 2012 2012 2012 2012 
2012 2012 2012 2012 2012 2012 2012 2012 2012 
2012 2012 2012 2012 2012 2012 2012 2012 2012 
2012 2012 2012 2012 2012 2012 2012 2012 2012 
2012 2012 2012 2012 2012 2012 2012 2012 2012 
2012 2012 2012 2012 2012 2012 2012 2012 2012 
2012 2012 2012 2012 2012 2012 2012 2012 2012 
2012 2012 2012 2012 2012 2012 2012 2012 2012 
2012 2012 2012 2012 2012 2012 2012 2012 2012 
2012 2012 2012 2012 2012 2012 2012 2012 2012 
2012 2012 2012 2012 2012 2012 2012 2012 2012 
2012 2012 2012 2012 2012 2012 2012 2012 2012 
2012 2012 2012 2012 2012 2012 2012 2012 2012 
2012 2012 2012 2012 2012 2012 2012 2012 2012 
2012 2012 2012 2012 2012 2012 2012 2012 2012 
2012 2012 2012 2012 2012 2012 2012 2012 2012 