# vtk DataFile Version 4.2
vtk output
ASCII
DATASET POLYDATA
POINTS 5910 float
-22.4466 21.8658 -30.78 -22.8157 21.1563 -30.4545 -22.1342 21.4991 -30.1814 
-21.4068 21.3834 -30.1541 -21.3396 21.8928 -30.5811 -20.3107 21.5231 -30.2259 
-20.3169 21.8992 -30.5802 -19.5471 21.4766 -30.282 -19.2714 21.8047 -30.6329 
-19.0112 21.5232 -30.4657 -22.3106 20.8202 -30.2147 -22.7048 20.3869 -30.5669 
-21.8047 20.6557 -30.3747 -21.015 20.9169 -30.4302 -20.0384 21.0434 -30.4585 
-19.2343 21.2035 -30.5257 -22.2134 20.2105 -30.5687 -21.3651 17.7644 -30.5136 
-21.5628 17.4563 -30.4404 -21.0171 17.5028 -30.2729 -20.5927 17.6914 -30.5628 
-20.4436 17.3955 -30.2768 -20.1268 17.4206 -30.4178 -21.1642 17.0837 -30.6899 
-20.3041 17.2437 -30.4355 -24.338 14.3792 -30.268 -24.5655 14.7639 -30.5671 
-24.4947 14.2876 -30.6587 -24.0687 14.5815 -30.4367 -24.0359 14.1542 -30.6715 
-24.2498 22.2189 -31.1801 -24.287 22.7623 -31.802 -24.8529 22.3768 -31.4655 
-23.764 22.6296 -31.6141 -25.0222 21.5844 -31.1482 -25.552 21.9973 -31.7916 
-25.8056 21.1953 -31.4715 -24.2196 21.384 -30.9632 -23.3299 22.2113 -31.2555 
-23.4711 21.6352 -30.8665 -22.4397 22.1307 -31.5925 -21.384 21.8489 -31.4894 
-20.3671 21.9225 -31.3801 -19.4872 22.0498 -31.3879 -18.5641 22.0775 -31.4118 
-18.3397 21.3354 -30.9108 -17.019 21.3984 -31.0972 -17.5555 22.0278 -31.4713 
-16.1146 21.5166 -31.129 -16.3899 22.0328 -31.566 -15.5584 21.2554 -31.2406 
-15.5612 21.7807 -31.4729 -15.0265 21.4041 -31.809 -25.2133 20.5137 -31.0899 
-25.8861 20.2162 -31.4338 -24.3527 20.5186 -30.9771 -23.3765 20.5736 -30.8504 
-21.4078 20.1019 -30.8199 -20.3505 20.325 -30.847 -19.1964 20.5063 -30.8625 
-18.1214 20.3027 -30.9514 -17.2562 20.4544 -30.9507 -16.2609 20.6058 -31.0803 
-15.6032 20.5733 -31.3611 -15.2713 20.9886 -31.4758 -25.2434 19.4858 -31.1106 
-25.8855 19.2155 -31.4777 -24.3534 19.4632 -30.9823 -23.3536 19.4466 -30.9966 
-22.2799 19.5797 -30.9218 -21.3388 19.4002 -31.0291 -20.6305 19.3951 -31.1643 
-19.6033 19.6268 -31.1709 -18.4181 19.4836 -31.1069 -17.3034 19.4345 -30.9616 
-16.4286 19.4146 -31.0858 -15.7527 19.5195 -31.5442 -25.3455 18.7143 -31.2519 
-25.6938 18.3935 -31.5944 -24.4715 18.4786 -31.124 -23.374 18.44 -31.0105 
-22.4769 18.5839 -31.0089 -21.3177 18.4578 -31.019 -20.7443 18.7956 -31.7703 
-20.0534 19.2074 -31.6085 -19.1142 19.0365 -31.613 -18.206 18.7948 -31.3876 
-17.6694 18.2553 -31.5121 -17.4527 18.6768 -31.1569 -16.5719 18.5095 -31.1695 
-16.008 18.5899 -31.4583 -25.0094 18.0171 -31.5228 -24.2844 17.773 -31.4855 
-23.7649 17.2937 -31.6788 -23.5523 17.7066 -31.2547 -22.2727 17.611 -30.9435 
-20.5821 17.7302 -31.3885 -20.4249 17.2715 -30.8005 -16.8869 17.9479 -31.6649 
-16.2148 18.0802 -31.6901 -26.0582 16.3425 -31.1093 -26.356 17.0102 -31.611 
-26.696 16.4166 -31.5476 -25.1159 16.1882 -31.163 -25.6736 16.9245 -31.4891 
-24.9083 16.6362 -31.6115 -22.9759 17.0103 -31.5483 -22.1067 16.763 -31.329 
-21.4881 16.5223 -31.3055 -21.833 16.3818 -31.5562 -20.7729 16.7657 -31.4001 
-26.3847 15.7235 -31.1343 -26.7086 15.5882 -31.7737 -25.4136 15.3881 -31.003 
-24.3388 16.1294 -31.4607 -24.1433 15.3887 -30.9207 -23.0843 15.4224 -31.1463 
-23.5158 15.9882 -31.5326 -22.4801 15.1679 -31.2716 -22.6058 15.8748 -31.5313 
-21.3119 16.1815 -31.6654 -21.9783 15.5742 -31.5942 -26.0795 15.1312 -31.5634 
-25.4893 14.9141 -31.5258 -24.8674 14.5317 -31.5094 -23.3602 14.6483 -30.9201 
-22.7329 14.5375 -31.4678 -22.0525 14.949 -31.8663 -24.194 14.0127 -31.4817 
-23.4321 14.0872 -31.5148 -24.3736 22.911 -32.7673 -24.9492 22.5485 -32.1343 
-23.0228 22.5747 -31.8969 -23.3866 22.9164 -32.4449 -22.1596 22.4742 -32.1224 
-22.3254 22.8905 -32.5967 -21.1965 22.4173 -32.285 -21.5443 22.8846 -32.4903 
-20.1444 22.4704 -32.2693 -20.638 23.0701 -32.6295 -19.1292 22.4007 -32.0294 
-19.441 23.0138 -32.5837 -18.034 22.4941 -31.9915 -18.4663 22.8162 -32.4788 
-17.0258 22.4974 -32.0201 -17.4496 22.9834 -32.7176 -16.1999 22.4341 -32.164 
-16.405 22.7938 -32.6431 -15.7168 22.561 -32.6551 -26.2155 21.5097 -31.9974 
-26.2317 22.0223 -32.5165 -26.6805 21.417 -32.6002 -25.6227 22.2996 -32.4683 
-21.701 21.5559 -32.271 -21.0532 21.2585 -31.9933 -21.1477 21.8745 -32.5786 
-20.2326 21.9334 -32.6878 -20.2305 21.3456 -32.0149 -19.773 21.8399 -32.1807 
-15.4488 22.0857 -32.16 -14.7478 21.7014 -32.4781 -26.4833 20.6018 -31.9558 
-27.023 20.5326 -32.5469 -21.3642 20.3739 -32.0907 -21.9969 20.4384 -32.4614 
-20.4644 20.6274 -32.0425 -19.4482 21.1161 -32.4482 -19.6398 20.394 -32.2793 
-19.026 20.6846 -32.6352 -14.9811 20.3747 -31.8162 -14.3547 21.079 -32.305 
-14.0534 20.4545 -32.1408 -13.438 20.2149 -32.2666 -13.5621 20.7266 -32.5961 
-13.077 20.4234 -32.4899 -27.0401 19.5994 -32.2153 -27.4221 20.0212 -32.6382 
-27.5534 19.5228 -32.8152 -26.3912 19.6402 -31.7958 -22.1493 19.7265 -32.251 
-22.6524 19.3436 -32.5294 -22.5639 19.9319 -32.8126 -21.4387 19.3516 -32.0724 
-20.4601 19.6492 -31.9618 -19.7368 19.2989 -32.225 -19.1373 20.0709 -32.6192 
-15.258 19.2747 -32.0359 -14.4083 19.6227 -32.1661 -13.6924 19.6996 -32.4654 
-13.1453 20.1448 -32.4506 -27.1616 18.9687 -32.527 -26.8384 18.3479 -32.6358 
-26.3942 18.6251 -32.0055 -22.0617 19.0362 -32.4571 -21.1885 18.8403 -32.4547 
-20.1194 18.3138 -32.0397 -20.342 18.905 -32.4736 -19.2307 18.4031 -32.0098 
-18.3567 18.3001 -31.7698 -15.8314 18.5274 -32.1434 -15.35 18.8489 -32.693 
-14.5272 19.152 -32.7675 -26.2382 17.647 -32.0159 -26.8389 17.3191 -32.5815 
-25.3399 17.4855 -31.8286 -24.3728 17.3076 -31.8571 -20.1237 17.1617 -31.8779 
-19.4434 17.5859 -32.0516 -18.556 17.3778 -32.1356 -17.55 17.556 -32.0652 
-16.8493 17.569 -32.6141 -16.4061 18.0055 -32.4453 -26.8968 16.2706 -32.311 
-24.2545 16.6269 -31.865 -23.3567 16.6169 -31.8476 -22.1801 16.2426 -31.7203 
-20.4432 16.182 -31.8858 -19.44 16.3954 -32.1796 -18.8027 16.6262 -32.6597 
-17.9307 16.9434 -32.6946 -17.2419 17.1246 -32.82 -26.7531 15.5543 -32.7769 
-21.2839 15.5771 -31.9086 -20.3077 15.4691 -32.2073 -19.7787 15.4828 -32.4353 
-19.3743 15.9112 -32.5773 -26.2706 15.0436 -32.5015 -25.4026 14.7799 -32.3944 
-24.676 14.4659 -32.6468 -22.833 14.3661 -32.2082 -22.4573 14.7383 -32.7777 
-21.3865 15.0687 -32.6108 -20.4452 15.1661 -32.5863 -24.321 14.1324 -32.3305 
-23.6403 14.0644 -32.4011 -19.9961 23.5819 -33.0395 -20.0234 23.774 -33.7592 
-20.5566 23.5017 -33.304 -19.2385 23.4779 -33.1311 -19.5331 23.8176 -33.5037 
-18.8902 23.5204 -33.8685 -17.1549 23.4112 -33.2375 -17.2399 23.7016 -33.8386 
-17.6252 23.3941 -33.3981 -16.7414 23.5828 -33.6394 -26.0319 22.5098 -33.081 
-26.2296 22.7852 -33.8593 -26.6686 22.2055 -33.3025 -25.2726 22.6233 -32.8095 
-25.2291 22.8869 -33.5536 -24.1766 23.0112 -33.673 -23.4773 23.0162 -33.3463 
-22.4434 22.8884 -33.4616 -21.2953 23.0811 -33.2175 -18.3617 23.1991 -33.3392 
-16.5408 23.1917 -33.2103 -14.9278 22.3444 -32.9314 -15.5789 22.9926 -33.3036 
-14.2839 22.2778 -33.2633 -14.3943 23.0225 -33.6804 -13.8759 22.4655 -33.7618 
-27.0517 21.4235 -33.3642 -21.3503 21.3713 -32.9595 -20.669 21.4995 -33.1005 
-19.814 21.3902 -33.6 -19.2704 21.7465 -33.4077 -19.1011 21.4441 -32.8751 
-18.2676 21.8017 -33.6338 -18.0364 21.4254 -33.0868 -17.2804 21.9326 -33.5947 
-17.1776 21.5543 -33.1039 -16.3796 21.8706 -33.5801 -16.6005 21.2938 -33.2167 
-15.9045 21.6235 -33.6358 -14.2016 21.5151 -32.9435 -14.0853 21.6384 -33.6754 
-12.2723 21.4503 -33.305 -12.1726 21.7507 -33.6351 -12.6597 21.5231 -33.6309 
-11.7985 21.3409 -33.7432 -27.3194 20.6085 -33.0316 -27.4084 21.0686 -33.6357 
-27.6639 20.348 -33.4306 -21.8071 20.6563 -33.1311 -21.0141 20.8949 -33.509 
-20.322 20.9711 -33.6827 -18.4373 20.378 -32.9101 -17.3507 20.6273 -33.0815 
-16.7049 20.5848 -33.3772 -16.1936 21.105 -33.5447 -13.8117 20.6001 -33.3942 
-13.3679 20.1951 -32.7488 -12.236 21.0418 -33.5384 -27.7652 19.562 -33.6149 
-23.1535 19.3222 -32.9487 -23.8337 19.1594 -33.4177 -23.3057 19.8005 -33.6603 
-22.1391 20.0822 -33.7047 -19.2694 19.3005 -32.8805 -18.3557 19.4763 -33.041 
-17.5282 19.3606 -33.2026 -16.7263 19.6361 -33.4698 -14.0329 19.6631 -33.0486 
-14.7376 19.428 -33.5615 -14.2096 19.951 -33.8256 -27.3521 18.9166 -33.1574 
-27.1196 18.2311 -33.258 -23.3822 18.7269 -33.197 -23.7976 18.6182 -33.4865 
-22.5114 18.5533 -32.976 -21.365 18.3505 -32.8763 -20.2266 18.4555 -32.9322 
-19.332 18.4733 -33.0786 -18.516 18.5391 -33.2511 -17.7459 18.6329 -33.5482 
-17.1341 18.6954 -33.5195 -16.4303 18.6805 -33.0935 -16.8237 18.058 -33.4211 
-15.988 18.9578 -33.5804 -15.211 18.9796 -33.5503 -27.2139 17.6506 -33.2963 
-27.4761 17.9227 -33.6104 -27.5387 17.3494 -33.6206 -23.2877 18.1272 -33.6584 
-22.2582 17.8323 -33.4447 -21.3726 17.5068 -33.1632 -21.8498 17.1247 -33.5585 
-20.3251 17.4288 -33.047 -19.2161 17.4683 -33.116 -18.5592 17.5764 -33.5353 
-18.1477 18.0513 -33.7128 -16.9894 17.3973 -33.3847 -27.2208 17.0696 -33.3704 
-26.9237 16.3142 -33.3294 -21.1019 16.3898 -33.2015 -21.764 16.1475 -33.5712 
-20.4278 16.5749 -33.0398 -19.5862 16.4328 -32.8949 -18.3757 17.0029 -33.3113 
-17.5678 17.0836 -33.4737 -26.5815 15.5566 -33.6449 -21.0967 15.4824 -33.0416 
-21.7745 15.3889 -33.3897 -20.1676 15.6859 -32.8332 -26.3429 15.1574 -33.3353 
-25.6254 15.012 -33.4087 -24.5958 14.8899 -33.4413 -23.9939 14.3902 -33.0478 
-23.3871 14.89 -33.5046 -23.2162 14.4295 -32.9336 -22.371 15.0959 -33.4411 
-20.4587 23.1565 -33.9507 -19.7087 23.326 -34.6598 -19.3775 23.7552 -34.2441 
-18.9303 23.4341 -34.6705 -17.3455 23.7964 -34.6847 -17.7719 23.4644 -34.2271 
-16.0123 23.5205 -33.8713 -16.641 24.0068 -34.5077 -15.0413 23.4915 -33.987 
-15.4218 24.0068 -34.5833 -14.3772 23.5139 -34.0952 -14.3639 23.7974 -34.6185 
-13.8001 23.5341 -34.4797 -26.1497 22.9842 -34.6015 -26.8831 22.4711 -34.2594 
-25.365 22.9955 -34.5488 -24.4938 22.9976 -34.3715 -23.3977 23.0123 -34.4457 
-22.3829 22.5229 -34.1834 -22.7758 22.6382 -34.8792 -21.3856 22.5265 -33.983 
-20.5054 22.3981 -34.2662 -20.0229 22.6632 -34.5688 -18.3942 23.2257 -34.6905 
-13.2432 22.242 -34.0632 -13.3091 23.0405 -34.4986 -12.7286 22.6183 -34.6023 
-9.1658 22.266 -34.218 -9.2404 22.5824 -34.432 -9.43881 22.2794 -34.3492 
[...]
CELL_DATA 11904
SCALARS scalars float
LOOKUP_TABLE default
2005 2005 2005 2005 2005 2005 2005 2005 2005 
2005 2005 2005 2005 2005 2005 2005 2005 2005 
2005 2005 2005 2005 2005 2005 2005 2005 2005 
2005 2005 2005 2005 2005 2005 2005 2005 2005 
2005 2005 2005 2005 2005 2005 2005 2005 2005 
2005 2005 2005 2005 2005 2005 2005 2005 2005 
2005 2005 2005 2005 2005 2005 2005 2005 2005 
2005 2005 2005 2005 2005 2005 2005 2005 2005 
2005 2005 2005 2005 2005 2005 2005 2005 2005 
2005 2005 2005 2005 2005 2005 2005 2005 2005 
2005 2005 2005 2005 2005 2005 2005 2005 2005 
2005 2005 2005 2005 2005 2005 2005 2005 2005 
2005 2005 2005 2005 2005 2005 2005 2005 2005 
2005 2005 2005 2005 2005 2005 2005 2005 2005 
2005 2005 2005 2005 2005 2005 2005 2005 2005 
2005 2005 2005 2005 2005 2005 2005 2005 2005 
2005 2005 2005 2005 2005 2005 2005 2005 2005 
2005 2005 2005 2005 2005 2005 2005 2005 2005 
2005 2005 2005 2005 2005 2005 2005 2005 2005 
2005 2005 2005 2005 2005 2005 2005 2005 2005 
2005 2005 2005 2005 2005 2005 2005 2005 2005 
2005 2005 2005 2005 2005 2005 2005 2005 2005 
2005 2005 2005 2005 2005 2005 2005 2005 2005 
2005 2005 2005 2005 2005 2005 2005 2005 2005 
2005 2005 2005 2005 2005 2005 2005 2005 2005 
2005 2005 2005 2005 2005 2005 2005 2005 2005 
2005 2005 2005 2005 2005 2005 2005 2005 2005 
2005 2005 2005 2005 2005 2005 2005 2005 2005 
2005 2005 2005 2005 2005 2005 2005 2005 2005 
2005 2005 2005 2005 2005 2005 2005 2005 2005 
2005 2005 2005 2005 2005 2005 2005 2005 2005 
2005 2005 2005 2005 2005 2005 2005 2005 2005 
2005 2005 2005 2005 2005 2005 2005 2005 2005 
2005 2005 2005 2005 2005 2005 2005 2005 2005 
2005 2005 2005 2005 2005 2005 2005 2005 2005 
2005 2005 2005 2005 2005 2005 2005 2005 2005 
2005 2005 2005 2005 2005 2005 2005 2005 2005 
2005 2005 2005 2005 2005 2005 2005 2005 2005 
2005 2005 2005 2005 2005 2005 2005 2005 2005 
2005 2005 2005 2005 2005 2005 2005 2005 2005 
2005 2005 2005 2005 2005 2005 2005 2005 2005 
2005 2005 2005 2005 2005 2005 2005 2005 2005 
2005 2005 2005 2005 2005 2005 2005 2005 2005 
2005 2005 2005 2005 2005 2005 2005 2005 2005 
2005 2005 2005 2005 2005 2005 2005 2005 2005 
2005 2005 2005 2005 2005 2005 2005 2005 2005 
2005 2005 2005 2005 2005 2005 2005 2005 2005 
2005 2005 2005 2005 2005 2005 2005 2005 2005 
2005 2005 2005 2005 2005 2005 2005 2005 2005 
2005 2005 2005 2005 2005 2005 2005 2005 2005 
2005 2005 2005 2005 2005 2005 2005 2005 2005 
2005 2005 2005 2005 2005 2005 2005 2005 2005 
2005 2005 2005 2005 2005 2005 2005 2005 2005 
2005 2005 2005 2005 2005 2005 2005 2005 2005 
2005 2005 2005 2005 2005 2005 2005 2005 2005 
2005 2005 2005 2005 2005 2005 2005 2005 2005 
2005 2005 2005 2005 2005 2005 2005 2005 2005 
2005 2005 2005 2005 2005 2005 2005 2005 2005 
2005 2005 2005 2005 2005 2005 2005 2005 2005 
2005 2005 2005 2005 2005 2005 2005 2005 2005 
2005 2005 2005 2005 2005 2005 2005 2005 2005 
2005 2005 2005 2005 2005 2005 2005 2005 2005 
2005 2005 2005 2005 2005 2005 2005 2005 2005 
2005 2005 2005 2005 2005 2005 2005 2005 2005 
2005 2005 2005 2005 2005 2005 2005 2005 2005 
2005 2005 2005 2005 2005 2005 2005 2005 2005 
2005 2005 2005 2005 2005 2005 2005 2005 2005 
2005 2005 2005 2005 2005 2005 2005 2005 2005 
2005 2005 2005 2005 2005 2005 2005 2005 2005 
2005 2005 2005 2005 2005 2005 2005 2005 2005 
2005 2005 2005 2005 2005 2005 2005 2005 2005 
2005 2005 2005 2005 2005 2005 2005 2005 2005 
2005 2005 2005 2005 2005 2005 2005 2005 2005 
2005 2005 2005 2005 2005 2005 2005 2005 2005 
2005 2005 2005 2005 2005 2005 2005 2005 2005 
2005 2005 2005 2005 2005 2005 2005 2005 2005 
2005 2005 2005 2005 2005 2005 2005 2005 2005 
2005 2005 2005 2005 2005 2005 2005 2005 2005 
2005 2005 2005 2005 2005 2005 2005 2005 2005 
2005 2005 2005 2005 2005 2005 2005 2005 2005 
2005 2005 2005 2005 2005 2005 2005 2005 2005 
2005 2005 2005 2005 2005 2005 2005 2005 2005 
2005 2005 2005 2005 2005 2005 2005 2005 2005 
2005 2005 2005 2005 2005 2005 2005 2005 2005 
2005 2005 2005 2005 2005 2005 2005 2005 2005 
2005 2005 2005 2005 2005 2005 2005 2005 2005 
2005 2005 2005 2005 2005 2005 2005 2005 2005 
2005 2005 2005 2005 2005 2005 2005 2005 2005 
2005 2005 2005 2005 2005 2005 2005 2005 2005 
2005 2005 2005 2005 2005 2005 2005 2005 2005 
2005 2005 2005 2005 2005 2005 2005 2005 2005 
2005 2005 2005 2005 2005 2005 2005 2005 2005 
2005 2005 2005 2005 2005 2005 2005 2005 2005 
2005 2005 2005 2005 2005 2005 2005 2005 2005 
2005 2005 2005 2005 2005 2005 2005 2005 2005 
2005 2005 2005 2005 2005 2005 2005 2005 2005 
2005 2005 2005 2005 2005 2005 2005 2005 2005 
2005 2005 2005 2005 2005 2005 2005 2005 2005 
2005 2005 2005 2005 2005 2005 2005 2005 2005 
2005 2005 2005 2005 2005 2005 2005 2005 2005 
2005 2005 2005 2005 2005 2005 2005 2005 2005 
2005 2005 2005 2005 2005 2005 2005 2005 2005 
2005 2005 2005 2005 2005 2005 2005 2005 2005 
2005 2005 2005 2005 2005 2005 2005 2005 2005 
2005 2005 2005 2005 2005 2005 2005 2005 2005 
2005 2005 2005 2005 2005 2005 2005 2005 2005 
2005 2005 2005 2005 2005 2005 2005 2005 2005 
2005 2005 2005 2005 2005 2005 2005 2005 2005 
2005 2005 2005 2005 2005 2005 2005 2005 2005 
2005 2005 2005 2005 2005 2005 2005 2005 2005 
2005 2005 2005 2005 2005 2005 2005 2005 2005 
2005 2005 2005 2005 2005 2005 2005 2005 2005 
2005 2005 2005 2005 2005 2005 2005 2005 2005 
2005 2005 2005 2005 2005 2005 2005 2005 2005 
2005 2005 2005 2005 2005 2005 2005 2005 2005 
2005 2005 2005 2005 2005 2005 2005 2005 2005 
2005 2005 2005 2005 2005 2005 2005 2005 2005 
2005 2005 2005 2005 2005 2005 2005 2005 2005 
2005 2005 2005 2005 2005 2005 2005 2005 2005 
2005 2005 2005 2005 2005 2005 2005 2005 2005 
2005 2005 2005 2005 2005 2005 2005 2005 2005 
2005 2005 2005 2005 2005 2005 2005 2005 2005 
2005 2005 2005 2005 2005 2005 2005 2005 2005 
2005 2005 2005 2005 2005 2005 2005 2005 2005 
2005 2005 2005 2005 2005 2005 2005 2005 2005 
2005 2005 2005 2005 2005 2005 2005 2005 2005 
2005 2005 2005 2005 2005 2005 2005 2005 2005 
2005 2005 2005 2005 2005 2005 2005 2005 2005 
2005 2005 2005 2005 2005 2005 2005 2005 2005 
2005 2005 2005 2005 2005 2005 2005 2005 2005 
2005 2005 2005 2005 2005 2005 2005 2005 2005 
2005 2005 2005 2005 2005 2005 2005 2005 2005 
2005 2005 2005 2005 2005 2005 2005 2005 2005 
2005 2005 2005 2005 2005 2005 2005 2005 2005 
2005 2005 2005 2005 2005 2005 2005 2005 2005 
2005 2005 2005 2005 2005 2005 2005 2005 2005 
2005 2005 2005 2005 2005 2005 2005 2005 2005 
2005 2005 2005 2005 2005 2005 2005 2005 2005 
2005 2005 2005 2005 2005 2005 2005 2005 2005 
2005 2005 2005 2005 2005 2005 2005 2005 2005 
2005 2005 2005 2005 2005 2005 2005 2005 2005 
2005 2005 2005 2005 2005 2005 2005 2005 2005 
2005 2005 2005 2005 2005 2005 2005 2005 2005 
2005 2005 2005 2005 2005 2005 2005 2005 2005 
2005 2005 2005 2005 2005 2005 2005 2005 2005 
2005 2005 2005 2005 2005 2005 2005 2005 2005 
2005 2005 2005 2005 2005 2005 2005 2005 2005 
2005 2005 2005 2005 2005 2005 2005 2005 2005 
2005 2005 2005 2005 2005 2005 2005 2005 2005 
2005 2005 2005 2005 2005 2005 2005 2005 2005 
2005 2005 2005 2005 2005 2005 2005 2005 2005 
2005 2005 2005 2005 2005 2005 2005 2005 2005 
2005 2005 2005 2005 2005 2005 2005 2005 2005 
2005 2005 2005 2005 2005 2005 2005 2005 2005 
2005 2005 2005 2005 2005 2005 2005 2005 2005 
2005 2005 2005 2005 2005 2005 2005 2005 2005 
2005 2005 2005 2005 2005 2005 2005 2005 2005 
2005 2005 2005 2005 2005 2005 2005 2005 2005 
2005 2005 2005 2005 2005 2005 2005 2005 2005 
2005 2005 2005 2005 2005 2005 2005 2005 2005 
2005 2005 2005 2005 2005 2005 2005 2005 2005 
2005 2005 2005 2005 2005 2005 2005 2005 2005 
2005 2005 2005 2005 2005 2005 2005 2005 2005 
2005 2005 2005 2005 2005 2005 2005 2005 2005 
2005 2005 2005 2005 2005 2005 2005 2005 2005 
2005 2005 2005 2005 2005 2005 2005 2005 2005 
2005 2005 2005 2005 2005 2005 2005 2005 2005 
2005 2005 2005 2005 2005 2005 2005 2005 2005 
2005 2005 2005 2005 2005 2005 2005 2005 2005 
2005 2005 2005 2005 2005 2005 2005 2005 2005 
2005 2005 2005 2005 2005 2005 2005 2005 2005 
2005 2005 2005 2005 2005 2005 2005 2005 2005 
2005 2005 2005 2005 2005 2005 2005 2005 2005 
2005 2005 2005 2005 2005 2005 2005 2005 2005 
2005 2005 2005 2005 2005 2005 2005 2005 2005 
2005 2005 2005 2005 2005 2005 2005 2005 2005 
2005 2005 2005 2005 2005 2005 2005 2005 2005 
2005 2005 2005 2005 2005 2005 2005 2005 2005 
2005 2005 2005 2005 2005 2005 2005 2005 2005 
2005 2005 2005 2005 2005 2005 2005 2005 2005 
2005 2005 2005 2005 2005 2005 2005 2005 2005 
2005 2005 2005 2005 2005 2005 2005 2005 2005 
2005 2005 2005 2005 2005 2005 2005 2005 2005 
2005 2005 2005 2005 2005 2005 2005 2005 2005 
2005 2005 2005 2005 2005 2005 2005 2005 2005 
2005 2005 2005 2005 2005 2005 2005 2005 2005 
2005 2005 2005 2005 2005 2005 2005 2005 2005 
2005 2005 2005 2005 2005 2005 2005 2005 2005 
2005 2005 2005 2005 2005 2005 2005 2005 2005 
2005 2005 2005 2005 2005 2005 2005 2005 2005 
2005 2005 2005 2005 2005 2005 2005 2005 2005 
2005 2005 2005 2005 2005 2005 2005 2005 2005 
2005 2005 2005 2005 2005 2005 2005 2005 2005 
2005 2005 2005 2005 2005 2005 2005 2005 2005 
2005 2005 2005 2005 2005 2005 2005 2005 2005 
2005 2005 2005 2005 2005 2005 2005 2005 2005 
2005 2005 2005 2005 2005 2005 2005 2005 2005 
2005 2005 2005 2005 2005 2005 2005 2005 2005 
2005 2005 2005 2005 2005 2005 2005 2005 2005 
2005 2005 2005 2005 2005 2005 2005 2005 2005 
2005 2005 2005 2005 2005 2005 2005 2005 2005 
2005 2005 2005 2005 2005 2005 2005 2005 2005 
2005 2005 2005 2005 2005 2005 2005 2005 2005 
2005 2005 2005 2005 2005 2005 2005 2005 2005 
2005 2005 2005 2005 2005 2005 2005 2005 2005 
2005 2005 2005 2005 2005 2005 2005 2005 2005 
2005 2005 2005 2005 2005 2005 2005 2005 2005 
2005 2005 2005 2005 2005 2005 2005 2005 2005 
2005 2005 2005 2005 2005 2005 2005 2005 2005 
2005 2005 2005 2005 2005 2005 2005 2005 2005 
2005 2005 2005 2005 2005 2005 2005 2005 2005 
2005 2005 2005 2005 2005 2005 2005 2005 2005 
2005 2005 2005 2005 2005 2005 2005 2005 2005 
2005 2005 2005 2005 2005 2005 2005 2005 2005 
2005 2005 2005 2005 2005 2005 2005 2005 2005 
2005 2005 2005 2005 2005 2005 2005 2005 2005 
2005 2005 2005 2005 2005 2005 2005 2005 2005 
2005 2005 2005 2005 2005 2005 2005 2005 2005 
2005 2005 2005 2005 2005 2005 2005 2005 2005 
2005 2005 2005 2005 2005 2005 2005 2005 2005 
2005 2005 2005 2005 2005 2005 2005 2005 2005 
2005 2005 2005 2005 2005 2005 2005 2005 2005 
2005 2005 2005 2005 2005 2005 2005 2005 2005 
2005 2005 2005 2005 2005 2005 2005 2005 2005 
2005 2005 2005 2005 2005 2005 2005 2005 2005 
2005 2005 2005 2005 2005 2005 2005 2005 2005 
2005 2005 2005 2005 2005 2005 2005 2005 2005 
2005 2005 2005 2005 2005 2005 2005 2005 2005 
2005 2005 2005 2005 2005 2005 2005 2005 2005 
2005 2005 2005 2005 2005 2005 2005 2005 2005 
2005 2005 2005 2005 2005 2005 2005 2005 2005 
2005 2005 2005 2005 2005 2005 2005 2005 2005 
2005 2005 2005 2005 2005 2005 2005 2005 2005 
2005 2005 2005 2005 2005 2005 2005 2005 2005 
2005 2005 2005 2005 2005 2005 2005 2005 2005 
2005 2005 2005 2005 2005 2005 2005 2005 2005 
2005 2005 2005 2005 2005 2005 2005 2005 2005 
2005 2005 2005 2005 2005 2005 2005 2005 2005 
2005 2005 2005 2005 2005 2005 2005 2005 2005 
2005 2005 2005 2005 2005 2005 2005 2005 2005 
2005 2005 2005 2005 2005 2005 2005 2005 2005 
2005 2005 2005 2005 2005 2005 2005 2005 2005 
2005 2005 2005 2005 2005 2005 2005 2005 2005 
2005 2005 2005 2005 2005 2005 2005 2005 2005 
2005 2005 2005 2005 2005 2005 2005 2005 2005 
2005 2005 2005 2005 2005 2005 2005 2005 2005 
2005 2005 2005 2005 2005 2005 2005 2005 2005 
2005 2005 2005 2005 2005 2005 2005 2005 2005 
2005 2005 2005 2005 2005 2005 2005 2005 2005 
2005 2005 2005 2005 2005 2005 2005 2005 2005 
2005 2005 2005 2005 2005 2005 2005 2005 2005 
2005 2005 2005 2005 2005 2005 2005 2005 2005 
2005 2005 2005 2005 2005 2005 2005 2005 2005 
2005 2005 2005 2005 2005 2005 2005 2005 2005 
2005 2005 2005 2005 2005 2005 2005 2005 2005 
2005 2005 2005 2005 2005 2005 2005 2005 2005 
2005 2005 2005 2005 2005 2005 2005 2005 2005 
2005 2005 2005 2005 2005 2005 2005 2005 2005 
2005 2005 2005 2005 2005 2005 2005 2005 2005 
2005 2005 2005 2005 2005 2005 2005 2005 2005 
2005 2005 2005 2005 2005 2005 2005 2005 2005 
2005 2005 2005 2005 2005 2005 2005 2005 2005 
2005 2005 2005 2005 2005 2005 2005 2005 2005 
2005 2005 2005 2005 2005 2005 2005 2005 2005 
2005 2005 2005 2005 2005 2005 2005 2005 2005 
2005 2005 2005 2005 2005 2005 2005 2005 2005 
2005 2005 2005 2005 2005 2005 2005 2005 2005 
2005 2005 2005 2005 2005 2005 2005 2005 2005 
2005 2005 2005 2005 2005 2005 2005 2005 2005 
2005 2005 2005 2005 2005 2005 2005 2005 2005 
2005 2005 2005 2005 2005 2005 2005 2005 2005 
2005 2005 2005 2005 2005 2005 2005 2005 2005 
2005 2005 2005 2005 2005 2005 2005 2005 2005 
2005 2005 2005 2005 2005 2005 2005 2005 2005 
2005 2005 2005 2005 2005 2005 2005 2005 2005 
2005 2005 2005 2005 2005 2005 2005 2005 2005 
2005 2005 2005 2005 2005 2005 2005 2005 2005 
2005 2005 2005 2005 2005 2005 2005 2005 2005 
2005 2005 2005 2005 2005 2005 2005 2005 2005 
2005 2005 2005 2005 2005 2005 2005 2005 2005 
2005 2005 2005 2005 2005 2005 2005 2005 2005 
2005 2005 2005 2005 2005 2005 2005 2005 2005 
2005 2005 2005 2005 2005 2005 2005 2005 2005 
2005 2005 2005 2005 2005 2005 2005 2005 2005 
2005 2005 2005 2005 2005 2005 2005 2005 2005 
2005 2005 2005 2005 2005 2005 2005 2005 2005 
2005 2005 2005 2005 2005 2005 2005 2005 2005 
2005 2005 2005 2005 2005 2005 2005 2005 2005 
2005 2005 2005 2005 2005 2005 2005 2005 2005 
2005 2005 2005 2005 2005 2005 2005 2005 2005 
2005 2005 2005 2005 2005 2005 2005 2005 2005 
2005 2005 2005 2005 2005 2005 2005 2005 2005 
2005 2005 2005 2005 2005 2005 2005 2005 2005 
2005 2005 2005 2005 2005 2005 2005 2005 2005 
2005 2005 2005 2005 2005 2005 2005 2005 2005 
2005 2005 2005 2005 2005 2005 2005 2005 2005 
2005 2005 2005 2005 2005 2005 2005 2005 2005 
2005 2005 2005 2005 2005 2005 2005 2005 2005 
2005 2005 2005 2005 2005 2005 2005 2005 2005 
2005 2005 2005 2005 2005 2005 2005 2005 2005 
2005 2005 2005 2005 2005 2005 2005 2005 2005 
2005 2005 2005 2005 2005 2005 2005 2005 2005 
2005 2005 2005 2005 2005 2005 2005 2005 2005 
2005 2005 2005 2005 2005 2005 2005 2005 2005 
2005 2005 2005 2005 2005 2005 2005 2005 2005 
2005 2005 2005 2005 2005 2005 2005 2005 2005 
2005 2005 2005 2005 2005 2005 2005 2005 2005 
2005 2005 2005 2005 2005 2005 2005 2005 2005 
2005 2005 2005 2005 2005 2005 2005 2005 2005 
2005 2005 2005 2005 2005 2005 2005 2005 2005 
2005 2005 2005 2005 2005 2005 2005 2005 2005 
2005 2005 2005 2005 2005 2005 2005 2005 2005 
2005 2005 2005 2005 2005 2005 2005 2005 2005 
2005 2005 2005 2005 2005 2005 2005 2005 2005 
2005 2005 2005 2005 2005 2005 2005 2005 2005 
2005 2005 2005 2005 2005 2005 2005 2005 2005 
2005 2005 2005 2005 2005 2005 2005 2005 2005 
2005 2005 2005 2005 2005 2005 2005 2005 2005 
2005 2005 2005 2005 2005 2005 2005 2005 2005 
2005 2005 2005 2005 2005 2005 2005 2005 2005 
2005 2005 2005 2005 2005 2005 2005 2005 2005 
2005 2005 2005 2005 2005 2005 2005 2005 2005 
2005 2005 2005 2005 2005 2005 2005 2005 2005 
2005 2005 2005 2005 2005 2005 2005 2005 2005 
2005 2005 2005 2005 2005 2005 2005 2005 2005 
2005 2005 2005 2005 2005 2005 2005 2005 2005 
2005 2005 2005 2005 2005 2005 2005 2005 2005 
2005 2005 2005 2005 2005 2005 2005 2005 2005 
2005 2005 2005 2005 2005 2005 2005 2005 2005 
2005 2005 2005 2005 2005 2005 2005 2005 2005 
2005 2005 2005 2005 2005 2005 2005 2005 2005 
2005 2005 2005 2005 2005 2005 2005 2005 2005 
2005 2005 2005 2005 2005 2005 2005 2005 2005 
2005 2005 2005 2005 2005 2005 2005 2005 2005 
2005 2005 2005 2005 2005 2005 2005 2005 2005 
2005 2005 2005 2005 2005 2005 2005 2005 2005 
2005 2005 2005 2005 2005 2005 2005 2005 2005 
2005 2005 2005 2005 2005 2005 2005 2005 2005 
2005 2005 2005 2005 2005 2005 2005 2005 2005 
2005 2005 2005 2005 2005 2005 2005 2005 2005 
2005 2005 2005 2005 2005 2005 2005 2005 2005 
2005 2005 2005 2005 2005 2005 2005 2005 2005 
2005 2005 2005 2005 2005 2005 2005 2005 2005 
2005 2005 2005 2005 2005 2005 2005 2005 2005 
2005 2005 2005 2005 2005 2005 2005 2005 2005 
2005 2005 2005 2005 2005 2005 2005 2005 2005 
2005 2005 2005 2005 2005 2005 2005 2005 2005 
2005 2005 2005 2005 2005 2005 2005 2005 2005 
2005 2005 2005 2005 2005 2005 2005 2005 2005 
2005 2005 2005 2005 2005 2005 2005 2005 2005 
2005 2005 2005 2005 2005 2005 2005 2005 2005 
2005 2005 2005 2005 2005 2005 2005 2005 2005 
2005 2005 2005 2005 2005 2005 2005 2005 2005 
2005 2005 2005 2005 2005 2005 2005 2005 2005 
2005 2005 2005 2005 2005 2005 2005 2005 2005 
2005 2005 2005 2005 2005 2005 2005 2005 2005 
2005 2005 2005 2005 2005 2005 2005 2005 2005 
2005 2005 2005 2005 2005 2005 2005 2005 2005 
2005 2005 2005 2005 2005 2005 2005 2005 2005 
2005 2005 2005 2005 2005 2005 2005 2005 2005 
2005 2005 2005 2005 2005 2005 2005 2005 2005 
2005 2005 2005 2005 2005 2005 2005 2005 2005 
2005 2005 2005 2005 2005 2005 2005 2005 2005 
2005 2005 2005 2005 2005 2005 2005 2005 2005 
2005 2005 2005 2005 2005 2005 2005 2005 2005 
2005 2005 2005 2005 2005 2005 2005 2005 2005 
2005 2005 2005 2005 2005 2005 2005 2005 2005 
2005 2005 2005 2005 2005 2005 2005 2005 2005 
2005 2005 2005 2005 2005 2005 2005 2005 2005 
2005 2005 2005 2005 2005 2005 2005 2005 2005 
2005 2005 2005 2005 2005 2005 2005 2005 2005 
2005 2005 2005 2005 2005 2005 2005 2005 2005 
2005 2005 2005 2005 2005 2005 2005 2005 2005 
2005 2005 2005 2005 2005 2005 2005 2005 2005 
2005 2005 2005 2005 2005 2005 2005 2005 2005 
2005 2005 2005 2005 2005 2005 2005 2005 2005 
2005 2005 2005 2005 2005 2005 2005 2005 2005 
2005 2005 2005 2005 2005 2005 2005 2005 2005 
2005 2005 2005 2005 2005 2005 2005 2005 2005 
2005 2005 2005 2005 2005 2005 2005 2005 2005 
2005 2005 2005 2005 2005 2005 2005 2005 2005 
2005 2005 2005 2005 2005 2005 2005 2005 2005 
2005 2005 2005 2005 2005 2005 2005 2005 2005 
2005 2005 2005 2005 2005 2005 2005 2005 2005 
2005 2005 2005 2005 2005 2005 2005 2005 2005 
2005 2005 2005 2005 2005 2005 2005 2005 2005 
2005 2005 2005 2005 2005 2005 2005 2005 2005 
2005 2005 2005 2005 2005 2005 2005 2005 2005 
2005 2005 2005 2005 2005 2005 2005 2005 2005 
2005 2005 2005 2005 2005 2005 2005 2005 2005 
2005 2005 2005 2005 2005 2005 2005 2005 2005 
2005 2005 2005 2005 2005 2005 2005 2005 2005 
2005 2005 2005 2005 2005 2005 2005 2005 2005 
2005 2005 2005 2005 2005 2005 2005 2005 2005 
2005 2005 2005 2005 2005 2005 2005 2005 2005 
2005 2005 2005 2005 2005 2005 2005 2005 2005 
2005 2005 2005 2005 2005 2005 2005 2005 2005 
2005 2005 2005 2005 2005 2005 2005 2005 2005 
2005 2005 2005 2005 2005 2005 2005 2005 2005 
2005 2005 2005 2005 2005 2005 2005 2005 2005 
2005 2005 2005 2005 2005 2005 2005 2005 2005 
2005 2005 2005 2005 2005 2005 2005 2005 2005 
2005 2005 2005 2005 2005 2005 2005 2005 2005 
2005 2005 2005 2005 2005 2005 2005 2005 2005 
2005 2005 2005 2005 2005 2005 2005 2005 2005 
2005 2005 2005 2005 2005 2005 2005 2005 2005 
2005 2005 2005 2005 2005 2005 2005 2005 2005 
2005 2005 2005 2005 2005 2005 2005 2005 2005 
2005 2005 2005 2005 2005 2005 2005 2005 2005 
2005 2005 2005 2005 2005 2005 2005 2005 2005 
2005 2005 2005 2005 2005 2005 2005 2005 2005 
2005 2005 2005 2005 2005 2005 2005 2005 2005 
2005 2005 2005 2005 2005 2005 2005 2005 2005 
2005 2005 2005 2005 2005 2005 2005 2005 2005 
2005 2005 2005 2005 2005 2005 2005 2005 2005 
2005 2005 2005 2005 2005 2005 2005 2005 2005 
2005 2005 2005 2005 2005 2005 2005 2005 2005 
2005 2005 2005 2005 2005 2005 2005 2005 2005 
2005 2005 2005 2005 2005 2005 2005 2005 2005 
2005 2005 2005 2005 2005 2005 2005 2005 2005 
2005 2005 2005 2005 2005 2005 2005 2005 2005 
2005 2005 2005 2005 2005 2005 2005 2005 2005 
2005 2005 2005 2005 2005 2005 2005 2005 2005 
2005 2005 2005 2005 2005 2005 2005 2005 2005 
2005 2005 2005 2005 2005 2005 2005 2005 2005 
2005 2005 2005 2005 2005 2005 2005 2005 2005 
2005 2005 2005 2005 2005 2005 2005 2005 2005 
2005 2005 2005 2005 2005 2005 2005 2005 2005 
2005 2005 2005 2005 2005 2005 2005 2005 2005 
2005 2005 2005 2005 2005 2005 2005 2005 2005 
2005 2005 2005 2005 2005 2005 2005 2005 2005 
2005 2005 2005 2005 2005 2005 2005 2005 2005 
2005 2005 2005 2005 2005 2005 2005 2005 2005 