# vtk DataFile Version 4.2
vtk output
ASCII
DATASET POLYDATA
POINTS 3324 float
0.0674835 -22.0066 32.348 0.201892 -21.6579 31.9316 0.546405 -21.93 32.1756 
-0.437549 -21.9884 32.3119 -0.301639 -21.7102 32.1459 -0.609796 -21.8535 32.0105 
1.23817 -22.5368 32.3044 1.38044 -22.2411 32.1134 1.66161 -22.5875 32.0899 
0.6375 -22.4255 32.3812 1.01916 -22.1068 32.1333 0.0882202 -22.5762 32.4588 
-0.354016 -22.4639 32.3837 -0.754944 -22.2997 32.0417 1.3444 -23.096 32.3452 
1.73551 -23.2509 32.1253 0.796582 -23.0782 32.447 0.188461 -23.097 32.4589 
-0.334341 -23.086 32.3883 -0.742282 -22.9329 32.165 1.31243 -23.6698 32.301 
1.61255 -23.7523 32.0772 0.793671 -23.6909 32.4534 0.190649 -23.7163 32.4711 
-0.346683 -23.7156 32.3731 -0.750668 -23.5741 32.1642 1.29296 -24.0764 32.17 
1.12588 -24.5299 32.1393 0.806332 -24.2874 32.3756 0.273843 -24.2221 32.4709 
-0.243649 -24.3669 32.3489 -0.74913 -24.2846 32.0318 0.763495 -24.8012 32.2982 
1.00786 -24.8825 32.1299 0.259616 -24.7932 32.344 -0.22359 -24.9791 32.0457 
-0.497745 -24.688 32.043 0.740103 -25.1756 32.0599 0.166937 -25.2498 32.0703 
1.41709 -20.0825 31.6167 1.50464 -19.9098 31.3658 1.56871 -20.1701 31.5251 
1.10855 -20.1508 31.3705 1.37185 -20.3266 31.4827 1.34464 -21.9933 31.8179 
1.32137 -21.6672 31.5003 1.68071 -21.8787 31.4939 0.767349 -21.8063 31.9184 
0.833633 -21.5728 31.5638 0.159787 -21.4874 31.438 -0.357989 -21.6401 31.6981 
-0.756995 -21.9228 31.4697 2.43345 -22.5518 31.7033 2.54931 -22.2673 31.5195 
2.84302 -22.5957 31.4907 1.94425 -22.3598 31.776 2.18074 -22.1359 31.5064 
-1.01875 -22.2904 31.5747 -1.05834 -22.6957 31.7975 -1.20912 -22.5005 31.3766 
2.55202 -23.0905 31.737 2.93745 -23.2416 31.519 2.11317 -22.9248 31.9092 
-1.06273 -23.2892 31.8605 -1.27542 -22.9521 31.4293 2.53823 -23.6604 31.674 
2.82347 -23.7439 31.4702 2.04104 -23.614 31.884 -1.05901 -23.9069 31.8624 
-1.2788 -23.5716 31.4622 2.5024 -24.0538 31.5318 2.23559 -24.4191 31.4596 
2.04013 -24.2268 31.6932 1.57065 -24.1916 31.9379 -1.05241 -24.2969 31.7923 
-1.22402 -24.1442 31.4758 1.87788 -24.6783 31.5287 1.6199 -25.0302 31.4786 
1.40465 -24.7869 31.8204 -0.461234 -24.9455 31.8287 -0.672656 -24.8859 31.5646 
-1.00264 -24.5582 31.4379 1.22265 -25.2826 31.6469 0.83443 -25.502 31.7494 
1.13024 -25.577 31.4454 0.375082 -25.5358 31.8073 -0.102365 -25.4426 31.703 
-0.432779 -25.233 31.537 0.667392 -25.7277 31.3945 0.0499054 -25.7078 31.3734 
3.05363 -20.1132 31.0856 3.10605 -19.8189 30.857 3.38201 -20.0714 30.8882 
2.48869 -20.1513 31.1667 2.62075 -19.859 30.8698 1.89514 -20.1676 31.3079 
2.02433 -19.8572 31.026 1.53587 -19.682 30.8298 0.65636 -20.066 31.1872 
0.983679 -19.7667 31.0702 0.309879 -20.1508 31.0669 0.369406 -19.8286 30.9876 
-0.0271454 -19.9936 30.8096 3.16381 -20.4406 30.9876 2.8692 -20.8047 30.8712 
2.74243 -20.5296 31.0887 2.06981 -20.6835 31.1401 1.40907 -20.6792 31.2489 
1.06463 -20.583 31.1068 0.622458 -20.4202 30.9091 0.167523 -20.2806 30.8078 
2.37513 -20.9609 30.8804 1.9026 -21.1086 30.9198 1.78401 -21.3922 30.911 
1.47637 -21.323 31.2148 0.762579 -20.918 30.8729 0.709396 -21.2232 31.1841 
0.0967163 -21.3225 31.0919 0.211972 -21.1111 30.7972 -0.198816 -21.2459 30.8122 
2.51795 -22.0146 31.2013 2.59904 -21.7103 30.8419 2.90338 -21.9904 30.9466 
1.89169 -21.7289 31.1776 2.13841 -21.5657 30.8674 -0.364096 -21.526 31.1155 
-0.761316 -21.7657 30.7307 3.15647 -22.4407 31.1519 3.21354 -22.1405 30.8168 
3.47414 -22.4921 30.8163 -1.05663 -22.1768 31.0604 -1.26991 -22.5505 30.9001 
3.66869 -23.1097 31.1416 3.76225 -22.8346 30.7136 4.0687 -23.2087 30.9111 
3.23334 -22.9697 31.3367 -1.36057 -23.0821 30.8945 4.27998 -23.7389 31.1557 
4.49575 -23.447 30.7408 4.74557 -23.8105 30.988 3.7133 -23.784 31.2382 
3.22354 -23.6156 31.306 -1.35629 -23.6986 30.9286 4.84466 -24.1645 31.099 
5.1083 -24.0699 30.9231 5.19376 -24.3166 30.948 4.49355 -24.2987 31.1524 
3.95277 -24.2282 31.1638 3.26157 -24.2925 31.1549 2.6631 -24.2665 31.3156 
-1.25197 -24.2395 30.9302 4.97215 -24.5691 30.8624 4.25802 -24.6123 30.9419 
3.63213 -24.6007 30.9219 3.10838 -24.6985 30.9522 2.86056 -24.9107 30.9066 
2.60232 -24.8347 31.1048 2.04724 -24.889 31.306 -0.825357 -24.9163 31.0198 
-1.03662 -24.632 30.7723 2.63172 -25.2124 30.8337 2.31322 -25.5572 30.7943 
2.0931 -25.3523 31.0828 1.58064 -25.4277 31.2567 -0.338068 -25.5618 31.2623 
-0.617303 -25.3189 30.9458 1.92527 -25.7002 30.8398 1.2919 -25.8164 30.9591 
0.684695 -25.9026 30.9479 0.119128 -25.8785 30.8814 -0.348148 -25.699 30.8536 
3.26817 -19.5993 30.5732 3.26219 -19.3087 30.1943 3.52519 -19.5048 30.3381 
2.92978 -19.4511 30.111 1.18126 -19.4642 30.593 1.21312 -19.3714 30.1402 
1.52018 -19.5333 30.3874 0.605603 -19.4717 30.6724 0.776047 -19.2646 30.2259 
-0.045813 -19.5595 30.6243 0.152399 -19.2605 30.2775 -0.439481 -19.4983 30.4645 
-0.339642 -19.3328 30.352 -0.580261 -19.4338 30.2038 3.66225 -20.0149 30.5878 
3.83596 -19.7644 30.1325 3.97522 -20.2142 30.3354 2.63843 -19.7071 30.3577 
1.91922 -19.7237 30.3515 -0.404398 -19.7767 30.285 -0.103253 -20.1658 30.4686 
3.73821 -20.7 30.5591 4.04394 -20.7108 30.2732 3.29676 -20.6726 30.7442 
0.699564 -20.752 30.6721 0.44957 -20.7172 30.2812 0.240921 -20.4317 30.2776 
3.72455 -21.25 30.4887 4.07285 -21.148 30.2409 3.30282 -21.2109 30.6207 
2.66018 -21.281 30.7105 2.07318 -21.2664 30.7578 0.320755 -20.9305 30.4155 
-0.489468 -21.3695 30.6517 -0.2186 -21.1277 30.3745 -0.605539 -21.4815 30.2198 
3.84705 -21.5803 30.2451 3.50889 -22.0937 30.4008 3.17159 -21.7067 30.6318 
-0.840527 -21.8702 30.1824 3.59995 -22.504 30.4338 -1.05652 -22.1588 30.4533 
-1.26604 -22.5663 30.2841 3.75244 -22.7268 30.3576 4.05342 -23.0289 30.4261 
-1.36216 -23.0968 30.2784 6.06494 -23.77 30.5067 6.08986 -23.4944 30.2104 
6.38216 -23.8542 30.3635 5.53664 -23.6873 30.555 5.71901 -23.4236 30.3741 
5.06244 -23.7545 30.7227 5.06595 -23.3922 30.3963 4.48882 -23.2578 30.3055 
-1.35942 -23.6908 30.3184 6.26397 -24.1483 30.4802 6.39166 -24.1609 30.2754 
5.60428 -24.2104 30.6632 -1.26855 -24.2805 30.2453 6.09389 -24.3988 30.2779 
5.54433 -24.6664 30.3688 5.04524 -24.8921 30.5424 5.29244 -24.942 30.3342 
4.54358 -24.9217 30.6297 3.92326 -24.9046 30.6195 3.25903 -24.9388 30.6805 
-0.830237 -25.0486 30.4151 -1.06306 -24.7028 30.2711 4.95924 -25.1746 30.2452 
4.23707 -25.2126 30.3125 3.62763 -25.1981 30.2999 3.05815 -25.2765 30.4163 
2.66009 -25.467 30.5502 2.89057 -25.489 30.2955 -0.638416 -25.5741 30.2943 
2.54138 -25.7493 30.2963 1.86173 -25.9304 30.4718 1.43571 -26.058 30.5175 
1.70225 -26.1086 30.3012 0.935046 -26.0973 30.6297 0.358127 -26.1137 30.5945 
-0.150742 -26.1838 30.2415 -0.394464 -25.8949 30.3269 1.36691 -26.3431 30.2307 
0.634955 -26.4112 30.3378 0.162808 -26.4117 30.2419 3.11964 -19.3321 29.8617 
3.47223 -19.5106 29.7817 2.85075 -19.579 29.704 1.45925 -19.5537 30.0353 
1.22973 -19.4609 29.7838 0.946921 -19.274 29.6777 0.347772 -19.1156 29.6878 
-0.326413 -19.1769 29.8773 -0.650684 -19.3898 29.6853 4.00285 -19.7794 29.5687 
4.15597 -20.2228 29.7574 2.46755 -19.7713 29.7038 2.05692 -19.7555 29.847 
1.57657 -19.6422 29.741 -0.151236 -20.1443 29.9087 -0.476578 -19.8105 29.569 
4.2177 -20.8162 29.8758 0.458835 -20.7038 29.7539 0.282129 -20.4233 29.5651 
4.29143 -21.2513 29.9505 4.42135 -21.029 29.5355 4.55159 -21.4374 29.5684 
0.163266 -20.9858 29.8014 -0.329956 -21.2328 29.9599 -0.176038 -21.2705 29.5092 
4.23421 -21.6373 29.8162 3.86447 -21.913 29.984 4.11479 -22.0969 29.679 
-0.483545 -21.4824 29.7577 -0.734647 -21.9087 29.6121 3.83422 -22.4806 30.0419 
4.15147 -22.5649 29.7039 1.76363 -22.5412 29.955 2.2597 -22.4933 29.6678 
1.83139 -22.2238 29.6342 1.49106 -22.2876 29.7578 1.35286 -22.5858 29.9284 
1.19925 -22.4498 29.604 -1.0343 -22.2079 29.8783 -1.23007 -22.6782 29.6422 
5.53798 -23.149 29.9851 5.58532 -22.9287 29.5575 5.75507 -23.1016 29.6504 
5.13872 -22.8088 29.5984 4.81443 -23.1048 30.0061 4.26161 -22.9545 29.9853 
4.54596 -22.7682 29.684 1.90955 -23.097 30.0046 2.31015 -23.2487 29.7552 
1.43117 -23.0768 30.0098 1.10893 -22.9091 29.6663 -1.349 -23.1777 29.7732 
6.25954 -23.8869 30.0584 5.93632 -23.4996 29.7047 1.90399 -23.6873 29.9492 
2.19358 -23.778 29.7177 1.45219 -23.7127 29.9972 1.10505 -23.5449 29.6839 
-1.34853 -23.6846 29.6911 6.25468 -24.2475 30.0698 5.98952 -24.3863 29.7346 
1.87106 -24.081 29.8116 1.50586 -24.1948 29.9024 1.66156 -24.3532 29.7663 
1.12402 -24.2269 29.5992 -1.34906 -24.1847 29.6038 6.18672 -24.7705 29.5987 
6.28275 -24.8934 29.665 6.12327 -24.8099 29.7756 5.66322 -24.9202 30.0114 
1.4453 -24.5918 29.5823 -0.981216 -24.9913 29.9759 -1.24975 -24.752 29.6779 
6.05254 -25.0018 29.6767 5.54032 -25.2618 29.7606 5.03881 -25.4865 29.917 
5.35213 -25.5686 29.617 4.54288 -25.5029 30.0074 3.94849 -25.4895 29.9866 
3.28533 -25.5203 30.0509 -0.828671 -25.4762 29.7682 -1.06219 -25.2279 29.6136 
4.8882 -25.6975 29.5656 4.30158 -25.6867 29.6954 3.72122 -25.7773 29.6239 
3.07819 -25.8597 29.794 2.63471 -26.0325 29.8789 2.84696 -26.1772 29.6293 
2.08526 -26.132 30.0722 -0.454138 -26.1175 29.9726 -0.635889 -26.0323 29.7194 
2.42087 -26.3477 29.6829 1.88735 -26.4791 29.8249 1.45013 -26.6579 29.9189 
1.75329 -26.7382 29.6125 0.941235 -26.7064 30.0311 0.354831 -26.7187 30.0016 
-0.107776 -26.6176 29.8641 -0.442035 -26.4206 29.694 1.2807 -26.894 29.5869 
0.617935 -26.9378 29.6514 0.042041 -26.9111 29.5541 1.79951 -19.0396 29.2572 
2.03728 -18.7391 28.996 2.13629 -19.028 29.1194 1.71818 -18.8694 28.9302 
-0.0468384 -18.8713 29.3741 0.0802826 -18.5538 28.959 0.394006 -18.8325 29.0673 
-0.485394 -18.9839 29.4258 -0.32384 -18.7177 29.1142 -0.645346 -18.9697 29.0949 
3.07251 -19.6098 29.5624 1.98312 -19.5443 29.407 2.31741 -19.4965 29.01 
1.27039 -19.1711 29.1294 1.40442 -19.3847 29.4903 0.730142 -19.1266 29.1095 
-0.65907 -19.4142 29.1364 4.36384 -20.0089 29.3122 4.25596 -19.9314 29.1095 
4.49393 -20.0771 29.0557 3.74349 -19.8547 29.2359 3.22888 -19.942 29.3147 
3.47736 -20.2365 28.9702 2.75486 -20.0227 29.3591 2.39384 -19.9823 29.2162 
-0.150815 -20.0599 29.1923 -0.428915 -19.7201 29.0628 4.31661 -20.293 29.13 
[...]
CELL_DATA 6656
SCALARS scalars float
LOOKUP_TABLE default
2026 2026 2026 2026 2026 2026 2026 2026 2026 
2026 2026 2026 2026 2026 2026 2026 2026 2026 
2026 2026 2026 2026 2026 2026 2026 2026 2026 
2026 2026 2026 2026 2026 2026 2026 2026 2026 
2026 2026 2026 2026 2026 2026 2026 2026 2026 
2026 2026 2026 2026 2026 2026 2026 2026 2026 
2026 2026 2026 2026 2026 2026 2026 2026 2026 
2026 2026 2026 2026 2026 2026 2026 2026 2026 
2026 2026 2026 2026 2026 2026 2026 2026 2026 
2026 2026 2026 2026 2026 2026 2026 2026 2026 
2026 2026 2026 2026 2026 2026 2026 2026 2026 
2026 2026 2026 2026 2026 2026 2026 2026 2026 
2026 2026 2026 2026 2026 2026 2026 2026 2026 
2026 2026 2026 2026 2026 2026 2026 2026 2026 
2026 2026 2026 2026 2026 2026 2026 2026 2026 
2026 2026 2026 2026 2026 2026 2026 2026 2026 
2026 2026 2026 2026 2026 2026 2026 2026 2026 
2026 2026 2026 2026 2026 2026 2026 2026 2026 
2026 2026 2026 2026 2026 2026 2026 2026 2026 
2026 2026 2026 2026 2026 2026 2026 2026 2026 
2026 2026 2026 2026 2026 2026 2026 2026 2026 
2026 2026 2026 2026 2026 2026 2026 2026 2026 
2026 2026 2026 2026 2026 2026 2026 2026 2026 
2026 2026 2026 2026 2026 2026 2026 2026 2026 
2026 2026 2026 2026 2026 2026 2026 2026 2026 
2026 2026 2026 2026 2026 2026 2026 2026 2026 
2026 2026 2026 2026 2026 2026 2026 2026 2026 
2026 2026 2026 2026 2026 2026 2026 2026 2026 
2026 2026 2026 2026 2026 2026 2026 2026 2026 
2026 2026 2026 2026 2026 2026 2026 2026 2026 
2026 2026 2026 2026 2026 2026 2026 2026 2026 
2026 2026 2026 2026 2026 2026 2026 2026 2026 
2026 2026 2026 2026 2026 2026 2026 2026 2026 
2026 2026 2026 2026 2026 2026 2026 2026 2026 
2026 2026 2026 2026 2026 2026 2026 2026 2026 
2026 2026 2026 2026 2026 2026 2026 2026 2026 
2026 2026 2026 2026 2026 2026 2026 2026 2026 
2026 2026 2026 2026 2026 2026 2026 2026 2026 
2026 2026 2026 2026 2026 2026 2026 2026 2026 
2026 2026 2026 2026 2026 2026 2026 2026 2026 
2026 2026 2026 2026 2026 2026 2026 2026 2026 
2026 2026 2026 2026 2026 2026 2026 2026 2026 
2026 2026 2026 2026 2026 2026 2026 2026 2026 
2026 2026 2026 2026 2026 2026 2026 2026 2026 
2026 2026 2026 2026 2026 2026 2026 2026 2026 
2026 2026 2026 2026 2026 2026 2026 2026 2026 
2026 2026 2026 2026 2026 2026 2026 2026 2026 
2026 2026 2026 2026 2026 2026 2026 2026 2026 
2026 2026 2026 2026 2026 2026 2026 2026 2026 
2026 2026 2026 2026 2026 2026 2026 2026 2026 
2026 2026 2026 2026 2026 2026 2026 2026 2026 
2026 2026 2026 2026 2026 2026 2026 2026 2026 
2026 2026 2026 2026 2026 2026 2026 2026 2026 
2026 2026 2026 2026 2026 2026 2026 2026 2026 
2026 2026 2026 2026 2026 2026 2026 2026 2026 
2026 2026 2026 2026 2026 2026 2026 2026 2026 
2026 2026 2026 2026 2026 2026 2026 2026 2026 
2026 2026 2026 2026 2026 2026 2026 2026 2026 
2026 2026 2026 2026 2026 2026 2026 2026 2026 
2026 2026 2026 2026 2026 2026 2026 2026 2026 
2026 2026 2026 2026 2026 2026 2026 2026 2026 
2026 2026 2026 2026 2026 2026 2026 2026 2026 
2026 2026 2026 2026 2026 2026 2026 2026 2026 
2026 2026 2026 2026 2026 2026 2026 2026 2026 
2026 2026 2026 2026 2026 2026 2026 2026 2026 
2026 2026 2026 2026 2026 2026 2026 2026 2026 
2026 2026 2026 2026 2026 2026 2026 2026 2026 
2026 2026 2026 2026 2026 2026 2026 2026 2026 
2026 2026 2026 2026 2026 2026 2026 2026 2026 
2026 2026 2026 2026 2026 2026 2026 2026 2026 
2026 2026 2026 2026 2026 2026 2026 2026 2026 
2026 2026 2026 2026 2026 2026 2026 2026 2026 
2026 2026 2026 2026 2026 2026 2026 2026 2026 
2026 2026 2026 2026 2026 2026 2026 2026 2026 
2026 2026 2026 2026 2026 2026 2026 2026 2026 
2026 2026 2026 2026 2026 2026 2026 2026 2026 
2026 2026 2026 2026 2026 2026 2026 2026 2026 
2026 2026 2026 2026 2026 2026 2026 2026 2026 
2026 2026 2026 2026 2026 2026 2026 2026 2026 
2026 2026 2026 2026 2026 2026 2026 2026 2026 
2026 2026 2026 2026 2026 2026 2026 2026 2026 
2026 2026 2026 2026 2026 2026 2026 2026 2026 
2026 2026 2026 2026 2026 2026 2026 2026 2026 
2026 2026 2026 2026 2026 2026 2026 2026 2026 
2026 2026 2026 2026 2026 2026 2026 2026 2026 
2026 2026 2026 2026 2026 2026 2026 2026 2026 
2026 2026 2026 2026 2026 2026 2026 2026 2026 
2026 2026 2026 2026 2026 2026 2026 2026 2026 
2026 2026 2026 2026 2026 2026 2026 2026 2026 
2026 2026 2026 2026 2026 2026 2026 2026 2026 
2026 2026 2026 2026 2026 2026 2026 2026 2026 
2026 2026 2026 2026 2026 2026 2026 2026 2026 
2026 2026 2026 2026 2026 2026 2026 2026 2026 
2026 2026 2026 2026 2026 2026 2026 2026 2026 
2026 2026 2026 2026 2026 2026 2026 2026 2026 
2026 2026 2026 2026 2026 2026 2026 2026 2026 
2026 2026 2026 2026 2026 2026 2026 2026 2026 
2026 2026 2026 2026 2026 2026 2026 2026 2026 
2026 2026 2026 2026 2026 2026 2026 2026 2026 
2026 2026 2026 2026 2026 2026 2026 2026 2026 
2026 2026 2026 2026 2026 2026 2026 2026 2026 
2026 2026 2026 2026 2026 2026 2026 2026 2026 
2026 2026 2026 2026 2026 2026 2026 2026 2026 
2026 2026 2026 2026 2026 2026 2026 2026 2026 
2026 2026 2026 2026 2026 2026 2026 2026 2026 
2026 2026 2026 2026 2026 2026 2026 2026 2026 
2026 2026 2026 2026 2026 2026 2026 2026 2026 
2026 2026 2026 2026 2026 2026 2026 2026 2026 
2026 2026 2026 2026 2026 2026 2026 2026 2026 
2026 2026 2026 2026 2026 2026 2026 2026 2026 
2026 2026 2026 2026 2026 2026 2026 2026 2026 
2026 2026 2026 2026 2026 2026 2026 2026 2026 
2026 2026 2026 2026 2026 2026 2026 2026 2026 
2026 2026 2026 2026 2026 2026 2026 2026 2026 
2026 2026 2026 2026 2026 2026 2026 2026 2026 
2026 2026 2026 2026 2026 2026 2026 2026 2026 
2026 2026 2026 2026 2026 2026 2026 2026 2026 
2026 2026 2026 2026 2026 2026 2026 2026 2026 
2026 2026 2026 2026 2026 2026 2026 2026 2026 
2026 2026 2026 2026 2026 2026 2026 2026 2026 
2026 2026 2026 2026 2026 2026 2026 2026 2026 
2026 2026 2026 2026 2026 2026 2026 2026 2026 
2026 2026 2026 2026 2026 2026 2026 2026 2026 
2026 2026 2026 2026 2026 2026 2026 2026 2026 
2026 2026 2026 2026 2026 2026 2026 2026 2026 
2026 2026 2026 2026 2026 2026 2026 2026 2026 
2026 2026 2026 2026 2026 2026 2026 2026 2026 
2026 2026 2026 2026 2026 2026 2026 2026 2026 
2026 2026 2026 2026 2026 2026 2026 2026 2026 
2026 2026 2026 2026 2026 2026 2026 2026 2026 
2026 2026 2026 2026 2026 2026 2026 2026 2026 
2026 2026 2026 2026 2026 2026 2026 2026 2026 
2026 2026 2026 2026 2026 2026 2026 2026 2026 
2026 2026 2026 2026 2026 2026 2026 2026 2026 
2026 2026 2026 2026 2026 2026 2026 2026 2026 
2026 2026 2026 2026 2026 2026 2026 2026 2026 
2026 2026 2026 2026 2026 2026 2026 2026 2026 
2026 2026 2026 2026 2026 2026 2026 2026 2026 
2026 2026 2026 2026 2026 2026 2026 2026 2026 
2026 2026 2026 2026 2026 2026 2026 2026 2026 
2026 2026 2026 2026 2026 2026 2026 2026 2026 
2026 2026 2026 2026 2026 2026 2026 2026 2026 
2026 2026 2026 2026 2026 2026 2026 2026 2026 
2026 2026 2026 2026 2026 2026 2026 2026 2026 
2026 2026 2026 2026 2026 2026 2026 2026 2026 
2026 2026 2026 2026 2026 2026 2026 2026 2026 
2026 2026 2026 2026 2026 2026 2026 2026 2026 
2026 2026 2026 2026 2026 2026 2026 2026 2026 
2026 2026 2026 2026 2026 2026 2026 2026 2026 
2026 2026 2026 2026 2026 2026 2026 2026 2026 
2026 2026 2026 2026 2026 2026 2026 2026 2026 
2026 2026 2026 2026 2026 2026 2026 2026 2026 
2026 2026 2026 2026 2026 2026 2026 2026 2026 
2026 2026 2026 2026 2026 2026 2026 2026 2026 
2026 2026 2026 2026 2026 2026 2026 2026 2026 
2026 2026 2026 2026 2026 2026 2026 2026 2026 
2026 2026 2026 2026 2026 2026 2026 2026 2026 
2026 2026 2026 2026 2026 2026 2026 2026 2026 
2026 2026 2026 2026 2026 2026 2026 2026 2026 
2026 2026 2026 2026 2026 2026 2026 2026 2026 
2026 2026 2026 2026 2026 2026 2026 2026 2026 
2026 2026 2026 2026 2026 2026 2026 2026 2026 
2026 2026 2026 2026 2026 2026 2026 2026 2026 
2026 2026 2026 2026 2026 2026 2026 2026 2026 
2026 2026 2026 2026 2026 2026 2026 2026 2026 
2026 2026 2026 2026 2026 2026 2026 2026 2026 
2026 2026 2026 2026 2026 2026 2026 2026 2026 
2026 2026 2026 2026 2026 2026 2026 2026 2026 
2026 2026 2026 2026 2026 2026 2026 2026 2026 
2026 2026 2026 2026 2026 2026 2026 2026 2026 
2026 2026 2026 2026 2026 2026 2026 2026 2026 
2026 2026 2026 2026 2026 2026 2026 2026 2026 
2026 2026 2026 2026 2026 2026 2026 2026 2026 
2026 2026 2026 2026 2026 2026 2026 2026 2026 
2026 2026 2026 2026 2026 2026 2026 2026 2026 
2026 2026 2026 2026 2026 2026 2026 2026 2026 
2026 2026 2026 2026 2026 2026 2026 2026 2026 
2026 2026 2026 2026 2026 2026 2026 2026 2026 
2026 2026 2026 2026 2026 2026 2026 2026 2026 
2026 2026 2026 2026 2026 2026 2026 2026 2026 
2026 2026 2026 2026 2026 2026 2026 2026 2026 
2026 2026 2026 2026 2026 2026 2026 2026 2026 
2026 2026 2026 2026 2026 2026 2026 2026 2026 
2026 2026 2026 2026 2026 2026 2026 2026 2026 
2026 2026 2026 2026 2026 2026 2026 2026 2026 
2026 2026 2026 2026 2026 2026 2026 2026 2026 
2026 2026 2026 2026 2026 2026 2026 2026 2026 
2026 2026 2026 2026 2026 2026 2026 2026 2026 
2026 2026 2026 2026 2026 2026 2026 2026 2026 
2026 2026 2026 2026 2026 2026 2026 2026 2026 
2026 2026 2026 2026 2026 2026 2026 2026 2026 
2026 2026 2026 2026 2026 2026 2026 2026 2026 
2026 2026 2026 2026 2026 2026 2026 2026 2026 
2026 2026 2026 2026 2026 2026 2026 2026 2026 
2026 2026 2026 2026 2026 2026 2026 2026 2026 
2026 2026 2026 2026 2026 2026 2026 2026 2026 
2026 2026 2026 2026 2026 2026 2026 2026 2026 
2026 2026 2026 2026 2026 2026 2026 2026 2026 
2026 2026 2026 2026 2026 2026 2026 2026 2026 
2026 2026 2026 2026 2026 2026 2026 2026 2026 
2026 2026 2026 2026 2026 2026 2026 2026 2026 
2026 2026 2026 2026 2026 2026 2026 2026 2026 
2026 2026 2026 2026 2026 2026 2026 2026 2026 
2026 2026 2026 2026 2026 2026 2026 2026 2026 
2026 2026 2026 2026 2026 2026 2026 2026 2026 
2026 2026 2026 2026 2026 2026 2026 2026 2026 
2026 2026 2026 2026 2026 2026 2026 2026 2026 
2026 2026 2026 2026 2026 2026 2026 2026 2026 
2026 2026 2026 2026 2026 2026 2026 2026 2026 
2026 2026 2026 2026 2026 2026 2026 2026 2026 
2026 2026 2026 2026 2026 2026 2026 2026 2026 
2026 2026 2026 2026 2026 2026 2026 2026 2026 
2026 2026 2026 2026 2026 2026 2026 2026 2026 
2026 2026 2026 2026 2026 2026 2026 2026 2026 
2026 2026 2026 2026 2026 2026 2026 2026 2026 
2026 2026 2026 2026 2026 2026 2026 2026 2026 
2026 2026 2026 2026 2026 2026 2026 2026 2026 
2026 2026 2026 2026 2026 2026 2026 2026 2026 
2026 2026 2026 2026 2026 2026 2026 2026 2026 
2026 2026 2026 2026 2026 2026 2026 2026 2026 
2026 2026 2026 2026 2026 2026 2026 2026 2026 
2026 2026 2026 2026 2026 2026 2026 2026 2026 
2026 2026 2026 2026 2026 2026 2026 2026 2026 
2026 2026 2026 2026 2026 2026 2026 2026 2026 
2026 2026 2026 2026 2026 2026 2026 2026 2026 
2026 2026 2026 2026 2026 2026 2026 2026 2026 
2026 2026 2026 2026 2026 2026 2026 2026 2026 
2026 2026 2026 2026 2026 2026 2026 2026 2026 
2026 2026 2026 2026 2026 2026 2026 2026 2026 
2026 2026 2026 2026 2026 2026 2026 2026 2026 
2026 2026 2026 2026 2026 2026 2026 2026 2026 
2026 2026 2026 2026 2026 2026 2026 2026 2026 
2026 2026 2026 2026 2026 2026 2026 2026 2026 
2026 2026 2026 2026 2026 2026 2026 2026 2026 
2026 2026 2026 2026 2026 2026 2026 2026 2026 
2026 2026 2026 2026 2026 2026 2026 2026 2026 
2026 2026 2026 2026 2026 2026 2026 2026 2026 
2026 2026 2026 2026 2026 2026 2026 2026 2026 
2026 2026 2026 2026 2026 2026 2026 2026 2026 
2026 2026 2026 2026 2026 2026 2026 2026 2026 
2026 2026 2026 2026 2026 2026 2026 2026 2026 
2026 2026 2026 2026 2026 2026 2026 2026 2026 
2026 2026 2026 2026 2026 2026 2026 2026 2026 
2026 2026 2026 2026 2026 2026 2026 2026 2026 
2026 2026 2026 2026 2026 2026 2026 2026 2026 
2026 2026 2026 2026 2026 2026 2026 2026 2026 
2026 2026 2026 2026 2026 2026 2026 2026 2026 
2026 2026 2026 2026 2026 2026 2026 2026 2026 
2026 2026 2026 2026 2026 2026 2026 2026 2026 
2026 2026 2026 2026 2026 2026 2026 2026 2026 
2026 2026 2026 2026 2026 2026 2026 2026 2026 
2026 2026 2026 2026 2026 2026 2026 2026 2026 
2026 2026 2026 2026 2026 2026 2026 2026 2026 
2026 2026 2026 2026 2026 2026 2026 2026 2026 
2026 2026 2026 2026 2026 2026 2026 2026 2026 
2026 2026 2026 2026 2026 2026 2026 2026 2026 
2026 2026 2026 2026 2026 2026 2026 2026 2026 
2026 2026 2026 2026 2026 2026 2026 2026 2026 
2026 2026 2026 2026 2026 2026 2026 2026 2026 
2026 2026 2026 2026 2026 2026 2026 2026 2026 
2026 2026 2026 2026 2026 2026 2026 2026 2026 
2026 2026 2026 2026 2026 2026 2026 2026 2026 
2026 2026 2026 2026 2026 2026 2026 2026 2026 
2026 2026 2026 2026 2026 2026 2026 2026 2026 
2026 2026 2026 2026 2026 2026 2026 2026 2026 
2026 2026 2026 2026 2026 2026 2026 2026 2026 
2026 2026 2026 2026 2026 2026 2026 2026 2026 
2026 2026 2026 2026 2026 2026 2026 2026 2026 
2026 2026 2026 2026 2026 2026 2026 2026 2026 
2026 2026 2026 2026 2026 2026 2026 2026 2026 
2026 2026 2026 2026 2026 2026 2026 2026 2026 
2026 2026 2026 2026 2026 2026 2026 2026 2026 
2026 2026 2026 2026 2026 2026 2026 2026 2026 
2026 2026 2026 2026 2026 2026 2026 2026 2026 
2026 2026 2026 2026 2026 2026 2026 2026 2026 
2026 2026 2026 2026 2026 2026 2026 2026 2026 
2026 2026 2026 2026 2026 2026 2026 2026 2026 
2026 2026 2026 2026 2026 2026 2026 2026 2026 
2026 2026 2026 2026 2026 2026 2026 2026 2026 
2026 2026 2026 2026 2026 2026 2026 2026 2026 
2026 2026 2026 2026 2026 2026 2026 2026 2026 
2026 2026 2026 2026 2026 2026 2026 2026 2026 
2026 2026 2026 2026 2026 2026 2026 2026 2026 
2026 2026 2026 2026 2026 2026 2026 2026 2026 
2026 2026 2026 2026 2026 2026 2026 2026 2026 
2026 2026 2026 2026 2026 2026 2026 2026 2026 
2026 2026 2026 2026 2026 2026 2026 2026 2026 
2026 2026 2026 2026 2026 2026 2026 2026 2026 
2026 2026 2026 2026 2026 2026 2026 2026 2026 
2026 2026 2026 2026 2026 2026 2026 2026 2026 
2026 2026 2026 2026 2026 2026 2026 2026 2026 
2026 2026 2026 2026 2026 2026 2026 2026 2026 
2026 2026 2026 2026 2026 2026 2026 2026 2026 
2026 2026 2026 2026 2026 2026 2026 2026 2026 
2026 2026 2026 2026 2026 2026 2026 2026 2026 
2026 2026 2026 2026 2026 2026 2026 2026 2026 
2026 2026 2026 2026 2026 2026 2026 2026 2026 
2026 2026 2026 2026 2026 2026 2026 2026 2026 
2026 2026 2026 2026 2026 2026 2026 2026 2026 
2026 2026 2026 2026 2026 2026 2026 2026 2026 
2026 2026 2026 2026 2026 2026 2026 2026 2026 
2026 2026 2026 2026 2026 2026 2026 2026 2026 
2026 2026 2026 2026 2026 2026 2026 2026 2026 
2026 2026 2026 2026 2026 2026 2026 2026 2026 
2026 2026 2026 2026 2026 2026 2026 2026 2026 
2026 2026 2026 2026 2026 2026 2026 2026 2026 
2026 2026 2026 2026 2026 2026 2026 2026 2026 
2026 2026 2026 2026 2026 2026 2026 2026 2026 
2026 2026 2026 2026 2026 2026 2026 2026 2026 
2026 2026 2026 2026 2026 2026 2026 2026 2026 
2026 2026 2026 2026 2026 2026 2026 2026 2026 
2026 2026 2026 2026 2026 2026 2026 2026 2026 
2026 2026 2026 2026 2026 2026 2026 2026 2026 
2026 2026 2026 2026 2026 2026 2026 2026 2026 
2026 2026 2026 2026 2026 2026 2026 2026 2026 
2026 2026 2026 2026 2026 2026 2026 2026 2026 
2026 2026 2026 2026 2026 2026 2026 2026 2026 
2026 2026 2026 2026 2026 2026 2026 2026 2026 
2026 2026 2026 2026 2026 2026 2026 2026 2026 
2026 2026 2026 2026 2026 2026 2026 2026 2026 
2026 2026 2026 2026 2026 2026 2026 2026 2026 
2026 2026 2026 2026 2026 2026 2026 2026 2026 
2026 2026 2026 2026 2026 2026 2026 2026 2026 
2026 2026 2026 2026 2026 2026 2026 2026 2026 
2026 2026 2026 2026 2026 2026 2026 2026 2026 
2026 2026 2026 2026 2026 2026 2026 2026 2026 
2026 2026 2026 2026 2026 2026 2026 2026 2026 
2026 2026 2026 2026 2026 2026 2026 2026 2026 
2026 2026 2026 2026 2026 2026 2026 2026 2026 
2026 2026 2026 2026 2026 2026 2026 2026 2026 
2026 2026 2026 2026 2026 2026 2026 2026 2026 
2026 2026 2026 2026 2026 2026 2026 2026 2026 
2026 2026 2026 2026 2026 2026 2026 2026 2026 
2026 2026 2026 2026 2026 2026 2026 2026 2026 
2026 2026 2026 2026 2026 2026 2026 2026 2026 
2026 2026 2026 2026 2026 2026 2026 2026 2026 
2026 2026 2026 2026 2026 2026 2026 2026 2026 
2026 2026 2026 2026 2026 2026 2026 2026 2026 
2026 2026 2026 2026 2026 2026 2026 2026 2026 
2026 2026 2026 2026 2026 2026 2026 2026 2026 
2026 2026 2026 2026 2026 2026 2026 2026 2026 
2026 2026 2026 2026 2026 2026 2026 2026 2026 
2026 2026 2026 2026 2026 2026 2026 2026 2026 
2026 2026 2026 2026 2026 2026 2026 2026 2026 
2026 2026 2026 2026 2026 2026 2026 2026 2026 
2026 2026 2026 2026 2026 2026 2026 2026 2026 
2026 2026 2026 2026 2026 2026 2026 2026 2026 
2026 2026 2026 2026 2026 2026 2026 2026 2026 
2026 2026 2026 2026 2026 2026 2026 2026 2026 
2026 2026 2026 2026 2026 2026 2026 2026 2026 
2026 2026 2026 2026 2026 2026 2026 2026 2026 
2026 2026 2026 2026 2026 2026 2026 2026 2026 
2026 2026 2026 2026 2026 2026 2026 2026 2026 
2026 2026 2026 2026 2026 2026 2026 2026 2026 
2026 2026 2026 2026 2026 2026 2026 2026 2026 
2026 2026 2026 2026 2026 2026 2026 2026 2026 
2026 2026 2026 2026 2026 2026 2026 2026 2026 
2026 2026 2026 2026 2026 2026 2026 2026 2026 
2026 2026 2026 2026 2026 2026 2026 2026 2026 
2026 2026 2026 2026 2026 2026 2026 2026 2026 
2026 2026 2026 2026 2026 2026 2026 2026 2026 
2026 2026 2026 2026 2026 2026 2026 2026 2026 
2026 2026 2026 2026 2026 2026 2026 2026 2026 
2026 2026 2026 2026 2026 2026 2026 2026 2026 
2026 2026 2026 2026 2026 2026 2026 2026 2026 
2026 2026 2026 2026 2026 2026 2026 2026 2026 
2026 2026 2026 2026 2026 2026 2026 2026 2026 
2026 2026 2026 2026 2026 2026 2026 2026 2026 
2026 2026 2026 2026 2026 2026 2026 2026 2026 
2026 2026 2026 2026 2026 2026 2026 2026 2026 
2026 2026 2026 2026 2026 2026 2026 2026 2026 
2026 2026 2026 2026 2026 2026 2026 2026 2026 
2026 2026 2026 2026 2026 2026 2026 2026 2026 
2026 2026 2026 2026 2026 2026 2026 2026 2026 
2026 2026 2026 2026 2026 2026 2026 2026 2026 
2026 2026 2026 2026 2026 2026 2026 2026 2026 
2026 2026 2026 2026 2026 2026 2026 2026 2026 
2026 2026 2026 2026 2026 2026 2026 2026 2026 
2026 2026 2026 2026 2026 2026 2026 2026 2026 
2026 2026 2026 2026 2026 2026 2026 2026 2026 
2026 2026 2026 2026 2026 2026 2026 2026 2026 
2026 2026 2026 2026 2026 2026 2026 2026 2026 
2026 2026 2026 2026 2026 2026 2026 2026 2026 
2026 2026 2026 2026 2026 2026 2026 2026 2026 
2026 2026 2026 2026 2026 2026 2026 2026 2026 
2026 2026 2026 2026 2026 2026 2026 2026 2026 
2026 2026 2026 2026 2026 2026 2026 2026 2026 
2026 2026 2026 2026 2026 2026 2026 2026 2026 
2026 2026 2026 2026 2026 2026 2026 2026 2026 
2026 2026 2026 2026 2026 2026 2026 2026 2026 
2026 2026 2026 2026 2026 2026 2026 2026 2026 
2026 2026 2026 2026 2026 2026 2026 2026 2026 
2026 2026 2026 2026 2026 2026 2026 2026 2026 
2026 2026 2026 2026 2026 2026 2026 2026 2026 
2026 2026 2026 2026 2026 2026 2026 2026 2026 
2026 2026 2026 2026 2026 2026 2026 2026 2026 
2026 2026 2026 2026 2026 2026 2026 2026 2026 
2026 2026 2026 2026 2026 2026 2026 2026 2026 
2026 2026 2026 2026 2026 2026 2026 2026 2026 
2026 2026 2026 2026 2026 2026 2026 2026 2026 
2026 2026 2026 2026 2026 2026 2026 2026 2026 
2026 2026 2026 2026 2026 2026 2026 2026 2026 
2026 2026 2026 2026 2026 2026 2026 2026 2026 
2026 2026 2026 2026 2026 2026 2026 2026 2026 
2026 2026 2026 2026 2026 2026 2026 2026 2026 
2026 2026 2026 2026 2026 2026 2026 2026 2026 
2026 2026 2026 2026 2026 2026 2026 2026 2026 
2026 2026 2026 2026 2026 2026 2026 2026 2026 
2026 2026 2026 2026 2026 2026 2026 2026 2026 
2026 2026 2026 2026 2026 2026 2026 2026 2026 
2026 2026 2026 2026 2026 2026 2026 2026 2026 
2026 2026 2026 2026 2026 2026 2026 2026 2026 
2026 2026 2026 2026 2026 2026 2026 2026 2026 
2026 2026 2026 2026 2026 2026 2026 2026 2026 
2026 2026 2026 2026 2026 2026 2026 2026 2026 
2026 2026 2026 2026 2026 2026 2026 2026 2026 
2026 2026 2026 2026 2026 2026 2026 2026 2026 
2026 2026 2026 2026 2026 2026 2026 2026 2026 
2026 2026 2026 2026 2026 2026 2026 2026 2026 
2026 2026 2026 2026 2026 2026 2026 2026 2026 
2026 2026 2026 2026 2026 2026 2026 2026 2026 
2026 2026 2026 2026 2026 2026 2026 2026 2026 
2026 2026 2026 2026 2026 2026 2026 2026 2026 
2026 2026 2026 2026 2026 2026 2026 2026 2026 
2026 2026 2026 2026 2026 2026 2026 2026 2026 
2026 2026 2026 2026 2026 2026 2026 2026 2026 
2026 2026 2026 2026 2026 2026 2026 2026 2026 
2026 2026 2026 2026 2026 2026 2026 2026 2026 
2026 2026 2026 2026 2026 2026 2026 2026 2026 
2026 2026 2026 2026 2026 2026 2026 2026 2026 
2026 2026 2026 2026 2026 2026 2026 2026 2026 
2026 2026 2026 2026 2026 2026 2026 2026 2026 
2026 2026 2026 2026 2026 2026 2026 2026 2026 