# vtk DataFile Version 4.2
vtk output
ASCII
DATASET POLYDATA
POINTS 11968 float
15.1968 -49.4369 4.61796 15.1469 -49.301 4.34299 15.3674 -49.6016 4.41556 
14.8603 -49.5173 4.34837 15.1463 -49.7199 4.49728 15.0156 -49.2955 3.9193 
15.3639 -49.5281 3.96229 14.5282 -49.4657 4.08654 14.7017 -49.3079 4.07875 
14.4708 -49.4437 3.91653 15.2529 -50.2099 4.2556 15.5511 -50.0252 4.0236 
14.9016 -50.007 4.07491 14.6571 -49.6692 3.86222 15.6027 -50.6969 4.16078 
15.8044 -50.4357 3.73173 15.9484 -50.8677 3.94551 15.1789 -50.8567 4.17593 
14.9256 -50.5945 3.87385 15.7728 -51.1925 4.13389 16.0556 -51.3364 3.80243 
15.3539 -51.2768 4.1598 14.9636 -51.1827 3.87373 15.5808 -51.5407 3.87839 
15.1539 -51.5221 3.81904 15.1499 -48.8914 3.40347 15.2537 -48.7234 3.31937 
15.3029 -49.0067 3.31602 15.0005 -48.8209 3.12003 15.0433 -49.646 3.57532 
15.1072 -49.1465 3.22905 14.683 -49.4112 3.79232 15.2646 -49.8738 3.22464 
15.5302 -49.9815 3.48104 14.8946 -50.0234 3.33527 15.9003 -50.3911 3.3005 
16.1592 -50.8223 3.53495 14.8282 -50.7536 3.30394 16.8309 -51.3523 3.46939 
16.8896 -51.1425 3.21052 17.0985 -51.3344 3.33005 16.4331 -51.264 3.60555 
16.577 -51.0184 3.38203 14.9476 -51.2824 3.35838 16.9119 -51.5541 3.31558 
16.7416 -51.9201 3.18023 16.4237 -51.7442 3.50572 15.874 -51.7452 3.37012 
16.1364 -51.9874 3.2729 15.3369 -51.5659 3.28334 16.422 -52.1351 3.11636 
15.6335 -47.778 2.87455 15.8085 -47.5046 2.57856 15.9477 -47.7574 2.72486 
15.5138 -47.719 2.50112 15.8509 -48.24 2.96794 16.1264 -48.2101 2.63058 
15.264 -48.0016 2.78398 15.3183 -48.3326 3.06113 15.0001 -48.4822 2.65897 
18.1237 -49.0519 2.96353 18.268 -48.7057 2.72407 18.5775 -49.0188 2.81514 
17.5002 -48.9067 2.95139 17.7388 -48.6 2.7621 16.9499 -49.0445 2.90854 
17.0494 -48.6047 2.67582 16.2154 -48.8546 2.94738 16.4656 -48.6019 2.61985 
15.6072 -48.8596 3.13438 14.8557 -48.9033 2.69096 18.6794 -49.368 2.89849 
18.8859 -49.1617 2.67351 18.9969 -49.4109 2.61145 18.3201 -49.5019 2.95423 
17.7091 -49.3526 2.93979 17.2689 -49.3763 2.77985 16.9055 -49.3387 2.7746 
16.6633 -49.6404 2.67065 16.4182 -49.4613 2.93366 15.8725 -49.4018 3.02563 
15.312 -49.5191 3.1034 14.9072 -49.4075 2.77807 18.7651 -49.7759 2.65519 
18.0767 -49.7884 2.72824 17.5718 -49.6632 2.67897 16.3753 -49.978 2.88311 
16.5007 -50.1472 2.59406 15.8361 -49.9747 3.0719 14.8304 -50.1304 2.67619 
16.4023 -50.6221 3.02597 16.6185 -50.6545 2.60336 14.9389 -50.7807 2.74996 
17.9746 -51.3433 2.89557 18.2314 -51.0727 2.68109 18.3292 -51.3994 2.69529 
17.545 -51.4549 2.94954 17.7868 -51.0415 2.72582 17.048 -51.3337 3.17105 
17.2466 -51.4154 2.56154 16.7701 -51.2976 2.82077 15.0985 -51.2555 2.93872 
15.3961 -51.3882 2.76086 15.2344 -51.0787 2.62427 18.0933 -51.6719 2.79366 
17.9464 -51.9999 2.66219 17.6912 -51.775 2.93612 17.1349 -51.8139 2.92348 
16.8738 -51.6188 2.664 16.111 -51.9975 2.89937 15.7583 -51.6698 2.78343 
17.552 -52.1471 2.65917 16.9874 -52.1638 2.72176 16.5055 -52.1441 2.70598 
13.1976 -47.192 2.38551 13.501 -46.8903 2.00299 13.661 -47.269 2.19248 
12.7792 -47.2498 2.34359 12.964 -46.8206 2.04964 12.5303 -47.0343 2.0081 
17.5113 -47.9067 2.2788 17.6737 -47.5315 2.08306 17.9678 -47.7846 2.18194 
17.3278 -47.5978 2.06238 15.7577 -47.5222 2.23656 15.9724 -47.7086 2.30717 
15.6475 -47.7487 2.029 13.3789 -47.5603 2.36488 13.6556 -47.7676 2.05995 
12.9554 -47.6268 2.3726 12.5872 -47.5352 2.08137 18.7002 -48.2971 2.27799 
18.8445 -48.0212 2.01687 19.0141 -48.3591 2.04967 18.1232 -48.2644 2.44221 
18.4256 -47.938 2.13147 17.4794 -48.3003 2.53376 16.9355 -47.9297 1.98918 
16.9981 -48.2787 2.32089 16.6081 -48.2895 1.98641 16.1896 -48.1894 2.09321 
15.2101 -48.1517 2.46224 15.4033 -48.0992 2.08867 13.194 -47.8877 2.08582 
12.7818 -47.8713 2.01934 18.7293 -48.7135 2.48558 19.0692 -48.9398 2.18596 
16.5329 -48.4629 2.23905 15.1127 -48.4437 2.20396 14.8831 -48.8824 2.23127 
19.1537 -49.4967 2.16633 17.0744 -49.6366 2.51706 14.7682 -49.5095 2.16255 
19.3138 -50.1476 2.37993 19.4056 -49.8444 1.92525 19.7307 -50.1804 2.12916 
18.7402 -50.2295 2.4668 18.2025 -50.1799 2.50009 17.5123 -50.0874 2.45577 
16.8635 -50.0698 2.2675 16.5575 -49.8577 2.25368 16.639 -50.033 1.98438 
16.2777 -50.1738 2.31302 16.0826 -50.1447 1.97898 14.8422 -50.1399 2.18922 
19.8316 -50.6221 2.31816 20.0128 -50.4266 1.94569 20.1535 -50.6784 2.09664 
19.3154 -50.7701 2.44542 18.9073 -50.5881 2.43095 18.2932 -50.6736 2.49124 
17.5628 -50.6952 2.43656 16.9111 -50.6678 2.35533 16.4528 -50.4124 2.25764 
15.8566 -50.6283 2.24869 16.2253 -50.8201 2.13977 15.613 -50.3808 1.95913 
15.1191 -50.3867 2.00923 15.2449 -50.708 2.37771 20.0709 -51.0352 2.1083 
19.7774 -51.5325 2.06682 19.4648 -51.2814 2.39404 18.7407 -51.2048 2.49599 
17.07 -50.954 2.11295 17.2284 -51.298 2.01538 16.5849 -50.9582 2.1562 
16.3566 -51.3486 2.38284 15.7167 -51.2614 2.46302 19.4244 -51.8033 2.318 
19.5624 -51.9392 2.01734 18.9864 -51.8409 2.36641 18.4049 -51.8483 2.47612 
16.8186 -51.8718 2.50376 17.2737 -51.8201 2.19008 16.2334 -51.8077 2.50646 
19.2098 -52.1329 2.06292 18.6565 -52.1861 2.04793 18.0764 -52.1973 2.238 
17.6473 -52.1667 2.09542 12.6402 -45.4165 1.72259 12.7973 -45.0723 1.57261 
13.0375 -45.3801 1.43867 12.5265 -45.1496 1.37786 12.7004 -45.8742 1.78199 
12.9885 -45.9793 1.52769 12.2842 -45.575 1.56639 12.1558 -45.9526 1.77193 
11.9 -45.8934 1.37359 12.6729 -46.4658 1.82223 13.035 -46.4113 1.48576 
12.2641 -46.3316 1.83396 11.6442 -46.2225 1.55546 11.7357 -46.478 1.70631 
11.3683 -46.5582 1.3539 18.131 -47.1798 1.69514 18.2621 -46.9054 1.46824 
18.5563 -47.2009 1.55011 17.4817 -47.2305 1.8137 17.7447 -46.7999 1.50672 
16.958 -47.2352 1.66101 17.1497 -46.8328 1.5033 16.7566 -47.0609 1.44944 
15.1471 -47.159 1.6117 15.1876 -46.9685 1.53456 15.2881 -47.207 1.54371 
15.0873 -47.0713 1.52536 13.9242 -47.075 1.85336 13.9557 -46.8518 1.38713 
14.2861 -47.2627 1.52525 13.3135 -46.6896 1.5156 12.0793 -46.8461 1.64407 
12.3662 -47.3242 1.58387 11.5215 -46.8376 1.46042 18.628 -47.5931 1.78649 
18.8651 -47.3473 1.43082 19.0306 -47.7721 1.54205 18.0749 -47.5198 1.94909 
17.0541 -47.5372 1.85664 16.6688 -47.5787 1.56559 15.9168 -47.7931 1.8772 
15.1653 -47.7371 1.62378 15.3933 -47.7022 1.3394 15.0352 -47.4488 1.5035 
14.0684 -47.625 1.86306 14.4292 -47.7379 1.56333 12.5602 -47.732 1.6313 
19.1161 -48.3029 1.51969 16.3612 -48.3307 1.89477 16.3405 -48.0327 1.67799 
15.7541 -48.0231 1.50149 15.0994 -48.3713 1.86568 14.8196 -47.8287 1.37437 
14.5068 -48.2207 1.75068 13.8921 -48.2578 1.76798 13.3608 -48.1041 1.526 
13.6476 -48.4261 1.45129 12.8519 -47.9499 1.53849 19.0997 -48.899 1.52105 
14.5692 -48.9902 1.8667 14.0672 -48.8963 1.73214 13.7783 -48.7865 1.53673 
19.1421 -49.519 1.40744 16.9333 -49.6936 1.71662 17.3486 -49.4555 1.5013 
16.9924 -49.3761 1.4855 16.726 -49.6012 1.33 14.5603 -49.5971 1.89316 
14.1652 -49.5546 1.70079 13.7811 -49.3939 1.39547 20.6022 -50.1059 1.63715 
20.6544 -49.9997 1.43176 20.7054 -50.1606 1.42072 20.3863 -50.0054 1.43584 
19.3087 -49.9163 1.41858 19.6239 -50.148 1.59206 17.3959 -50.0438 1.68242 
17.771 -50.0755 1.33566 17.6927 -49.7552 1.46119 16.9058 -50.1777 1.84133 
16.4691 -49.845 1.73042 16.1915 -50.1305 1.48661 14.5494 -50.024 1.80689 
14.177 -50.1605 1.41905 13.9103 -49.8761 1.42987 20.4971 -50.2149 1.46124 
20.2614 -50.7099 1.65518 19.905 -50.3734 1.46802 17.505 -50.4251 1.52074 
17.0158 -50.6102 1.80893 17.2941 -50.8276 1.55385 16.5298 -50.5431 1.9601 
15.7815 -50.3374 1.45088 15.2576 -50.4077 1.63515 14.6943 -50.4136 1.47694 
20.4786 -51.1858 1.72148 20.6373 -51.0641 1.32357 20.7337 -51.3655 1.36202 
20.1814 -51.3512 1.86182 17.3461 -51.3593 1.54366 20.4412 -51.4824 1.47004 
20.0457 -51.573 1.61452 19.7259 -51.8671 1.47595 17.5435 -51.8565 1.76039 
17.7966 -52.0027 1.54858 17.5712 -51.6776 1.30732 19.3246 -52.1705 1.5381 
18.8054 -52.2658 1.50551 18.1953 -52.201 1.57874 18.0011 -44.7596 1.10722 
18.2602 -44.462 0.883928 18.4665 -44.8619 0.92682 17.4686 -44.8209 1.1073 
17.8014 -44.3995 0.928194 17.3245 -44.5702 0.897066 12.8631 -44.8405 1.26257 
12.9269 -44.4988 0.814535 13.1396 -44.7214 1.01566 12.5903 -44.737 0.903525 
18.2039 -45.3494 1.16287 18.6249 -45.3168 0.966824 17.5842 -45.2799 1.22678 
17.0617 -44.9424 0.974519 17.06 -45.3337 1.11365 16.7689 -45.2676 0.890909 
13.2724 -45.0896 1.11608 13.506 -44.9441 0.81899 13.5351 -45.4249 0.742163 
12.3928 -45.1887 0.765074 18.6152 -45.855 1.10924 18.8604 -45.5365 0.823425 
18.9893 -45.9546 0.828973 18.0963 -45.9737 1.22357 17.5839 -45.8755 1.23982 
16.9411 -45.9312 1.15736 16.6315 -45.7315 0.915413 13.3461 -45.5172 1.00068 
13.2044 -45.9946 1.04557 12.1176 -45.5709 0.994748 11.75 -45.8528 0.877199 
18.7941 -46.3767 1.11621 19.0314 -46.5036 0.829678 18.2653 -46.4802 1.28755 
17.586 -46.3984 1.30952 16.9378 -46.5303 1.2847 16.33 -46.1481 0.821887 
16.4412 -46.5497 1.09065 16.0672 -46.5183 0.829779 13.2193 -46.4882 1.04996 
11.5136 -46.1642 1.11558 11.2867 -46.3912 0.801704 18.7254 -46.8889 1.25128 
19.0455 -47.1275 0.936259 16.444 -47.168 1.20594 16.0749 -46.956 0.913124 
15.1932 -47.2382 1.4282 14.5186 -47.0683 1.18805 14.4133 -46.938 0.926266 
14.7245 -47.1947 0.942187 13.8649 -46.8152 0.805394 13.5062 -46.6862 1.03373 
12.1385 -47.2421 1.22484 11.7371 -47.129 1.19774 11.3609 -46.9234 1.00199 
19.0965 -47.6804 0.899593 16.2685 -47.8024 1.24445 16.0889 -47.5721 0.908386 
15.1099 -47.6763 1.29785 14.6342 -47.4825 1.22791 14.8007 -47.6021 0.929091 
12.4716 -47.6963 0.999037 12.0962 -47.424 0.810223 11.7203 -47.2606 0.759041 
19.0746 -48.2812 0.887279 17.5617 -48.4482 1.04836 17.7854 -48.3565 0.881799 
17.6682 -48.0459 0.878146 17.4345 -48.1609 0.802089 15.9813 -48.1567 0.950725 
15.8424 -48.3447 1.07038 15.5724 -48.2294 1.05121 15.1066 -47.9476 1.00811 
13.4398 -48.382 1.16584 13.0909 -48.3552 0.826442 12.8348 -48.0821 0.947594 
19.1121 -48.9849 0.874622 17.5375 -48.9312 1.16252 17.8463 -48.9081 0.886537 
17.2899 -48.7581 0.804501 15.6651 -48.5359 0.729076 13.5791 -48.8565 1.12371 
13.3392 -48.6253 0.829555 20.045 -49.7262 1.07066 20.0813 -49.3533 0.867668 
[...]
CELL_DATA 23968
SCALARS scalars float
LOOKUP_TABLE default
2007 2007 2007 2007 2007 2007 2007 2007 2007 
2007 2007 2007 2007 2007 2007 2007 2007 2007 
2007 2007 2007 2007 2007 2007 2007 2007 2007 
2007 2007 2007 2007 2007 2007 2007 2007 2007 
2007 2007 2007 2007 2007 2007 2007 2007 2007 
2007 2007 2007 2007 2007 2007 2007 2007 2007 
2007 2007 2007 2007 2007 2007 2007 2007 2007 
2007 2007 2007 2007 2007 2007 2007 2007 2007 
2007 2007 2007 2007 2007 2007 2007 2007 2007 
2007 2007 2007 2007 2007 2007 2007 2007 2007 
2007 2007 2007 2007 2007 2007 2007 2007 2007 
2007 2007 2007 2007 2007 2007 2007 2007 2007 
2007 2007 2007 2007 2007 2007 2007 2007 2007 
2007 2007 2007 2007 2007 2007 2007 2007 2007 
2007 2007 2007 2007 2007 2007 2007 2007 2007 
2007 2007 2007 2007 2007 2007 2007 2007 2007 
2007 2007 2007 2007 2007 2007 2007 2007 2007 
2007 2007 2007 2007 2007 2007 2007 2007 2007 
2007 2007 2007 2007 2007 2007 2007 2007 2007 
2007 2007 2007 2007 2007 2007 2007 2007 2007 
2007 2007 2007 2007 2007 2007 2007 2007 2007 
2007 2007 2007 2007 2007 2007 2007 2007 2007 
2007 2007 2007 2007 2007 2007 2007 2007 2007 
2007 2007 2007 2007 2007 2007 2007 2007 2007 
2007 2007 2007 2007 2007 2007 2007 2007 2007 
2007 2007 2007 2007 2007 2007 2007 2007 2007 
2007 2007 2007 2007 2007 2007 2007 2007 2007 
2007 2007 2007 2007 2007 2007 2007 2007 2007 
2007 2007 2007 2007 2007 2007 2007 2007 2007 
2007 2007 2007 2007 2007 2007 2007 2007 2007 
2007 2007 2007 2007 2007 2007 2007 2007 2007 
2007 2007 2007 2007 2007 2007 2007 2007 2007 
2007 2007 2007 2007 2007 2007 2007 2007 2007 
2007 2007 2007 2007 2007 2007 2007 2007 2007 
2007 2007 2007 2007 2007 2007 2007 2007 2007 
2007 2007 2007 2007 2007 2007 2007 2007 2007 
2007 2007 2007 2007 2007 2007 2007 2007 2007 
2007 2007 2007 2007 2007 2007 2007 2007 2007 
2007 2007 2007 2007 2007 2007 2007 2007 2007 
2007 2007 2007 2007 2007 2007 2007 2007 2007 
2007 2007 2007 2007 2007 2007 2007 2007 2007 
2007 2007 2007 2007 2007 2007 2007 2007 2007 
2007 2007 2007 2007 2007 2007 2007 2007 2007 
2007 2007 2007 2007 2007 2007 2007 2007 2007 
2007 2007 2007 2007 2007 2007 2007 2007 2007 
2007 2007 2007 2007 2007 2007 2007 2007 2007 
2007 2007 2007 2007 2007 2007 2007 2007 2007 
2007 2007 2007 2007 2007 2007 2007 2007 2007 
2007 2007 2007 2007 2007 2007 2007 2007 2007 
2007 2007 2007 2007 2007 2007 2007 2007 2007 
2007 2007 2007 2007 2007 2007 2007 2007 2007 
2007 2007 2007 2007 2007 2007 2007 2007 2007 
2007 2007 2007 2007 2007 2007 2007 2007 2007 
2007 2007 2007 2007 2007 2007 2007 2007 2007 
2007 2007 2007 2007 2007 2007 2007 2007 2007 
2007 2007 2007 2007 2007 2007 2007 2007 2007 
2007 2007 2007 2007 2007 2007 2007 2007 2007 
2007 2007 2007 2007 2007 2007 2007 2007 2007 
2007 2007 2007 2007 2007 2007 2007 2007 2007 
2007 2007 2007 2007 2007 2007 2007 2007 2007 
2007 2007 2007 2007 2007 2007 2007 2007 2007 
2007 2007 2007 2007 2007 2007 2007 2007 2007 
2007 2007 2007 2007 2007 2007 2007 2007 2007 
2007 2007 2007 2007 2007 2007 2007 2007 2007 
2007 2007 2007 2007 2007 2007 2007 2007 2007 
2007 2007 2007 2007 2007 2007 2007 2007 2007 
2007 2007 2007 2007 2007 2007 2007 2007 2007 
2007 2007 2007 2007 2007 2007 2007 2007 2007 
2007 2007 2007 2007 2007 2007 2007 2007 2007 
2007 2007 2007 2007 2007 2007 2007 2007 2007 
2007 2007 2007 2007 2007 2007 2007 2007 2007 
2007 2007 2007 2007 2007 2007 2007 2007 2007 
2007 2007 2007 2007 2007 2007 2007 2007 2007 
2007 2007 2007 2007 2007 2007 2007 2007 2007 
2007 2007 2007 2007 2007 2007 2007 2007 2007 
2007 2007 2007 2007 2007 2007 2007 2007 2007 
2007 2007 2007 2007 2007 2007 2007 2007 2007 
2007 2007 2007 2007 2007 2007 2007 2007 2007 
2007 2007 2007 2007 2007 2007 2007 2007 2007 
2007 2007 2007 2007 2007 2007 2007 2007 2007 
2007 2007 2007 2007 2007 2007 2007 2007 2007 
2007 2007 2007 2007 2007 2007 2007 2007 2007 
2007 2007 2007 2007 2007 2007 2007 2007 2007 
2007 2007 2007 2007 2007 2007 2007 2007 2007 
2007 2007 2007 2007 2007 2007 2007 2007 2007 
2007 2007 2007 2007 2007 2007 2007 2007 2007 
2007 2007 2007 2007 2007 2007 2007 2007 2007 
2007 2007 2007 2007 2007 2007 2007 2007 2007 
2007 2007 2007 2007 2007 2007 2007 2007 2007 
2007 2007 2007 2007 2007 2007 2007 2007 2007 
2007 2007 2007 2007 2007 2007 2007 2007 2007 
2007 2007 2007 2007 2007 2007 2007 2007 2007 
2007 2007 2007 2007 2007 2007 2007 2007 2007 
2007 2007 2007 2007 2007 2007 2007 2007 2007 
2007 2007 2007 2007 2007 2007 2007 2007 2007 
2007 2007 2007 2007 2007 2007 2007 2007 2007 
2007 2007 2007 2007 2007 2007 2007 2007 2007 
2007 2007 2007 2007 2007 2007 2007 2007 2007 
2007 2007 2007 2007 2007 2007 2007 2007 2007 
2007 2007 2007 2007 2007 2007 2007 2007 2007 
2007 2007 2007 2007 2007 2007 2007 2007 2007 
2007 2007 2007 2007 2007 2007 2007 2007 2007 
2007 2007 2007 2007 2007 2007 2007 2007 2007 
2007 2007 2007 2007 2007 2007 2007 2007 2007 
2007 2007 2007 2007 2007 2007 2007 2007 2007 
2007 2007 2007 2007 2007 2007 2007 2007 2007 
2007 2007 2007 2007 2007 2007 2007 2007 2007 
2007 2007 2007 2007 2007 2007 2007 2007 2007 
2007 2007 2007 2007 2007 2007 2007 2007 2007 
2007 2007 2007 2007 2007 2007 2007 2007 2007 
2007 2007 2007 2007 2007 2007 2007 2007 2007 
2007 2007 2007 2007 2007 2007 2007 2007 2007 
2007 2007 2007 2007 2007 2007 2007 2007 2007 
2007 2007 2007 2007 2007 2007 2007 2007 2007 
2007 2007 2007 2007 2007 2007 2007 2007 2007 
2007 2007 2007 2007 2007 2007 2007 2007 2007 
2007 2007 2007 2007 2007 2007 2007 2007 2007 
2007 2007 2007 2007 2007 2007 2007 2007 2007 
2007 2007 2007 2007 2007 2007 2007 2007 2007 
2007 2007 2007 2007 2007 2007 2007 2007 2007 
2007 2007 2007 2007 2007 2007 2007 2007 2007 
2007 2007 2007 2007 2007 2007 2007 2007 2007 
2007 2007 2007 2007 2007 2007 2007 2007 2007 
2007 2007 2007 2007 2007 2007 2007 2007 2007 
2007 2007 2007 2007 2007 2007 2007 2007 2007 
2007 2007 2007 2007 2007 2007 2007 2007 2007 
2007 2007 2007 2007 2007 2007 2007 2007 2007 
2007 2007 2007 2007 2007 2007 2007 2007 2007 
2007 2007 2007 2007 2007 2007 2007 2007 2007 
2007 2007 2007 2007 2007 2007 2007 2007 2007 
2007 2007 2007 2007 2007 2007 2007 2007 2007 
2007 2007 2007 2007 2007 2007 2007 2007 2007 
2007 2007 2007 2007 2007 2007 2007 2007 2007 
2007 2007 2007 2007 2007 2007 2007 2007 2007 
2007 2007 2007 2007 2007 2007 2007 2007 2007 
2007 2007 2007 2007 2007 2007 2007 2007 2007 
2007 2007 2007 2007 2007 2007 2007 2007 2007 
2007 2007 2007 2007 2007 2007 2007 2007 2007 
2007 2007 2007 2007 2007 2007 2007 2007 2007 
2007 2007 2007 2007 2007 2007 2007 2007 2007 
2007 2007 2007 2007 2007 2007 2007 2007 2007 
2007 2007 2007 2007 2007 2007 2007 2007 2007 
2007 2007 2007 2007 2007 2007 2007 2007 2007 
2007 2007 2007 2007 2007 2007 2007 2007 2007 
2007 2007 2007 2007 2007 2007 2007 2007 2007 
2007 2007 2007 2007 2007 2007 2007 2007 2007 
2007 2007 2007 2007 2007 2007 2007 2007 2007 
2007 2007 2007 2007 2007 2007 2007 2007 2007 
2007 2007 2007 2007 2007 2007 2007 2007 2007 
2007 2007 2007 2007 2007 2007 2007 2007 2007 
2007 2007 2007 2007 2007 2007 2007 2007 2007 
2007 2007 2007 2007 2007 2007 2007 2007 2007 
2007 2007 2007 2007 2007 2007 2007 2007 2007 
2007 2007 2007 2007 2007 2007 2007 2007 2007 
2007 2007 2007 2007 2007 2007 2007 2007 2007 
2007 2007 2007 2007 2007 2007 2007 2007 2007 
2007 2007 2007 2007 2007 2007 2007 2007 2007 
2007 2007 2007 2007 2007 2007 2007 2007 2007 
2007 2007 2007 2007 2007 2007 2007 2007 2007 
2007 2007 2007 2007 2007 2007 2007 2007 2007 
2007 2007 2007 2007 2007 2007 2007 2007 2007 
2007 2007 2007 2007 2007 2007 2007 2007 2007 
2007 2007 2007 2007 2007 2007 2007 2007 2007 
2007 2007 2007 2007 2007 2007 2007 2007 2007 
2007 2007 2007 2007 2007 2007 2007 2007 2007 
2007 2007 2007 2007 2007 2007 2007 2007 2007 
2007 2007 2007 2007 2007 2007 2007 2007 2007 
2007 2007 2007 2007 2007 2007 2007 2007 2007 
2007 2007 2007 2007 2007 2007 2007 2007 2007 
2007 2007 2007 2007 2007 2007 2007 2007 2007 
2007 2007 2007 2007 2007 2007 2007 2007 2007 
2007 2007 2007 2007 2007 2007 2007 2007 2007 
2007 2007 2007 2007 2007 2007 2007 2007 2007 
2007 2007 2007 2007 2007 2007 2007 2007 2007 
2007 2007 2007 2007 2007 2007 2007 2007 2007 
2007 2007 2007 2007 2007 2007 2007 2007 2007 
2007 2007 2007 2007 2007 2007 2007 2007 2007 
2007 2007 2007 2007 2007 2007 2007 2007 2007 
2007 2007 2007 2007 2007 2007 2007 2007 2007 
2007 2007 2007 2007 2007 2007 2007 2007 2007 
2007 2007 2007 2007 2007 2007 2007 2007 2007 
2007 2007 2007 2007 2007 2007 2007 2007 2007 
2007 2007 2007 2007 2007 2007 2007 2007 2007 
2007 2007 2007 2007 2007 2007 2007 2007 2007 
2007 2007 2007 2007 2007 2007 2007 2007 2007 
2007 2007 2007 2007 2007 2007 2007 2007 2007 
2007 2007 2007 2007 2007 2007 2007 2007 2007 
2007 2007 2007 2007 2007 2007 2007 2007 2007 
2007 2007 2007 2007 2007 2007 2007 2007 2007 
2007 2007 2007 2007 2007 2007 2007 2007 2007 
2007 2007 2007 2007 2007 2007 2007 2007 2007 
2007 2007 2007 2007 2007 2007 2007 2007 2007 
2007 2007 2007 2007 2007 2007 2007 2007 2007 
2007 2007 2007 2007 2007 2007 2007 2007 2007 
2007 2007 2007 2007 2007 2007 2007 2007 2007 
2007 2007 2007 2007 2007 2007 2007 2007 2007 
2007 2007 2007 2007 2007 2007 2007 2007 2007 
2007 2007 2007 2007 2007 2007 2007 2007 2007 
2007 2007 2007 2007 2007 2007 2007 2007 2007 
2007 2007 2007 2007 2007 2007 2007 2007 2007 
2007 2007 2007 2007 2007 2007 2007 2007 2007 
2007 2007 2007 2007 2007 2007 2007 2007 2007 
2007 2007 2007 2007 2007 2007 2007 2007 2007 
2007 2007 2007 2007 2007 2007 2007 2007 2007 
2007 2007 2007 2007 2007 2007 2007 2007 2007 
2007 2007 2007 2007 2007 2007 2007 2007 2007 
2007 2007 2007 2007 2007 2007 2007 2007 2007 
2007 2007 2007 2007 2007 2007 2007 2007 2007 
2007 2007 2007 2007 2007 2007 2007 2007 2007 
2007 2007 2007 2007 2007 2007 2007 2007 2007 
2007 2007 2007 2007 2007 2007 2007 2007 2007 
2007 2007 2007 2007 2007 2007 2007 2007 2007 
2007 2007 2007 2007 2007 2007 2007 2007 2007 
2007 2007 2007 2007 2007 2007 2007 2007 2007 
2007 2007 2007 2007 2007 2007 2007 2007 2007 
2007 2007 2007 2007 2007 2007 2007 2007 2007 
2007 2007 2007 2007 2007 2007 2007 2007 2007 
2007 2007 2007 2007 2007 2007 2007 2007 2007 
2007 2007 2007 2007 2007 2007 2007 2007 2007 
2007 2007 2007 2007 2007 2007 2007 2007 2007 
2007 2007 2007 2007 2007 2007 2007 2007 2007 
2007 2007 2007 2007 2007 2007 2007 2007 2007 
2007 2007 2007 2007 2007 2007 2007 2007 2007 
2007 2007 2007 2007 2007 2007 2007 2007 2007 
2007 2007 2007 2007 2007 2007 2007 2007 2007 
2007 2007 2007 2007 2007 2007 2007 2007 2007 
2007 2007 2007 2007 2007 2007 2007 2007 2007 
2007 2007 2007 2007 2007 2007 2007 2007 2007 
2007 2007 2007 2007 2007 2007 2007 2007 2007 
2007 2007 2007 2007 2007 2007 2007 2007 2007 
2007 2007 2007 2007 2007 2007 2007 2007 2007 
2007 2007 2007 2007 2007 2007 2007 2007 2007 
2007 2007 2007 2007 2007 2007 2007 2007 2007 
2007 2007 2007 2007 2007 2007 2007 2007 2007 
2007 2007 2007 2007 2007 2007 2007 2007 2007 
2007 2007 2007 2007 2007 2007 2007 2007 2007 
2007 2007 2007 2007 2007 2007 2007 2007 2007 
2007 2007 2007 2007 2007 2007 2007 2007 2007 
2007 2007 2007 2007 2007 2007 2007 2007 2007 
2007 2007 2007 2007 2007 2007 2007 2007 2007 
2007 2007 2007 2007 2007 2007 2007 2007 2007 
2007 2007 2007 2007 2007 2007 2007 2007 2007 
2007 2007 2007 2007 2007 2007 2007 2007 2007 
2007 2007 2007 2007 2007 2007 2007 2007 2007 
2007 2007 2007 2007 2007 2007 2007 2007 2007 
2007 2007 2007 2007 2007 2007 2007 2007 2007 
2007 2007 2007 2007 2007 2007 2007 2007 2007 
2007 2007 2007 2007 2007 2007 2007 2007 2007 
2007 2007 2007 2007 2007 2007 2007 2007 2007 
2007 2007 2007 2007 2007 2007 2007 2007 2007 
2007 2007 2007 2007 2007 2007 2007 2007 2007 
2007 2007 2007 2007 2007 2007 2007 2007 2007 
2007 2007 2007 2007 2007 2007 2007 2007 2007 
2007 2007 2007 2007 2007 2007 2007 2007 2007 
2007 2007 2007 2007 2007 2007 2007 2007 2007 
2007 2007 2007 2007 2007 2007 2007 2007 2007 
2007 2007 2007 2007 2007 2007 2007 2007 2007 
2007 2007 2007 2007 2007 2007 2007 2007 2007 
2007 2007 2007 2007 2007 2007 2007 2007 2007 
2007 2007 2007 2007 2007 2007 2007 2007 2007 
2007 2007 2007 2007 2007 2007 2007 2007 2007 
2007 2007 2007 2007 2007 2007 2007 2007 2007 
2007 2007 2007 2007 2007 2007 2007 2007 2007 
2007 2007 2007 2007 2007 2007 2007 2007 2007 
2007 2007 2007 2007 2007 2007 2007 2007 2007 
2007 2007 2007 2007 2007 2007 2007 2007 2007 
2007 2007 2007 2007 2007 2007 2007 2007 2007 
2007 2007 2007 2007 2007 2007 2007 2007 2007 
2007 2007 2007 2007 2007 2007 2007 2007 2007 
2007 2007 2007 2007 2007 2007 2007 2007 2007 
2007 2007 2007 2007 2007 2007 2007 2007 2007 
2007 2007 2007 2007 2007 2007 2007 2007 2007 
2007 2007 2007 2007 2007 2007 2007 2007 2007 
2007 2007 2007 2007 2007 2007 2007 2007 2007 
2007 2007 2007 2007 2007 2007 2007 2007 2007 
2007 2007 2007 2007 2007 2007 2007 2007 2007 
2007 2007 2007 2007 2007 2007 2007 2007 2007 
2007 2007 2007 2007 2007 2007 2007 2007 2007 
2007 2007 2007 2007 2007 2007 2007 2007 2007 
2007 2007 2007 2007 2007 2007 2007 2007 2007 
2007 2007 2007 2007 2007 2007 2007 2007 2007 
2007 2007 2007 2007 2007 2007 2007 2007 2007 
2007 2007 2007 2007 2007 2007 2007 2007 2007 
2007 2007 2007 2007 2007 2007 2007 2007 2007 
2007 2007 2007 2007 2007 2007 2007 2007 2007 
2007 2007 2007 2007 2007 2007 2007 2007 2007 
2007 2007 2007 2007 2007 2007 2007 2007 2007 
2007 2007 2007 2007 2007 2007 2007 2007 2007 
2007 2007 2007 2007 2007 2007 2007 2007 2007 
2007 2007 2007 2007 2007 2007 2007 2007 2007 
2007 2007 2007 2007 2007 2007 2007 2007 2007 
2007 2007 2007 2007 2007 2007 2007 2007 2007 
2007 2007 2007 2007 2007 2007 2007 2007 2007 
2007 2007 2007 2007 2007 2007 2007 2007 2007 
2007 2007 2007 2007 2007 2007 2007 2007 2007 
2007 2007 2007 2007 2007 2007 2007 2007 2007 
2007 2007 2007 2007 2007 2007 2007 2007 2007 
2007 2007 2007 2007 2007 2007 2007 2007 2007 
2007 2007 2007 2007 2007 2007 2007 2007 2007 
2007 2007 2007 2007 2007 2007 2007 2007 2007 
2007 2007 2007 2007 2007 2007 2007 2007 2007 
2007 2007 2007 2007 2007 2007 2007 2007 2007 
2007 2007 2007 2007 2007 2007 2007 2007 2007 
2007 2007 2007 2007 2007 2007 2007 2007 2007 
2007 2007 2007 2007 2007 2007 2007 2007 2007 
2007 2007 2007 2007 2007 2007 2007 2007 2007 
2007 2007 2007 2007 2007 2007 2007 2007 2007 
2007 2007 2007 2007 2007 2007 2007 2007 2007 
2007 2007 2007 2007 2007 2007 2007 2007 2007 
2007 2007 2007 2007 2007 2007 2007 2007 2007 
2007 2007 2007 2007 2007 2007 2007 2007 2007 
2007 2007 2007 2007 2007 2007 2007 2007 2007 
2007 2007 2007 2007 2007 2007 2007 2007 2007 
2007 2007 2007 2007 2007 2007 2007 2007 2007 
2007 2007 2007 2007 2007 2007 2007 2007 2007 
2007 2007 2007 2007 2007 2007 2007 2007 2007 
2007 2007 2007 2007 2007 2007 2007 2007 2007 
2007 2007 2007 2007 2007 2007 2007 2007 2007 
2007 2007 2007 2007 2007 2007 2007 2007 2007 
2007 2007 2007 2007 2007 2007 2007 2007 2007 
2007 2007 2007 2007 2007 2007 2007 2007 2007 
2007 2007 2007 2007 2007 2007 2007 2007 2007 
2007 2007 2007 2007 2007 2007 2007 2007 2007 
2007 2007 2007 2007 2007 2007 2007 2007 2007 
2007 2007 2007 2007 2007 2007 2007 2007 2007 
2007 2007 2007 2007 2007 2007 2007 2007 2007 
2007 2007 2007 2007 2007 2007 2007 2007 2007 
2007 2007 2007 2007 2007 2007 2007 2007 2007 
2007 2007 2007 2007 2007 2007 2007 2007 2007 
2007 2007 2007 2007 2007 2007 2007 2007 2007 
2007 2007 2007 2007 2007 2007 2007 2007 2007 
2007 2007 2007 2007 2007 2007 2007 2007 2007 
2007 2007 2007 2007 2007 2007 2007 2007 2007 
2007 2007 2007 2007 2007 2007 2007 2007 2007 
2007 2007 2007 2007 2007 2007 2007 2007 2007 
2007 2007 2007 2007 2007 2007 2007 2007 2007 
2007 2007 2007 2007 2007 2007 2007 2007 2007 
2007 2007 2007 2007 2007 2007 2007 2007 2007 
2007 2007 2007 2007 2007 2007 2007 2007 2007 
2007 2007 2007 2007 2007 2007 2007 2007 2007 
2007 2007 2007 2007 2007 2007 2007 2007 2007 
2007 2007 2007 2007 2007 2007 2007 2007 2007 
2007 2007 2007 2007 2007 2007 2007 2007 2007 
2007 2007 2007 2007 2007 2007 2007 2007 2007 
2007 2007 2007 2007 2007 2007 2007 2007 2007 
2007 2007 2007 2007 2007 2007 2007 2007 2007 
2007 2007 2007 2007 2007 2007 2007 2007 2007 
2007 2007 2007 2007 2007 2007 2007 2007 2007 
2007 2007 2007 2007 2007 2007 2007 2007 2007 
2007 2007 2007 2007 2007 2007 2007 2007 2007 
2007 2007 2007 2007 2007 2007 2007 2007 2007 
2007 2007 2007 2007 2007 2007 2007 2007 2007 
2007 2007 2007 2007 2007 2007 2007 2007 2007 
2007 2007 2007 2007 2007 2007 2007 2007 2007 
2007 2007 2007 2007 2007 2007 2007 2007 2007 
2007 2007 2007 2007 2007 2007 2007 2007 2007 
2007 2007 2007 2007 2007 2007 2007 2007 2007 
2007 2007 2007 2007 2007 2007 2007 2007 2007 
2007 2007 2007 2007 2007 2007 2007 2007 2007 
2007 2007 2007 2007 2007 2007 2007 2007 2007 
2007 2007 2007 2007 2007 2007 2007 2007 2007 
2007 2007 2007 2007 2007 2007 2007 2007 2007 
2007 2007 2007 2007 2007 2007 2007 2007 2007 
2007 2007 2007 2007 2007 2007 2007 2007 2007 
2007 2007 2007 2007 2007 2007 2007 2007 2007 
2007 2007 2007 2007 2007 2007 2007 2007 2007 
2007 2007 2007 2007 2007 2007 2007 2007 2007 
2007 2007 2007 2007 2007 2007 2007 2007 2007 
2007 2007 2007 2007 2007 2007 2007 2007 2007 
2007 2007 2007 2007 2007 2007 2007 2007 2007 
2007 2007 2007 2007 2007 2007 2007 2007 2007 
2007 2007 2007 2007 2007 2007 2007 2007 2007 
2007 2007 2007 2007 2007 2007 2007 2007 2007 
2007 2007 2007 2007 2007 2007 2007 2007 2007 
2007 2007 2007 2007 2007 2007 2007 2007 2007 
2007 2007 2007 2007 2007 2007 2007 2007 2007 
2007 2007 2007 2007 2007 2007 2007 2007 2007 
2007 2007 2007 2007 2007 2007 2007 2007 2007 
2007 2007 2007 2007 2007 2007 2007 2007 2007 
2007 2007 2007 2007 2007 2007 2007 2007 2007 
2007 2007 2007 2007 2007 2007 2007 2007 2007 
2007 2007 2007 2007 2007 2007 2007 2007 2007 
2007 2007 2007 2007 2007 2007 2007 2007 2007 
2007 2007 2007 2007 2007 2007 2007 2007 2007 
2007 2007 2007 2007 2007 2007 2007 2007 2007 
2007 2007 2007 2007 2007 2007 2007 2007 2007 
2007 2007 2007 2007 2007 2007 2007 2007 2007 
2007 2007 2007 2007 2007 2007 2007 2007 2007 
2007 2007 2007 2007 2007 2007 2007 2007 2007 
2007 2007 2007 2007 2007 2007 2007 2007 2007 
2007 2007 2007 2007 2007 2007 2007 2007 2007 
2007 2007 2007 2007 2007 2007 2007 2007 2007 
2007 2007 2007 2007 2007 2007 2007 2007 2007 
2007 2007 2007 2007 2007 2007 2007 2007 2007 
2007 2007 2007 2007 2007 2007 2007 2007 2007 
2007 2007 2007 2007 2007 2007 2007 2007 2007 
2007 2007 2007 2007 2007 2007 2007 2007 2007 
2007 2007 2007 2007 2007 2007 2007 2007 2007 
2007 2007 2007 2007 2007 2007 2007 2007 2007 
2007 2007 2007 2007 2007 2007 2007 2007 2007 
2007 2007 2007 2007 2007 2007 2007 2007 2007 
2007 2007 2007 2007 2007 2007 2007 2007 2007 
2007 2007 2007 2007 2007 2007 2007 2007 2007 
2007 2007 2007 2007 2007 2007 2007 2007 2007 
2007 2007 2007 2007 2007 2007 2007 2007 2007 
2007 2007 2007 2007 2007 2007 2007 2007 2007 
2007 2007 2007 2007 2007 2007 2007 2007 2007 
2007 2007 2007 2007 2007 2007 2007 2007 2007 
2007 2007 2007 2007 2007 2007 2007 2007 2007 
2007 2007 2007 2007 2007 2007 2007 2007 2007 
2007 2007 2007 2007 2007 2007 2007 2007 2007 
2007 2007 2007 2007 2007 2007 2007 2007 2007 
2007 2007 2007 2007 2007 2007 2007 2007 2007 
2007 2007 2007 2007 2007 2007 2007 2007 2007 
2007 2007 2007 2007 2007 2007 2007 2007 2007 
2007 2007 2007 2007 2007 2007 2007 2007 2007 
2007 2007 2007 2007 2007 2007 2007 2007 2007 
2007 2007 2007 2007 2007 2007 2007 2007 2007 
2007 2007 2007 2007 2007 2007 2007 2007 2007 
2007 2007 2007 2007 2007 2007 2007 2007 2007 
2007 2007 2007 2007 2007 2007 2007 2007 2007 
2007 2007 2007 2007 2007 2007 2007 2007 2007 
2007 2007 2007 2007 2007 2007 2007 2007 2007 
2007 2007 2007 2007 2007 2007 2007 2007 2007 
2007 2007 2007 2007 2007 2007 2007 2007 2007 
2007 2007 2007 2007 2007 2007 2007 2007 2007 
2007 2007 2007 2007 2007 2007 2007 2007 2007 
2007 2007 2007 2007 2007 2007 2007 2007 2007 
2007 2007 2007 2007 2007 2007 2007 2007 2007 
2007 2007 2007 2007 2007 2007 2007 2007 2007 
2007 2007 2007 2007 2007 2007 2007 2007 2007 
2007 2007 2007 2007 2007 2007 2007 2007 2007 
2007 2007 2007 2007 2007 2007 2007 2007 2007 