# vtk DataFile Version 4.2
vtk output
ASCII
DATASET POLYDATA
POINTS 5366 float
25.2246 -28.5403 32.9139 25.2931 -28.2623 32.6255 25.6105 -28.4456 32.6306 
24.7363 -28.6486 32.9728 24.8616 -28.3197 32.6816 24.4606 -28.46 32.6711 
25.2184 -28.8877 32.6323 25.0018 -29.0986 32.7976 24.9546 -28.9492 32.9824 
24.1656 -28.7244 32.7312 24.3006 -29.0372 32.9556 23.6052 -29.1193 32.9202 
23.5966 -28.8915 32.6881 23.1219 -29.134 32.881 23.0084 -28.9371 32.6836 
22.7052 -29.0443 32.6615 24.6353 -29.2378 32.7503 24.0282 -29.3321 32.6968 
23.4104 -29.3368 32.6911 22.8414 -29.2628 32.6019 27.6286 -27.9342 32.3286 
27.7909 -27.6124 32.1534 28.0503 -27.9597 32.104 27.0491 -27.939 32.3644 
27.3869 -27.5407 32.1519 26.4301 -27.9708 32.3575 26.6856 -27.5565 32.0722 
25.9285 -28.0387 32.3623 26.0584 -27.701 32.0399 25.6595 -27.8421 32.0311 
27.7351 -28.4976 32.3668 28.1278 -28.6543 32.1448 27.1915 -28.4857 32.4544 
26.588 -28.4911 32.4623 26.0473 -28.4918 32.491 25.4852 -28.0887 32.3009 
24.8839 -28.1155 32.1427 24.0834 -28.5332 32.3806 24.2886 -28.2911 32.1624 
23.8268 -28.4791 31.9933 27.8092 -29.0354 32.3461 28.099 -29.286 32.1441 
27.272 -29.1823 32.3897 26.7067 -29.0056 32.4497 26.1653 -29.1402 32.384 
25.6007 -29.0101 32.4012 25.1659 -29.1558 32.0197 24.8862 -28.9429 32.0248 
24.7996 -29.0977 32.4327 24.5989 -29.0434 31.9267 23.5908 -28.7092 32.1784 
22.9566 -28.8118 32.1324 22.4244 -29.1117 32.3959 22.3395 -28.9231 32.1397 
22.1418 -29.107 32.1477 27.7492 -29.5284 32.2784 28.0309 -29.6788 32.1266 
27.4358 -29.6436 32.2035 27.0846 -29.5901 32.2041 26.8764 -29.8366 32.0034 
26.6453 -29.5113 32.2864 26.2236 -29.6329 32.172 25.7977 -29.4828 32.1426 
25.4509 -29.3583 32.1109 24.3047 -29.4126 32.1185 23.5854 -29.5219 32.2326 
22.9569 -29.495 32.2328 22.3804 -29.3201 32.1891 27.8641 -29.8823 32.0002 
26.4202 -29.8467 31.9564 27.7681 -27.3618 31.8471 27.8465 -27.0617 31.3317 
28.1713 -27.3466 31.5867 27.0612 -27.2554 31.8427 27.1892 -27.031 31.457 
26.5566 -27.3024 31.7369 26.6221 -27.0829 31.4467 26.2389 -27.2227 31.4375 
28.2991 -27.7323 31.7522 28.417 -27.5693 31.5413 28.6436 -27.9744 31.4878 
26.1272 -27.4497 31.6853 25.1965 -27.8913 31.8441 25.4841 -27.5902 31.541 
24.722 -27.9463 31.6794 24.8362 -27.731 31.4045 24.4299 -27.8588 31.3767 
28.4232 -28.3278 31.8216 28.725 -28.6671 31.517 24.3115 -28.0703 31.6573 
23.489 -28.5596 31.7168 23.778 -28.2473 31.5815 23.3256 -28.4242 31.4238 
28.4231 -28.9829 31.8325 28.7088 -29.2825 31.5112 24.8696 -29.0217 31.588 
24.7056 -28.9518 31.5771 24.6028 -29.195 31.6079 23.0871 -28.68 31.6411 
22.5137 -28.7062 31.589 21.94 -28.8032 31.5483 21.8091 -29.2792 31.8447 
21.4797 -28.9989 31.3187 28.3372 -29.6105 31.8267 28.6415 -29.6796 31.5133 
27.3477 -29.8905 31.9958 26.012 -29.775 31.9175 25.4157 -29.624 31.793 
24.8952 -29.292 31.576 24.7635 -29.6358 31.6791 24.2815 -29.7794 31.7426 
23.7454 -29.7515 31.8127 23.1434 -29.7455 31.8202 22.4425 -29.6621 31.8363 
21.8537 -29.7488 31.7547 21.249 -29.4166 31.5417 21.3391 -29.7141 31.7005 
20.908 -29.6167 31.4259 28.4003 -30.0251 31.5115 27.7568 -30.2146 31.7428 
28.045 -30.4386 31.4841 27.1783 -30.2069 31.7158 26.5878 -30.1087 31.6083 
26.8823 -30.2977 31.5219 25.9028 -29.9945 31.4797 25.2074 -29.9248 31.3977 
24.6159 -29.9519 31.3955 24.0243 -29.9678 31.4188 23.4848 -29.9415 31.4858 
23.0153 -29.8946 31.4136 22.308 -29.8916 31.4668 21.5948 -29.9835 31.4693 
21.0087 -29.9486 31.3765 27.5861 -30.562 31.512 27.1247 -30.5003 31.4661 
28.4638 -27.382 31.3057 28.3865 -27.0437 30.8053 28.791 -27.3435 30.9831 
27.694 -26.9475 30.8118 27.1787 -26.9401 30.9213 26.5864 -26.9596 30.933 
25.7911 -27.28 31.2592 26.012 -27.0415 30.9504 25.3458 -27.3321 31.1007 
25.426 -27.1038 30.8239 25.0488 -27.2339 30.8036 28.9047 -27.7564 31.1394 
29.0721 -27.5123 30.8265 29.2038 -27.9235 30.8306 24.932 -27.4725 31.0581 
23.9955 -27.8899 31.2372 24.3606 -27.5868 31.0022 23.4122 -28.0144 31.1764 
23.6656 -27.5831 30.8406 22.8483 -28.0514 31.0635 23.0596 -27.7229 30.8244 
22.6583 -27.8653 30.7963 29.0039 -28.3478 31.2058 29.3288 -28.5787 30.8537 
22.926 -28.4166 31.2976 22.3362 -28.1113 30.8614 22.3039 -28.4315 31.1976 
21.7723 -28.599 31.1975 21.9184 -28.3376 30.9278 21.5135 -28.5191 30.8902 
29.023 -28.9883 31.2132 29.3262 -29.2732 30.9216 24.7406 -29.0619 31.3901 
21.3251 -28.9533 30.9156 20.5906 -29.2988 31.0667 20.5477 -29.0188 30.8832 
20.7055 -29.0757 30.8996 20.4316 -29.2307 30.8467 28.9469 -29.5987 31.208 
29.2606 -29.6587 30.911 22.798 -29.7357 31.1845 23.2494 -29.7689 31.0155 
22.965 -29.4852 30.8215 22.4593 -29.5293 30.8461 22.3621 -29.7644 31.1377 
22.0768 -29.6828 30.8108 20.9737 -29.2963 30.9134 20.6118 -29.7344 31.2149 
20.4228 -29.5748 30.9394 29.0108 -30.016 30.9181 28.4145 -30.4244 31.2222 
28.7386 -30.5076 30.9135 26.7213 -30.4632 31.3399 26.1955 -30.3941 31.1725 
25.7429 -30.2394 31.0045 25.357 -30.1387 30.9845 24.7472 -30.0983 30.8582 
24.2665 -30.0409 30.9905 23.6802 -29.9582 31.0125 21.8183 -29.9416 30.9976 
21.2425 -30.0713 31.0231 20.7402 -29.9084 30.8396 28.4021 -30.7782 31.0808 
28.6167 -30.8405 30.9113 27.955 -30.8204 31.2254 27.2313 -30.8391 31.2301 
26.6192 -30.8356 31.0932 26.2082 -30.9281 30.812 25.889 -30.5352 30.8668 
28.3606 -31.1416 30.8339 27.6281 -31.2318 30.9454 27.0121 -31.2228 30.9256 
26.5777 -31.2048 30.8369 28.9416 -27.212 30.6747 28.8601 -27.0651 30.2088 
29.2083 -27.4318 30.4493 28.3003 -26.9503 30.2051 27.7864 -26.9469 30.3015 
27.1692 -26.9545 30.3242 26.6523 -26.9614 30.4217 26.0016 -27.0353 30.2367 
25.4004 -26.9755 30.3131 24.6019 -27.2691 30.6618 24.8291 -27.0384 30.3391 
24.0446 -27.2826 30.6102 24.1785 -27.0554 30.2339 23.5546 -27.3087 30.5197 
23.6251 -27.1006 30.2323 23.2416 -27.238 30.2248 29.4284 -27.9234 30.3891 
23.0499 -27.479 30.3922 22.3002 -27.9271 30.5596 22.5738 -27.7085 30.4278 
22.0876 -27.782 30.1994 21.237 -28.0851 30.4914 21.1528 -27.7547 30.2499 
21.4527 -27.7696 30.2126 20.9816 -27.8637 30.1841 29.5885 -28.4484 30.5251 
29.666 -28.1349 30.2235 29.8037 -28.5405 30.2525 21.8089 -28.063 30.5281 
21.1934 -28.6604 30.6247 20.8605 -28.3146 30.2313 29.6249 -28.9664 30.6273 
29.854 -29.105 30.2443 24.6852 -29.0227 30.4714 25.0868 -29.1021 30.259 
24.8505 -28.8839 30.1634 24.1944 -28.8659 30.2932 24.1268 -29.1294 30.5126 
23.5732 -28.8624 30.2875 23.4945 -29.0773 30.556 23.017 -28.9 30.269 
23.032 -29.1814 30.5582 22.6391 -29.0305 30.245 21.1775 -29.0469 30.6909 
20.9272 -29.0747 30.3159 20.6203 -29.1525 30.7885 29.5513 -29.5833 30.6191 
29.8251 -29.7467 30.1214 24.7472 -29.2476 30.2542 24.2272 -29.4655 30.2443 
23.6396 -29.5413 30.6181 23.9939 -29.6977 30.2733 22.444 -29.2807 30.3949 
21.8704 -29.5102 30.3254 21.7008 -29.7674 30.5265 21.4217 -29.7034 30.1633 
20.9216 -29.6631 30.3497 20.5805 -29.5328 30.7067 29.473 -30.0572 30.4272 
29.1117 -30.3271 30.6074 29.3706 -30.496 30.3111 25.5177 -30.4616 30.7432 
25.0015 -30.4323 30.5716 24.5453 -30.2026 30.3287 24.1205 -29.9469 30.4929 
21.2513 -29.9215 30.4737 28.9429 -30.7753 30.6049 29.2663 -30.8335 30.2983 
25.8289 -30.813 30.6641 25.4213 -30.8428 30.4939 24.9522 -30.7213 30.1724 
24.7563 -30.4767 30.2985 29.0046 -31.1901 30.3141 28.3607 -31.5562 30.535 
28.6574 -31.6127 30.2844 27.8932 -31.5293 30.7173 27.3447 -31.6243 30.6338 
26.7845 -31.5089 30.5872 26.3835 -31.3965 30.449 25.8861 -31.2071 30.2678 
25.2433 -31.106 30.1511 28.2897 -31.8761 30.3675 28.03 -32.2056 30.2844 
27.8534 -31.9188 30.4906 27.4206 -32.0261 30.3632 26.9814 -31.8496 30.2165 
26.598 -31.6584 30.1788 27.681 -32.2812 30.2751 28.9166 -27.0671 29.5427 
29.3121 -27.381 29.8727 28.3901 -26.9713 29.6763 27.7813 -26.9726 29.7033 
27.2543 -26.977 29.8128 26.5863 -27.0851 29.8339 26.0636 -27.2604 29.8739 
26.3128 -27.3572 29.615 25.7788 -27.2455 29.7807 25.3789 -27.0424 29.6517 
24.7944 -26.9531 29.7103 24.1798 -26.9682 29.7012 23.5757 -26.9876 29.7093 
22.8755 -27.3245 29.9671 23.0522 -27.1015 29.7393 22.6277 -27.2767 29.589 
21.7682 -27.4935 29.8776 21.7788 -27.235 29.6429 21.9244 -27.3314 29.5968 
21.6319 -27.3288 29.5972 29.5834 -27.7775 29.9562 29.6097 -27.6078 29.4977 
29.791 -28.0388 29.8159 26.0139 -27.4536 29.5412 22.3473 -27.4907 29.8212 
21.7673 -27.8021 30.1829 21.2182 -27.5934 29.7335 20.7587 -27.8826 29.7847 
29.9163 -28.5028 29.7352 20.562 -28.1926 29.8317 20.5488 -28.677 29.9755 
20.3326 -28.3559 29.5472 29.931 -29.1055 29.7107 27.1186 -29.0381 29.8936 
27.4204 -29.2421 29.6244 27.1902 -28.8885 29.5805 26.6517 -28.84 29.7037 
26.6411 -29.0726 29.926 26.0282 -28.8557 29.69 26.0268 -29.0793 29.9038 
25.342 -28.8522 29.745 25.4663 -29.0779 30.0154 24.6859 -28.7962 29.6475 
24.1961 -28.7916 29.7436 23.595 -28.7779 29.7552 22.9885 -28.7799 29.7471 
22.4406 -28.8924 29.7459 22.2834 -29.105 29.9691 22.0224 -29.0635 29.5895 
20.5993 -29.2738 29.9292 20.3026 -28.9569 29.623 29.9218 -29.6238 29.6264 
27.074 -29.3668 29.7898 26.4975 -29.4044 29.7672 25.8775 -29.389 29.7436 
25.2466 -29.3678 29.8432 24.6717 -29.5033 29.8509 24.3273 -29.8114 30.0329 
24.6194 -29.7883 29.7189 21.8216 -29.2906 29.7738 21.0956 -29.5196 29.8287 
21.1617 -29.7515 30.073 20.7047 -29.7389 29.6001 20.6431 -29.6861 29.8112 
20.4062 -29.5536 29.6692 29.6785 -30.2765 30.115 29.8634 -30.2475 29.7207 
24.6822 -30.2192 29.9606 24.9961 -30.338 29.5141 24.7858 -29.9806 29.6529 
24.2326 -30.1373 29.6412 24.4144 -30.2547 29.6891 24.1683 -30.2881 29.8325 
24.0304 -30.2457 29.6163 20.5409 -29.833 29.6983 29.5634 -30.7717 30.0204 
29.8164 -30.9402 29.5234 24.7779 -30.7827 29.7976 24.8225 -30.9927 29.9525 
24.2461 -30.4222 29.5526 24.684 -30.9488 29.7294 29.4696 -31.2365 29.8404 
29.0142 -31.5796 30.0248 29.3533 -31.7067 29.6077 26.2366 -31.6074 29.7392 
25.8457 -31.3292 29.6246 25.4684 -31.1973 29.8516 24.9635 -31.0724 29.7594 
28.9299 -32.0613 29.8828 29.1888 -32.2334 29.5433 28.4709 -32.0705 30.1325 
27.2683 -32.3089 30.0521 26.8579 -32.1106 29.8153 26.5983 -31.8773 29.7389 
28.9033 -32.4581 29.7589 28.7115 -32.7165 29.7301 28.5312 -32.5351 29.9081 
27.8804 -32.5838 30.0172 27.3121 -32.7132 29.863 26.9069 -32.5228 29.7099 
[...]
CELL_DATA 10752
SCALARS scalars float
LOOKUP_TABLE default
2020 2020 2020 2020 2020 2020 2020 2020 2020 
2020 2020 2020 2020 2020 2020 2020 2020 2020 
2020 2020 2020 2020 2020 2020 2020 2020 2020 
2020 2020 2020 2020 2020 2020 2020 2020 2020 
2020 2020 2020 2020 2020 2020 2020 2020 2020 
2020 2020 2020 2020 2020 2020 2020 2020 2020 
2020 2020 2020 2020 2020 2020 2020 2020 2020 
2020 2020 2020 2020 2020 2020 2020 2020 2020 
2020 2020 2020 2020 2020 2020 2020 2020 2020 
2020 2020 2020 2020 2020 2020 2020 2020 2020 
2020 2020 2020 2020 2020 2020 2020 2020 2020 
2020 2020 2020 2020 2020 2020 2020 2020 2020 
2020 2020 2020 2020 2020 2020 2020 2020 2020 
2020 2020 2020 2020 2020 2020 2020 2020 2020 
2020 2020 2020 2020 2020 2020 2020 2020 2020 
2020 2020 2020 2020 2020 2020 2020 2020 2020 
2020 2020 2020 2020 2020 2020 2020 2020 2020 
2020 2020 2020 2020 2020 2020 2020 2020 2020 
2020 2020 2020 2020 2020 2020 2020 2020 2020 
2020 2020 2020 2020 2020 2020 2020 2020 2020 
2020 2020 2020 2020 2020 2020 2020 2020 2020 
2020 2020 2020 2020 2020 2020 2020 2020 2020 
2020 2020 2020 2020 2020 2020 2020 2020 2020 
2020 2020 2020 2020 2020 2020 2020 2020 2020 
2020 2020 2020 2020 2020 2020 2020 2020 2020 
2020 2020 2020 2020 2020 2020 2020 2020 2020 
2020 2020 2020 2020 2020 2020 2020 2020 2020 
2020 2020 2020 2020 2020 2020 2020 2020 2020 
2020 2020 2020 2020 2020 2020 2020 2020 2020 
2020 2020 2020 2020 2020 2020 2020 2020 2020 
2020 2020 2020 2020 2020 2020 2020 2020 2020 
2020 2020 2020 2020 2020 2020 2020 2020 2020 
2020 2020 2020 2020 2020 2020 2020 2020 2020 
2020 2020 2020 2020 2020 2020 2020 2020 2020 
2020 2020 2020 2020 2020 2020 2020 2020 2020 
2020 2020 2020 2020 2020 2020 2020 2020 2020 
2020 2020 2020 2020 2020 2020 2020 2020 2020 
2020 2020 2020 2020 2020 2020 2020 2020 2020 
2020 2020 2020 2020 2020 2020 2020 2020 2020 
2020 2020 2020 2020 2020 2020 2020 2020 2020 
2020 2020 2020 2020 2020 2020 2020 2020 2020 
2020 2020 2020 2020 2020 2020 2020 2020 2020 
2020 2020 2020 2020 2020 2020 2020 2020 2020 
2020 2020 2020 2020 2020 2020 2020 2020 2020 
2020 2020 2020 2020 2020 2020 2020 2020 2020 
2020 2020 2020 2020 2020 2020 2020 2020 2020 
2020 2020 2020 2020 2020 2020 2020 2020 2020 
2020 2020 2020 2020 2020 2020 2020 2020 2020 
2020 2020 2020 2020 2020 2020 2020 2020 2020 
2020 2020 2020 2020 2020 2020 2020 2020 2020 
2020 2020 2020 2020 2020 2020 2020 2020 2020 
2020 2020 2020 2020 2020 2020 2020 2020 2020 
2020 2020 2020 2020 2020 2020 2020 2020 2020 
2020 2020 2020 2020 2020 2020 2020 2020 2020 
2020 2020 2020 2020 2020 2020 2020 2020 2020 
2020 2020 2020 2020 2020 2020 2020 2020 2020 
2020 2020 2020 2020 2020 2020 2020 2020 2020 
2020 2020 2020 2020 2020 2020 2020 2020 2020 
2020 2020 2020 2020 2020 2020 2020 2020 2020 
2020 2020 2020 2020 2020 2020 2020 2020 2020 
2020 2020 2020 2020 2020 2020 2020 2020 2020 
2020 2020 2020 2020 2020 2020 2020 2020 2020 
2020 2020 2020 2020 2020 2020 2020 2020 2020 
2020 2020 2020 2020 2020 2020 2020 2020 2020 
2020 2020 2020 2020 2020 2020 2020 2020 2020 
2020 2020 2020 2020 2020 2020 2020 2020 2020 
2020 2020 2020 2020 2020 2020 2020 2020 2020 
2020 2020 2020 2020 2020 2020 2020 2020 2020 
2020 2020 2020 2020 2020 2020 2020 2020 2020 
2020 2020 2020 2020 2020 2020 2020 2020 2020 
2020 2020 2020 2020 2020 2020 2020 2020 2020 
2020 2020 2020 2020 2020 2020 2020 2020 2020 
2020 2020 2020 2020 2020 2020 2020 2020 2020 
2020 2020 2020 2020 2020 2020 2020 2020 2020 
2020 2020 2020 2020 2020 2020 2020 2020 2020 
2020 2020 2020 2020 2020 2020 2020 2020 2020 
2020 2020 2020 2020 2020 2020 2020 2020 2020 
2020 2020 2020 2020 2020 2020 2020 2020 2020 
2020 2020 2020 2020 2020 2020 2020 2020 2020 
2020 2020 2020 2020 2020 2020 2020 2020 2020 
2020 2020 2020 2020 2020 2020 2020 2020 2020 
2020 2020 2020 2020 2020 2020 2020 2020 2020 
2020 2020 2020 2020 2020 2020 2020 2020 2020 
2020 2020 2020 2020 2020 2020 2020 2020 2020 
2020 2020 2020 2020 2020 2020 2020 2020 2020 
2020 2020 2020 2020 2020 2020 2020 2020 2020 
2020 2020 2020 2020 2020 2020 2020 2020 2020 
2020 2020 2020 2020 2020 2020 2020 2020 2020 
2020 2020 2020 2020 2020 2020 2020 2020 2020 
2020 2020 2020 2020 2020 2020 2020 2020 2020 
2020 2020 2020 2020 2020 2020 2020 2020 2020 
2020 2020 2020 2020 2020 2020 2020 2020 2020 
2020 2020 2020 2020 2020 2020 2020 2020 2020 
2020 2020 2020 2020 2020 2020 2020 2020 2020 
2020 2020 2020 2020 2020 2020 2020 2020 2020 
2020 2020 2020 2020 2020 2020 2020 2020 2020 
2020 2020 2020 2020 2020 2020 2020 2020 2020 
2020 2020 2020 2020 2020 2020 2020 2020 2020 
2020 2020 2020 2020 2020 2020 2020 2020 2020 
2020 2020 2020 2020 2020 2020 2020 2020 2020 
2020 2020 2020 2020 2020 2020 2020 2020 2020 
2020 2020 2020 2020 2020 2020 2020 2020 2020 
2020 2020 2020 2020 2020 2020 2020 2020 2020 
2020 2020 2020 2020 2020 2020 2020 2020 2020 
2020 2020 2020 2020 2020 2020 2020 2020 2020 
2020 2020 2020 2020 2020 2020 2020 2020 2020 
2020 2020 2020 2020 2020 2020 2020 2020 2020 
2020 2020 2020 2020 2020 2020 2020 2020 2020 
2020 2020 2020 2020 2020 2020 2020 2020 2020 
2020 2020 2020 2020 2020 2020 2020 2020 2020 
2020 2020 2020 2020 2020 2020 2020 2020 2020 
2020 2020 2020 2020 2020 2020 2020 2020 2020 
2020 2020 2020 2020 2020 2020 2020 2020 2020 
2020 2020 2020 2020 2020 2020 2020 2020 2020 
2020 2020 2020 2020 2020 2020 2020 2020 2020 
2020 2020 2020 2020 2020 2020 2020 2020 2020 
2020 2020 2020 2020 2020 2020 2020 2020 2020 
2020 2020 2020 2020 2020 2020 2020 2020 2020 
2020 2020 2020 2020 2020 2020 2020 2020 2020 
2020 2020 2020 2020 2020 2020 2020 2020 2020 
2020 2020 2020 2020 2020 2020 2020 2020 2020 
2020 2020 2020 2020 2020 2020 2020 2020 2020 
2020 2020 2020 2020 2020 2020 2020 2020 2020 
2020 2020 2020 2020 2020 2020 2020 2020 2020 
2020 2020 2020 2020 2020 2020 2020 2020 2020 
2020 2020 2020 2020 2020 2020 2020 2020 2020 
2020 2020 2020 2020 2020 2020 2020 2020 2020 
2020 2020 2020 2020 2020 2020 2020 2020 2020 
2020 2020 2020 2020 2020 2020 2020 2020 2020 
2020 2020 2020 2020 2020 2020 2020 2020 2020 
2020 2020 2020 2020 2020 2020 2020 2020 2020 
2020 2020 2020 2020 2020 2020 2020 2020 2020 
2020 2020 2020 2020 2020 2020 2020 2020 2020 
2020 2020 2020 2020 2020 2020 2020 2020 2020 
2020 2020 2020 2020 2020 2020 2020 2020 2020 
2020 2020 2020 2020 2020 2020 2020 2020 2020 
2020 2020 2020 2020 2020 2020 2020 2020 2020 
2020 2020 2020 2020 2020 2020 2020 2020 2020 
2020 2020 2020 2020 2020 2020 2020 2020 2020 
2020 2020 2020 2020 2020 2020 2020 2020 2020 
2020 2020 2020 2020 2020 2020 2020 2020 2020 
2020 2020 2020 2020 2020 2020 2020 2020 2020 
2020 2020 2020 2020 2020 2020 2020 2020 2020 
2020 2020 2020 2020 2020 2020 2020 2020 2020 
2020 2020 2020 2020 2020 2020 2020 2020 2020 
2020 2020 2020 2020 2020 2020 2020 2020 2020 
2020 2020 2020 2020 2020 2020 2020 2020 2020 
2020 2020 2020 2020 2020 2020 2020 2020 2020 
2020 2020 2020 2020 2020 2020 2020 2020 2020 
2020 2020 2020 2020 2020 2020 2020 2020 2020 
2020 2020 2020 2020 2020 2020 2020 2020 2020 
2020 2020 2020 2020 2020 2020 2020 2020 2020 
2020 2020 2020 2020 2020 2020 2020 2020 2020 
2020 2020 2020 2020 2020 2020 2020 2020 2020 
2020 2020 2020 2020 2020 2020 2020 2020 2020 
2020 2020 2020 2020 2020 2020 2020 2020 2020 
2020 2020 2020 2020 2020 2020 2020 2020 2020 
2020 2020 2020 2020 2020 2020 2020 2020 2020 
2020 2020 2020 2020 2020 2020 2020 2020 2020 
2020 2020 2020 2020 2020 2020 2020 2020 2020 
2020 2020 2020 2020 2020 2020 2020 2020 2020 
2020 2020 2020 2020 2020 2020 2020 2020 2020 
2020 2020 2020 2020 2020 2020 2020 2020 2020 
2020 2020 2020 2020 2020 2020 2020 2020 2020 
2020 2020 2020 2020 2020 2020 2020 2020 2020 
2020 2020 2020 2020 2020 2020 2020 2020 2020 
2020 2020 2020 2020 2020 2020 2020 2020 2020 
2020 2020 2020 2020 2020 2020 2020 2020 2020 
2020 2020 2020 2020 2020 2020 2020 2020 2020 
2020 2020 2020 2020 2020 2020 2020 2020 2020 
2020 2020 2020 2020 2020 2020 2020 2020 2020 
2020 2020 2020 2020 2020 2020 2020 2020 2020 
2020 2020 2020 2020 2020 2020 2020 2020 2020 
2020 2020 2020 2020 2020 2020 2020 2020 2020 
2020 2020 2020 2020 2020 2020 2020 2020 2020 
2020 2020 2020 2020 2020 2020 2020 2020 2020 
2020 2020 2020 2020 2020 2020 2020 2020 2020 
2020 2020 2020 2020 2020 2020 2020 2020 2020 
2020 2020 2020 2020 2020 2020 2020 2020 2020 
2020 2020 2020 2020 2020 2020 2020 2020 2020 
2020 2020 2020 2020 2020 2020 2020 2020 2020 
2020 2020 2020 2020 2020 2020 2020 2020 2020 
2020 2020 2020 2020 2020 2020 2020 2020 2020 
2020 2020 2020 2020 2020 2020 2020 2020 2020 
2020 2020 2020 2020 2020 2020 2020 2020 2020 
2020 2020 2020 2020 2020 2020 2020 2020 2020 
2020 2020 2020 2020 2020 2020 2020 2020 2020 
2020 2020 2020 2020 2020 2020 2020 2020 2020 
2020 2020 2020 2020 2020 2020 2020 2020 2020 
2020 2020 2020 2020 2020 2020 2020 2020 2020 
2020 2020 2020 2020 2020 2020 2020 2020 2020 
2020 2020 2020 2020 2020 2020 2020 2020 2020 
2020 2020 2020 2020 2020 2020 2020 2020 2020 
2020 2020 2020 2020 2020 2020 2020 2020 2020 
2020 2020 2020 2020 2020 2020 2020 2020 2020 
2020 2020 2020 2020 2020 2020 2020 2020 2020 
2020 2020 2020 2020 2020 2020 2020 2020 2020 
2020 2020 2020 2020 2020 2020 2020 2020 2020 
2020 2020 2020 2020 2020 2020 2020 2020 2020 
2020 2020 2020 2020 2020 2020 2020 2020 2020 
2020 2020 2020 2020 2020 2020 2020 2020 2020 
2020 2020 2020 2020 2020 2020 2020 2020 2020 
2020 2020 2020 2020 2020 2020 2020 2020 2020 
2020 2020 2020 2020 2020 2020 2020 2020 2020 
2020 2020 2020 2020 2020 2020 2020 2020 2020 
2020 2020 2020 2020 2020 2020 2020 2020 2020 
2020 2020 2020 2020 2020 2020 2020 2020 2020 
2020 2020 2020 2020 2020 2020 2020 2020 2020 
2020 2020 2020 2020 2020 2020 2020 2020 2020 
2020 2020 2020 2020 2020 2020 2020 2020 2020 
2020 2020 2020 2020 2020 2020 2020 2020 2020 
2020 2020 2020 2020 2020 2020 2020 2020 2020 
2020 2020 2020 2020 2020 2020 2020 2020 2020 
2020 2020 2020 2020 2020 2020 2020 2020 2020 
2020 2020 2020 2020 2020 2020 2020 2020 2020 
2020 2020 2020 2020 2020 2020 2020 2020 2020 
2020 2020 2020 2020 2020 2020 2020 2020 2020 
2020 2020 2020 2020 2020 2020 2020 2020 2020 
2020 2020 2020 2020 2020 2020 2020 2020 2020 
2020 2020 2020 2020 2020 2020 2020 2020 2020 
2020 2020 2020 2020 2020 2020 2020 2020 2020 
2020 2020 2020 2020 2020 2020 2020 2020 2020 
2020 2020 2020 2020 2020 2020 2020 2020 2020 
2020 2020 2020 2020 2020 2020 2020 2020 2020 
2020 2020 2020 2020 2020 2020 2020 2020 2020 
2020 2020 2020 2020 2020 2020 2020 2020 2020 
2020 2020 2020 2020 2020 2020 2020 2020 2020 
2020 2020 2020 2020 2020 2020 2020 2020 2020 
2020 2020 2020 2020 2020 2020 2020 2020 2020 
2020 2020 2020 2020 2020 2020 2020 2020 2020 
2020 2020 2020 2020 2020 2020 2020 2020 2020 
2020 2020 2020 2020 2020 2020 2020 2020 2020 
2020 2020 2020 2020 2020 2020 2020 2020 2020 
2020 2020 2020 2020 2020 2020 2020 2020 2020 
2020 2020 2020 2020 2020 2020 2020 2020 2020 
2020 2020 2020 2020 2020 2020 2020 2020 2020 
2020 2020 2020 2020 2020 2020 2020 2020 2020 
2020 2020 2020 2020 2020 2020 2020 2020 2020 
2020 2020 2020 2020 2020 2020 2020 2020 2020 
2020 2020 2020 2020 2020 2020 2020 2020 2020 
2020 2020 2020 2020 2020 2020 2020 2020 2020 
2020 2020 2020 2020 2020 2020 2020 2020 2020 
2020 2020 2020 2020 2020 2020 2020 2020 2020 
2020 2020 2020 2020 2020 2020 2020 2020 2020 
2020 2020 2020 2020 2020 2020 2020 2020 2020 
2020 2020 2020 2020 2020 2020 2020 2020 2020 
2020 2020 2020 2020 2020 2020 2020 2020 2020 
2020 2020 2020 2020 2020 2020 2020 2020 2020 
2020 2020 2020 2020 2020 2020 2020 2020 2020 
2020 2020 2020 2020 2020 2020 2020 2020 2020 
2020 2020 2020 2020 2020 2020 2020 2020 2020 
2020 2020 2020 2020 2020 2020 2020 2020 2020 
2020 2020 2020 2020 2020 2020 2020 2020 2020 
2020 2020 2020 2020 2020 2020 2020 2020 2020 
2020 2020 2020 2020 2020 2020 2020 2020 2020 
2020 2020 2020 2020 2020 2020 2020 2020 2020 
2020 2020 2020 2020 2020 2020 2020 2020 2020 
2020 2020 2020 2020 2020 2020 2020 2020 2020 
2020 2020 2020 2020 2020 2020 2020 2020 2020 
2020 2020 2020 2020 2020 2020 2020 2020 2020 
2020 2020 2020 2020 2020 2020 2020 2020 2020 
2020 2020 2020 2020 2020 2020 2020 2020 2020 
2020 2020 2020 2020 2020 2020 2020 2020 2020 
2020 2020 2020 2020 2020 2020 2020 2020 2020 
2020 2020 2020 2020 2020 2020 2020 2020 2020 
2020 2020 2020 2020 2020 2020 2020 2020 2020 
2020 2020 2020 2020 2020 2020 2020 2020 2020 
2020 2020 2020 2020 2020 2020 2020 2020 2020 
2020 2020 2020 2020 2020 2020 2020 2020 2020 
2020 2020 2020 2020 2020 2020 2020 2020 2020 
2020 2020 2020 2020 2020 2020 2020 2020 2020 
2020 2020 2020 2020 2020 2020 2020 2020 2020 
2020 2020 2020 2020 2020 2020 2020 2020 2020 
2020 2020 2020 2020 2020 2020 2020 2020 2020 
2020 2020 2020 2020 2020 2020 2020 2020 2020 
2020 2020 2020 2020 2020 2020 2020 2020 2020 
2020 2020 2020 2020 2020 2020 2020 2020 2020 
2020 2020 2020 2020 2020 2020 2020 2020 2020 
2020 2020 2020 2020 2020 2020 2020 2020 2020 
2020 2020 2020 2020 2020 2020 2020 2020 2020 
2020 2020 2020 2020 2020 2020 2020 2020 2020 
2020 2020 2020 2020 2020 2020 2020 2020 2020 
2020 2020 2020 2020 2020 2020 2020 2020 2020 
2020 2020 2020 2020 2020 2020 2020 2020 2020 
2020 2020 2020 2020 2020 2020 2020 2020 2020 
2020 2020 2020 2020 2020 2020 2020 2020 2020 
2020 2020 2020 2020 2020 2020 2020 2020 2020 
2020 2020 2020 2020 2020 2020 2020 2020 2020 
2020 2020 2020 2020 2020 2020 2020 2020 2020 
2020 2020 2020 2020 2020 2020 2020 2020 2020 
2020 2020 2020 2020 2020 2020 2020 2020 2020 
2020 2020 2020 2020 2020 2020 2020 2020 2020 
2020 2020 2020 2020 2020 2020 2020 2020 2020 
2020 2020 2020 2020 2020 2020 2020 2020 2020 
2020 2020 2020 2020 2020 2020 2020 2020 2020 
2020 2020 2020 2020 2020 2020 2020 2020 2020 
2020 2020 2020 2020 2020 2020 2020 2020 2020 
2020 2020 2020 2020 2020 2020 2020 2020 2020 
2020 2020 2020 2020 2020 2020 2020 2020 2020 
2020 2020 2020 2020 2020 2020 2020 2020 2020 
2020 2020 2020 2020 2020 2020 2020 2020 2020 
2020 2020 2020 2020 2020 2020 2020 2020 2020 
2020 2020 2020 2020 2020 2020 2020 2020 2020 
2020 2020 2020 2020 2020 2020 2020 2020 2020 
2020 2020 2020 2020 2020 2020 2020 2020 2020 
2020 2020 2020 2020 2020 2020 2020 2020 2020 
2020 2020 2020 2020 2020 2020 2020 2020 2020 
2020 2020 2020 2020 2020 2020 2020 2020 2020 
2020 2020 2020 2020 2020 2020 2020 2020 2020 
2020 2020 2020 2020 2020 2020 2020 2020 2020 
2020 2020 2020 2020 2020 2020 2020 2020 2020 
2020 2020 2020 2020 2020 2020 2020 2020 2020 
2020 2020 2020 2020 2020 2020 2020 2020 2020 
2020 2020 2020 2020 2020 2020 2020 2020 2020 
2020 2020 2020 2020 2020 2020 2020 2020 2020 
2020 2020 2020 2020 2020 2020 2020 2020 2020 
2020 2020 2020 2020 2020 2020 2020 2020 2020 
2020 2020 2020 2020 2020 2020 2020 2020 2020 
2020 2020 2020 2020 2020 2020 2020 2020 2020 
2020 2020 2020 2020 2020 2020 2020 2020 2020 
2020 2020 2020 2020 2020 2020 2020 2020 2020 
2020 2020 2020 2020 2020 2020 2020 2020 2020 
2020 2020 2020 2020 2020 2020 2020 2020 2020 
2020 2020 2020 2020 2020 2020 2020 2020 2020 
2020 2020 2020 2020 2020 2020 2020 2020 2020 
2020 2020 2020 2020 2020 2020 2020 2020 2020 
2020 2020 2020 2020 2020 2020 2020 2020 2020 
2020 2020 2020 2020 2020 2020 2020 2020 2020 
2020 2020 2020 2020 2020 2020 2020 2020 2020 
2020 2020 2020 2020 2020 2020 2020 2020 2020 
2020 2020 2020 2020 2020 2020 2020 2020 2020 
2020 2020 2020 2020 2020 2020 2020 2020 2020 
2020 2020 2020 2020 2020 2020 2020 2020 2020 
2020 2020 2020 2020 2020 2020 2020 2020 2020 
2020 2020 2020 2020 2020 2020 2020 2020 2020 
2020 2020 2020 2020 2020 2020 2020 2020 2020 
2020 2020 2020 2020 2020 2020 2020 2020 2020 
2020 2020 2020 2020 2020 2020 2020 2020 2020 
2020 2020 2020 2020 2020 2020 2020 2020 2020 
2020 2020 2020 2020 2020 2020 2020 2020 2020 
2020 2020 2020 2020 2020 2020 2020 2020 2020 
2020 2020 2020 2020 2020 2020 2020 2020 2020 
2020 2020 2020 2020 2020 2020 2020 2020 2020 
2020 2020 2020 2020 2020 2020 2020 2020 2020 
2020 2020 2020 2020 2020 2020 2020 2020 2020 
2020 2020 2020 2020 2020 2020 2020 2020 2020 
2020 2020 2020 2020 2020 2020 2020 2020 2020 
2020 2020 2020 2020 2020 2020 2020 2020 2020 
2020 2020 2020 2020 2020 2020 2020 2020 2020 
2020 2020 2020 2020 2020 2020 2020 2020 2020 
2020 2020 2020 2020 2020 2020 2020 2020 2020 
2020 2020 2020 2020 2020 2020 2020 2020 2020 
2020 2020 2020 2020 2020 2020 2020 2020 2020 
2020 2020 2020 2020 2020 2020 2020 2020 2020 
2020 2020 2020 2020 2020 2020 2020 2020 2020 
2020 2020 2020 2020 2020 2020 2020 2020 2020 
2020 2020 2020 2020 2020 2020 2020 2020 2020 
2020 2020 2020 2020 2020 2020 2020 2020 2020 
2020 2020 2020 2020 2020 2020 2020 2020 2020 
2020 2020 2020 2020 2020 2020 2020 2020 2020 
2020 2020 2020 2020 2020 2020 2020 2020 2020 
2020 2020 2020 2020 2020 2020 2020 2020 2020 
2020 2020 2020 2020 2020 2020 2020 2020 2020 
2020 2020 2020 2020 2020 2020 2020 2020 2020 
2020 2020 2020 2020 2020 2020 2020 2020 2020 
2020 2020 2020 2020 2020 2020 2020 2020 2020 
2020 2020 2020 2020 2020 2020 2020 2020 2020 
2020 2020 2020 2020 2020 2020 2020 2020 2020 
2020 2020 2020 2020 2020 2020 2020 2020 2020 
2020 2020 2020 2020 2020 2020 2020 2020 2020 
2020 2020 2020 2020 2020 2020 2020 2020 2020 
2020 2020 2020 2020 2020 2020 2020 2020 2020 
2020 2020 2020 2020 2020 2020 2020 2020 2020 
2020 2020 2020 2020 2020 2020 2020 2020 2020 
2020 2020 2020 2020 2020 2020 2020 2020 2020 
2020 2020 2020 2020 2020 2020 2020 2020 2020 
2020 2020 2020 2020 2020 2020 2020 2020 2020 
2020 2020 2020 2020 2020 2020 2020 2020 2020 
2020 2020 2020 2020 2020 2020 2020 2020 2020 
2020 2020 2020 2020 2020 2020 2020 2020 2020 
2020 2020 2020 2020 2020 2020 2020 2020 2020 
2020 2020 2020 2020 2020 2020 2020 2020 2020 
2020 2020 2020 2020 2020 2020 2020 2020 2020 
2020 2020 2020 2020 2020 2020 2020 2020 2020 
2020 2020 2020 2020 2020 2020 2020 2020 2020 
2020 2020 2020 2020 2020 2020 2020 2020 2020 
2020 2020 2020 2020 2020 2020 2020 2020 2020 
2020 2020 2020 2020 2020 2020 2020 2020 2020 
2020 2020 2020 2020 2020 2020 2020 2020 2020 
2020 2020 2020 2020 2020 2020 2020 2020 2020 
2020 2020 2020 2020 2020 2020 2020 2020 2020 
2020 2020 2020 2020 2020 2020 2020 2020 2020 
2020 2020 2020 2020 2020 2020 2020 2020 2020 
2020 2020 2020 2020 2020 2020 2020 2020 2020 
2020 2020 2020 2020 2020 2020 2020 2020 2020 
2020 2020 2020 2020 2020 2020 2020 2020 2020 
2020 2020 2020 2020 2020 2020 2020 2020 2020 
2020 2020 2020 2020 2020 2020 2020 2020 2020 
2020 2020 2020 2020 2020 2020 2020 2020 2020 
2020 2020 2020 2020 2020 2020 2020 2020 2020 
2020 2020 2020 2020 2020 2020 2020 2020 2020 
2020 2020 2020 2020 2020 2020 2020 2020 2020 
2020 2020 2020 2020 2020 2020 2020 2020 2020 
2020 2020 2020 2020 2020 2020 2020 2020 2020 
2020 2020 2020 2020 2020 2020 2020 2020 2020 
2020 2020 2020 2020 2020 2020 2020 2020 2020 
2020 2020 2020 2020 2020 2020 2020 2020 2020 
2020 2020 2020 2020 2020 2020 2020 2020 2020 
2020 2020 2020 2020 2020 2020 2020 2020 2020 
2020 2020 2020 2020 2020 2020 2020 2020 2020 
2020 2020 2020 2020 2020 2020 2020 2020 2020 
2020 2020 2020 2020 2020 2020 2020 2020 2020 
2020 2020 2020 2020 2020 2020 2020 2020 2020 
2020 2020 2020 2020 2020 2020 2020 2020 2020 
2020 2020 2020 2020 2020 2020 2020 2020 2020 
2020 2020 2020 2020 2020 2020 2020 2020 2020 
2020 2020 2020 2020 2020 2020 2020 2020 2020 
2020 2020 2020 2020 2020 2020 2020 2020 2020 
2020 2020 2020 2020 2020 2020 2020 2020 2020 
2020 2020 2020 2020 2020 2020 2020 2020 2020 
2020 2020 2020 2020 2020 2020 2020 2020 2020 
2020 2020 2020 2020 2020 2020 2020 2020 2020 
2020 2020 2020 2020 2020 2020 2020 2020 2020 
2020 2020 2020 2020 2020 2020 2020 2020 2020 
2020 2020 2020 2020 2020 2020 2020 2020 2020 
2020 2020 2020 2020 2020 2020 2020 2020 2020 
2020 2020 2020 2020 2020 2020 2020 2020 2020 
2020 2020 2020 2020 2020 2020 2020 2020 2020 
2020 2020 2020 2020 2020 2020 2020 2020 2020 
2020 2020 2020 2020 2020 2020 2020 2020 2020 
2020 2020 2020 2020 2020 2020 2020 2020 2020 
2020 2020 2020 2020 2020 2020 2020 2020 2020 
2020 2020 2020 2020 2020 2020 2020 2020 2020 