# vtk DataFile Version 4.2
vtk output
ASCII
DATASET POLYDATA
POINTS 10156 float
10.9895 4.37961 -26.0991 10.6694 4.80419 -26.6788 10.4176 4.25095 -26.4217 
11.6655 4.27193 -26.1511 11.353 4.98357 -26.6099 12.0688 4.46169 -26.6221 
10.6676 3.63826 -26.0648 10.1524 3.35154 -26.535 11.3825 3.39629 -26.0842 
12.0425 3.51044 -26.5769 15.7217 3.37168 -26.0964 15.6683 3.7785 -26.649 
15.1658 3.34704 -26.4098 16.4007 3.24705 -26.1728 16.3453 3.98086 -26.6115 
16.9366 3.68197 -26.4952 24.8612 3.54361 -26.2365 24.5307 3.8104 -26.4717 
24.3314 3.46164 -26.4385 25.7973 3.38994 -26.1519 25.3931 4.00828 -26.4033 
26.963 3.2187 -26.1524 26.6545 4.00827 -26.6486 27.327 3.25717 -26.8735 
10.7242 2.76681 -26.1959 10.2917 2.50976 -26.4612 11.3017 2.52056 -26.3787 
11.8023 2.78357 -26.5926 14.9215 2.77324 -26.1708 14.6169 2.92778 -26.7589 
14.4173 2.48622 -26.5129 15.617 2.61855 -26.1036 16.3191 2.41454 -26.6058 
16.8589 3.0708 -26.4876 24.7315 2.98533 -26.7292 25.8349 2.86009 -26.5937 
26.3491 2.25718 -26.5658 26.5053 2.61811 -26.0851 27.6522 2.87166 -26.4163 
27.4057 2.30894 -26.2097 27.8764 2.44669 -26.5013 8.91555 1.50883 -26.2452 
8.57286 1.78879 -26.4974 8.39583 1.46107 -26.4464 9.45146 1.37453 -26.2615 
9.32418 1.86139 -26.4271 10.8249 2.16462 -26.7627 9.90608 1.45571 -26.684 
14.7388 2.00539 -26.5395 15.6447 1.94173 -26.5864 26.7083 1.67953 -26.2759 
26.497 1.56158 -26.6181 27.125 1.49342 -26.453 27.5966 1.96122 -26.5912 
8.73262 1.05177 -26.5887 9.67006 0.939711 -26.5857 26.6869 1.22022 -26.5273 
12.6955 -1.59902 -26.325 12.4848 -1.20059 -26.5958 12.4905 -1.63799 -26.6663 
13.015 -1.39953 -26.6613 12.8006 -1.77895 -26.6724 12.0031 5.35365 -26.9961 
11.9435 5.78928 -27.6783 11.4225 5.37788 -27.4769 12.6682 5.31123 -27.1582 
12.4482 5.87317 -27.3506 13.0087 5.59608 -27.4942 8.79214 4.16982 -27.2465 
8.6046 4.65374 -27.7175 8.17547 4.38381 -27.4745 9.15615 4.44867 -27.9061 
10.8264 5.11566 -27.5473 10.1624 4.42472 -27.3454 12.5489 4.55914 -27.091 
13.2157 4.5624 -27.6658 17.0398 4.36477 -27.0094 16.8117 4.79527 -27.8158 
16.3685 4.46932 -27.3906 17.9752 4.35078 -27.0915 17.5078 4.84759 -27.5109 
18.9772 4.33523 -27.1133 18.3599 4.98713 -27.6625 19.9817 4.32879 -27.0996 
19.3997 4.99437 -27.5098 20.9806 4.31369 -27.1078 20.397 4.98875 -27.4897 
21.9597 4.30022 -27.1152 21.41 4.99388 -27.485 22.9384 4.32574 -27.1127 
22.4184 4.96925 -27.4869 23.8207 4.45684 -27.1326 23.4141 4.95722 -27.5028 
24.7499 4.37212 -26.9342 24.4168 4.96889 -27.491 25.9561 4.5426 -26.9343 
25.5936 5.01156 -27.5818 26.6709 4.53033 -27.0913 26.6662 4.81168 -27.616 
27.2925 4.24077 -27.7715 7.98249 3.5805 -27.1409 7.66887 3.9861 -27.7979 
7.35735 3.27549 -27.5027 8.82471 3.33745 -26.9377 9.61238 4.18668 -27.6785 
9.53023 3.6733 -27.039 12.4082 3.50709 -27.3546 12.8095 3.858 -27.6343 
15.7847 4.03403 -27.5705 15.1505 3.50092 -27.2036 17.56 3.33629 -26.8354 
18.7105 3.4246 -26.9416 19.7327 3.42783 -26.9372 20.5707 3.58308 -26.9399 
21.4264 3.35447 -27.0862 22.435 3.56231 -27.1266 23.71 3.61074 -26.9045 
27.8148 3.47393 -27.2955 27.6173 3.76454 -27.2856 27.9123 3.50392 -27.5313 
7.59505 2.68315 -27.1348 7.08649 2.40757 -27.6119 8.5077 2.48409 -26.8127 
9.81334 2.39757 -26.821 11.588 2.27211 -26.9095 12.0617 2.65589 -27.2761 
14.6159 2.98563 -27.7391 14.1533 2.35507 -27.1848 16.943 2.61229 -26.8736 
17.5053 2.42502 -27.1261 18.3802 2.53146 -27.0972 19.4275 2.52542 -27.0908 
20.5343 2.60546 -27.1321 21.2263 2.48341 -27.5067 21.9116 2.8457 -27.7618 
22.9101 3.03916 -27.629 23.8494 2.81575 -27.3815 24.4761 2.41164 -27.2646 
24.3 2.56538 -27.7295 24.8852 2.44724 -27.3453 25.4494 2.8377 -27.3592 
26.5001 2.97687 -27.299 26.775 2.30449 -26.8993 27.5304 3.34145 -27.522 
27.5237 2.43123 -26.7614 7.83229 1.7299 -26.9711 7.18585 1.60533 -27.5001 
10.7139 1.84949 -27.6829 10.1748 1.51454 -27.3593 11.5645 2.09544 -27.591 
13.9508 1.50319 -27.1297 13.5989 1.91472 -27.8268 13.4415 1.29718 -27.6442 
14.6088 1.3313 -26.8506 15.3245 1.23072 -27.0102 16.0779 1.47006 -27.4409 
16.8483 1.98835 -27.6031 17.8049 2.08913 -27.4993 18.6455 2.13446 -27.6273 
19.8424 2.07207 -27.6053 20.726 2.0608 -27.7139 24.6593 2.25834 -27.5233 
26.9763 1.60553 -26.7562 6.58949 0.423038 -27.3739 6.50283 0.84103 -27.6275 
6.37368 0.518973 -27.7665 7.73169 0.985949 -27.3885 6.93219 0.377012 -27.6617 
8.70165 0.389321 -27.1326 8.21902 0.298176 -27.5993 9.71365 0.284518 -26.9437 
10.1731 0.662495 -27.4922 12.8418 0.178811 -27.1911 12.7548 0.693314 -27.7638 
12.1743 0.347366 -27.4985 13.7917 0.85471 -27.3867 13.2022 0.514547 -27.4666 
14.1465 0.435656 -27.4749 14.5391 0.753417 -27.1872 15.3025 0.529897 -27.4402 
15.7877 0.783882 -27.6396 6.62525 0.216921 -27.5211 8.8195 -0.11142 -27.4777 
9.26564 -0.67985 -27.5783 9.62873 -0.42584 -27.1622 10.7251 0.00269046 -27.6079 
10.6582 -0.397614 -27.1112 11.7875 -0.621878 -27.1184 11.5167 0.00192639 -27.6125 
12.9226 -0.673643 -26.8783 13.5443 0.117523 -27.385 13.5196 -0.349329 -27.2021 
14.8252 0.1791 -27.8021 13.89 -0.341476 -27.6214 9.85527 -1.15787 -27.4028 
10.1131 -1.93355 -27.432 10.7805 -1.4605 -27.1393 11.4502 -1.39197 -27.4177 
11.6897 -1.22299 -27.4776 12.0968 -1.36936 -27.2001 13.6035 -1.02033 -27.5661 
13.1426 -1.65875 -27.2758 10.7063 -2.42283 -27.1813 10.2046 -2.64479 -27.5785 
11.5582 -2.00481 -27.3992 11.3925 -2.53095 -27.2407 12.6034 -1.80289 -27.5189 
11.9157 -2.48007 -27.627 10.8734 -2.98017 -27.6816 11.6964 -2.88484 -27.726 
5.80102 9.27479 -28.2317 5.72842 9.59727 -28.4208 5.53469 9.30489 -28.3462 
5.93494 9.2296 -28.7238 5.64312 8.74652 -28.2399 5.28953 8.59982 -28.6793 
6.01265 8.54202 -28.5726 5.76447 8.04409 -28.6008 13.6 7.23375 -28.2159 
13.5902 7.98028 -28.58 13.178 7.4148 -28.7303 14.0098 7.6668 -28.4882 
4.02163 6.43045 -28.1844 3.63121 7.00925 -28.6276 3.38629 6.39743 -28.7931 
4.89327 6.2102 -28.1463 4.35238 6.95223 -28.4629 5.15387 6.63222 -28.5392 
12.8451 6.36016 -28.0226 12.8032 6.72445 -28.7066 12.5169 6.27416 -28.6822 
13.7279 6.33237 -28.1006 14.2069 6.76545 -28.4359 19.8497 6.28681 -28.179 
19.7358 6.90683 -28.4912 19.1595 6.47574 -28.5058 20.9301 6.34269 -28.1603 
20.5323 7.01095 -28.6037 21.8729 6.2052 -28.2231 21.5481 6.78665 -28.6404 
22.2175 6.53407 -28.6722 3.7985 5.89351 -28.3064 4.04738 5.09829 -28.5676 
4.47227 5.6318 -28.0342 5.58192 6.03253 -28.411 5.34973 5.33167 -28.1767 
5.97313 5.58086 -28.5755 10.8318 5.3709 -28.2952 10.4486 5.64296 -28.8502 
10.2605 5.09382 -28.3887 11.6215 5.47398 -28.0118 11.1969 5.60266 -28.7441 
12.0505 5.73934 -28.4452 13.6142 5.35372 -27.9465 14.2461 5.53336 -28.5555 
18.9787 5.62613 -28.0719 18.5115 5.87449 -28.5732 18.2183 5.37434 -28.3432 
19.8067 5.50695 -27.8463 20.6513 5.63694 -27.8649 21.671 5.62531 -27.8696 
22.5694 6.12555 -28.4333 22.7541 5.58339 -27.9947 23.9126 5.46764 -27.9949 
23.3975 5.97741 -28.486 24.9555 5.46698 -28.0188 24.5672 5.98213 -28.6168 
25.8005 5.44444 -28.1783 25.6404 5.79833 -28.6633 26.3324 5.57579 -28.696 
4.69064 4.75159 -28.2027 4.37734 4.38117 -28.7039 5.2627 4.58322 -28.3827 
5.83513 4.97328 -28.5573 8.65629 4.77692 -28.3975 8.11086 4.55847 -28.1529 
9.23542 4.60802 -28.5764 9.9661 4.459 -28.2873 11.388 5.32619 -28.2266 
13.736 4.50965 -28.0839 14.005 4.64361 -28.4548 16.6583 4.80122 -28.6724 
16.1885 4.49163 -28.2634 17.4331 5.10163 -28.4649 26.5483 5.20414 -28.2597 
27.8083 4.44687 -28.2938 27.4912 4.75573 -28.4854 27.9481 4.45229 -28.5547 
4.94466 4.18891 -28.7037 7.51525 4.10558 -28.6678 7.14794 3.28672 -28.3679 
9.64086 4.30385 -28.351 12.6746 3.23531 -28.1041 13.0914 3.58819 -28.3322 
13.6753 4.01173 -28.6583 15.6866 3.96746 -28.7699 15.1783 3.49282 -28.2564 
24.6756 3.26341 -28.2369 24.1311 3.47456 -28.5497 24.6181 3.79239 -28.8981 
25.7163 3.80824 -28.6872 25.8183 3.31609 -28.0382 26.7088 3.90348 -28.4374 
26.9671 3.55347 -27.9183 27.5579 4.27545 -28.6689 27.649 3.64434 -27.7152 
6.69942 2.59302 -28.1799 6.7096 2.80972 -28.6675 6.37299 2.18071 -28.5781 
12.2411 2.57665 -28.2385 12.7231 2.9383 -28.8806 14.6702 2.9648 -28.774 
14.1051 2.48382 -28.2573 19.0224 2.36376 -28.0625 18.3449 2.35103 -28.4107 
18.6516 2.69379 -28.7479 19.3134 2.8491 -28.7024 19.7473 2.26586 -28.1543 
20.0662 2.54837 -28.5977 21.1676 2.32447 -28.1962 21.7378 2.78244 -28.6927 
22.5085 2.87233 -28.4258 23.5078 3.04196 -28.4392 24.9395 2.64935 -27.7602 
6.79246 1.47776 -27.858 6.23669 1.28092 -28.2906 10.3348 1.18336 -28.3183 
10.9301 1.70887 -28.7224 11.5825 2.03886 -28.5444 13.6124 2.0002 -28.7734 
13.2518 1.4284 -28.3306 16.3848 1.30533 -28.465 16.941 1.74022 -28.748 
17.6896 2.0553 -28.4015 20.4403 2.10039 -28.2304 6.31359 0.716293 -28.6641 
7.62194 0.383622 -27.8105 10.3156 0.397687 -28.6438 12.785 0.94281 -28.6888 
12.1611 0.506732 -28.2521 13.6807 0.46197 -27.8499 15.6046 0.297671 -27.955 
16.0209 0.661637 -28.3121 6.7541 0.0613924 -28.1267 7.65312 -0.460198 -28.0968 
7.21564 -0.408516 -28.7945 8.55119 -0.489325 -27.8576 10.794 0.0246145 -28.5349 
11.5317 0.0703733 -28.5111 14.7397 -0.147454 -28.7036 14.098 -0.502403 -28.306 
15.5876 0.0969992 -28.6086 7.83025 -1.08715 -28.506 8.22652 -1.61273 -28.7938 
8.60397 -1.4497 -28.1672 9.40156 -1.3761 -27.7818 11.9739 -1.85945 -27.7989 
13.2163 -1.59534 -28.2496 13.7502 -1.07176 -28.7783 8.80031 -2.10501 -28.4912 
9.19898 -2.6209 -28.7878 9.48186 -2.27963 -28.0143 12.4724 -2.02381 -28.7409 
12.0101 -2.53819 -28.2594 10.0102 -2.97227 -28.3998 10.6705 -3.14785 -28.4589 
11.3569 -2.94939 -28.5386 2.95315 10.4639 -29.2479 2.88331 10.7782 -29.7336 
2.53702 10.5764 -29.4834 3.59362 10.3146 -29.2019 3.57535 10.8501 -29.6199 
4.14989 10.5385 -29.6234 2.77728 10.1691 -29.5149 2.92363 9.52763 -29.5534 
3.52801 9.41058 -29.1632 4.22801 9.82494 -29.4808 5.50232 9.31141 -28.8201 
2.9822 8.61408 -29.2143 2.60319 9.06615 -29.6551 2.38149 8.34147 -29.8219 
3.80072 8.31448 -28.9871 4.76392 9.11591 -29.2613 4.57532 8.36879 -28.9924 
5.5727 9.17579 -29.4315 6.11586 8.74458 -29.5575 14.0068 8.37125 -28.9859 
13.7273 8.77199 -29.7065 13.4019 8.27128 -29.2831 14.7088 8.29044 -29.1929 
[...]
CELL_DATA 20448
SCALARS scalars float
LOOKUP_TABLE default
1013 1013 1013 1013 1013 1013 1013 1013 1013 
1013 1013 1013 1013 1013 1013 1013 1013 1013 
1013 1013 1013 1013 1013 1013 1013 1013 1013 
1013 1013 1013 1013 1013 1013 1013 1013 1013 
1013 1013 1013 1013 1013 1013 1013 1013 1013 
1013 1013 1013 1013 1013 1013 1013 1013 1013 
1013 1013 1013 1013 1013 1013 1013 1013 1013 
1013 1013 1013 1013 1013 1013 1013 1013 1013 
1013 1013 1013 1013 1013 1013 1013 1013 1013 
1013 1013 1013 1013 1013 1013 1013 1013 1013 
1013 1013 1013 1013 1013 1013 1013 1013 1013 
1013 1013 1013 1013 1013 1013 1013 1013 1013 
1013 1013 1013 1013 1013 1013 1013 1013 1013 
1013 1013 1013 1013 1013 1013 1013 1013 1013 
1013 1013 1013 1013 1013 1013 1013 1013 1013 
1013 1013 1013 1013 1013 1013 1013 1013 1013 
1013 1013 1013 1013 1013 1013 1013 1013 1013 
1013 1013 1013 1013 1013 1013 1013 1013 1013 
1013 1013 1013 1013 1013 1013 1013 1013 1013 
1013 1013 1013 1013 1013 1013 1013 1013 1013 
1013 1013 1013 1013 1013 1013 1013 1013 1013 
1013 1013 1013 1013 1013 1013 1013 1013 1013 
1013 1013 1013 1013 1013 1013 1013 1013 1013 
1013 1013 1013 1013 1013 1013 1013 1013 1013 
1013 1013 1013 1013 1013 1013 1013 1013 1013 
1013 1013 1013 1013 1013 1013 1013 1013 1013 
1013 1013 1013 1013 1013 1013 1013 1013 1013 
1013 1013 1013 1013 1013 1013 1013 1013 1013 
1013 1013 1013 1013 1013 1013 1013 1013 1013 
1013 1013 1013 1013 1013 1013 1013 1013 1013 
1013 1013 1013 1013 1013 1013 1013 1013 1013 
1013 1013 1013 1013 1013 1013 1013 1013 1013 
1013 1013 1013 1013 1013 1013 1013 1013 1013 
1013 1013 1013 1013 1013 1013 1013 1013 1013 
1013 1013 1013 1013 1013 1013 1013 1013 1013 
1013 1013 1013 1013 1013 1013 1013 1013 1013 
1013 1013 1013 1013 1013 1013 1013 1013 1013 
1013 1013 1013 1013 1013 1013 1013 1013 1013 
1013 1013 1013 1013 1013 1013 1013 1013 1013 
1013 1013 1013 1013 1013 1013 1013 1013 1013 
1013 1013 1013 1013 1013 1013 1013 1013 1013 
1013 1013 1013 1013 1013 1013 1013 1013 1013 
1013 1013 1013 1013 1013 1013 1013 1013 1013 
1013 1013 1013 1013 1013 1013 1013 1013 1013 
1013 1013 1013 1013 1013 1013 1013 1013 1013 
1013 1013 1013 1013 1013 1013 1013 1013 1013 
1013 1013 1013 1013 1013 1013 1013 1013 1013 
1013 1013 1013 1013 1013 1013 1013 1013 1013 
1013 1013 1013 1013 1013 1013 1013 1013 1013 
1013 1013 1013 1013 1013 1013 1013 1013 1013 
1013 1013 1013 1013 1013 1013 1013 1013 1013 
1013 1013 1013 1013 1013 1013 1013 1013 1013 
1013 1013 1013 1013 1013 1013 1013 1013 1013 
1013 1013 1013 1013 1013 1013 1013 1013 1013 
1013 1013 1013 1013 1013 1013 1013 1013 1013 
1013 1013 1013 1013 1013 1013 1013 1013 1013 
1013 1013 1013 1013 1013 1013 1013 1013 1013 
1013 1013 1013 1013 1013 1013 1013 1013 1013 
1013 1013 1013 1013 1013 1013 1013 1013 1013 
1013 1013 1013 1013 1013 1013 1013 1013 1013 
1013 1013 1013 1013 1013 1013 1013 1013 1013 
1013 1013 1013 1013 1013 1013 1013 1013 1013 
1013 1013 1013 1013 1013 1013 1013 1013 1013 
1013 1013 1013 1013 1013 1013 1013 1013 1013 
1013 1013 1013 1013 1013 1013 1013 1013 1013 
1013 1013 1013 1013 1013 1013 1013 1013 1013 
1013 1013 1013 1013 1013 1013 1013 1013 1013 
1013 1013 1013 1013 1013 1013 1013 1013 1013 
1013 1013 1013 1013 1013 1013 1013 1013 1013 
1013 1013 1013 1013 1013 1013 1013 1013 1013 
1013 1013 1013 1013 1013 1013 1013 1013 1013 
1013 1013 1013 1013 1013 1013 1013 1013 1013 
1013 1013 1013 1013 1013 1013 1013 1013 1013 
1013 1013 1013 1013 1013 1013 1013 1013 1013 
1013 1013 1013 1013 1013 1013 1013 1013 1013 
1013 1013 1013 1013 1013 1013 1013 1013 1013 
1013 1013 1013 1013 1013 1013 1013 1013 1013 
1013 1013 1013 1013 1013 1013 1013 1013 1013 
1013 1013 1013 1013 1013 1013 1013 1013 1013 
1013 1013 1013 1013 1013 1013 1013 1013 1013 
1013 1013 1013 1013 1013 1013 1013 1013 1013 
1013 1013 1013 1013 1013 1013 1013 1013 1013 
1013 1013 1013 1013 1013 1013 1013 1013 1013 
1013 1013 1013 1013 1013 1013 1013 1013 1013 
1013 1013 1013 1013 1013 1013 1013 1013 1013 
1013 1013 1013 1013 1013 1013 1013 1013 1013 
1013 1013 1013 1013 1013 1013 1013 1013 1013 
1013 1013 1013 1013 1013 1013 1013 1013 1013 
1013 1013 1013 1013 1013 1013 1013 1013 1013 
1013 1013 1013 1013 1013 1013 1013 1013 1013 
1013 1013 1013 1013 1013 1013 1013 1013 1013 
1013 1013 1013 1013 1013 1013 1013 1013 1013 
1013 1013 1013 1013 1013 1013 1013 1013 1013 
1013 1013 1013 1013 1013 1013 1013 1013 1013 
1013 1013 1013 1013 1013 1013 1013 1013 1013 
1013 1013 1013 1013 1013 1013 1013 1013 1013 
1013 1013 1013 1013 1013 1013 1013 1013 1013 
1013 1013 1013 1013 1013 1013 1013 1013 1013 
1013 1013 1013 1013 1013 1013 1013 1013 1013 
1013 1013 1013 1013 1013 1013 1013 1013 1013 
1013 1013 1013 1013 1013 1013 1013 1013 1013 
1013 1013 1013 1013 1013 1013 1013 1013 1013 
1013 1013 1013 1013 1013 1013 1013 1013 1013 
1013 1013 1013 1013 1013 1013 1013 1013 1013 
1013 1013 1013 1013 1013 1013 1013 1013 1013 
1013 1013 1013 1013 1013 1013 1013 1013 1013 
1013 1013 1013 1013 1013 1013 1013 1013 1013 
1013 1013 1013 1013 1013 1013 1013 1013 1013 
1013 1013 1013 1013 1013 1013 1013 1013 1013 
1013 1013 1013 1013 1013 1013 1013 1013 1013 
1013 1013 1013 1013 1013 1013 1013 1013 1013 
1013 1013 1013 1013 1013 1013 1013 1013 1013 
1013 1013 1013 1013 1013 1013 1013 1013 1013 
1013 1013 1013 1013 1013 1013 1013 1013 1013 
1013 1013 1013 1013 1013 1013 1013 1013 1013 
1013 1013 1013 1013 1013 1013 1013 1013 1013 
1013 1013 1013 1013 1013 1013 1013 1013 1013 
1013 1013 1013 1013 1013 1013 1013 1013 1013 
1013 1013 1013 1013 1013 1013 1013 1013 1013 
1013 1013 1013 1013 1013 1013 1013 1013 1013 
1013 1013 1013 1013 1013 1013 1013 1013 1013 
1013 1013 1013 1013 1013 1013 1013 1013 1013 
1013 1013 1013 1013 1013 1013 1013 1013 1013 
1013 1013 1013 1013 1013 1013 1013 1013 1013 
1013 1013 1013 1013 1013 1013 1013 1013 1013 
1013 1013 1013 1013 1013 1013 1013 1013 1013 
1013 1013 1013 1013 1013 1013 1013 1013 1013 
1013 1013 1013 1013 1013 1013 1013 1013 1013 
1013 1013 1013 1013 1013 1013 1013 1013 1013 
1013 1013 1013 1013 1013 1013 1013 1013 1013 
1013 1013 1013 1013 1013 1013 1013 1013 1013 
1013 1013 1013 1013 1013 1013 1013 1013 1013 
1013 1013 1013 1013 1013 1013 1013 1013 1013 
1013 1013 1013 1013 1013 1013 1013 1013 1013 
1013 1013 1013 1013 1013 1013 1013 1013 1013 
1013 1013 1013 1013 1013 1013 1013 1013 1013 
1013 1013 1013 1013 1013 1013 1013 1013 1013 
1013 1013 1013 1013 1013 1013 1013 1013 1013 
1013 1013 1013 1013 1013 1013 1013 1013 1013 
1013 1013 1013 1013 1013 1013 1013 1013 1013 
1013 1013 1013 1013 1013 1013 1013 1013 1013 
1013 1013 1013 1013 1013 1013 1013 1013 1013 
1013 1013 1013 1013 1013 1013 1013 1013 1013 
1013 1013 1013 1013 1013 1013 1013 1013 1013 
1013 1013 1013 1013 1013 1013 1013 1013 1013 
1013 1013 1013 1013 1013 1013 1013 1013 1013 
1013 1013 1013 1013 1013 1013 1013 1013 1013 
1013 1013 1013 1013 1013 1013 1013 1013 1013 
1013 1013 1013 1013 1013 1013 1013 1013 1013 
1013 1013 1013 1013 1013 1013 1013 1013 1013 
1013 1013 1013 1013 1013 1013 1013 1013 1013 
1013 1013 1013 1013 1013 1013 1013 1013 1013 
1013 1013 1013 1013 1013 1013 1013 1013 1013 
1013 1013 1013 1013 1013 1013 1013 1013 1013 
1013 1013 1013 1013 1013 1013 1013 1013 1013 
1013 1013 1013 1013 1013 1013 1013 1013 1013 
1013 1013 1013 1013 1013 1013 1013 1013 1013 
1013 1013 1013 1013 1013 1013 1013 1013 1013 
1013 1013 1013 1013 1013 1013 1013 1013 1013 
1013 1013 1013 1013 1013 1013 1013 1013 1013 
1013 1013 1013 1013 1013 1013 1013 1013 1013 
1013 1013 1013 1013 1013 1013 1013 1013 1013 
1013 1013 1013 1013 1013 1013 1013 1013 1013 
1013 1013 1013 1013 1013 1013 1013 1013 1013 
1013 1013 1013 1013 1013 1013 1013 1013 1013 
1013 1013 1013 1013 1013 1013 1013 1013 1013 
1013 1013 1013 1013 1013 1013 1013 1013 1013 
1013 1013 1013 1013 1013 1013 1013 1013 1013 
1013 1013 1013 1013 1013 1013 1013 1013 1013 
1013 1013 1013 1013 1013 1013 1013 1013 1013 
1013 1013 1013 1013 1013 1013 1013 1013 1013 
1013 1013 1013 1013 1013 1013 1013 1013 1013 
1013 1013 1013 1013 1013 1013 1013 1013 1013 
1013 1013 1013 1013 1013 1013 1013 1013 1013 
1013 1013 1013 1013 1013 1013 1013 1013 1013 
1013 1013 1013 1013 1013 1013 1013 1013 1013 
1013 1013 1013 1013 1013 1013 1013 1013 1013 
1013 1013 1013 1013 1013 1013 1013 1013 1013 
1013 1013 1013 1013 1013 1013 1013 1013 1013 
1013 1013 1013 1013 1013 1013 1013 1013 1013 
1013 1013 1013 1013 1013 1013 1013 1013 1013 
1013 1013 1013 1013 1013 1013 1013 1013 1013 
1013 1013 1013 1013 1013 1013 1013 1013 1013 
1013 1013 1013 1013 1013 1013 1013 1013 1013 
1013 1013 1013 1013 1013 1013 1013 1013 1013 
1013 1013 1013 1013 1013 1013 1013 1013 1013 
1013 1013 1013 1013 1013 1013 1013 1013 1013 
1013 1013 1013 1013 1013 1013 1013 1013 1013 
1013 1013 1013 1013 1013 1013 1013 1013 1013 
1013 1013 1013 1013 1013 1013 1013 1013 1013 
1013 1013 1013 1013 1013 1013 1013 1013 1013 
1013 1013 1013 1013 1013 1013 1013 1013 1013 
1013 1013 1013 1013 1013 1013 1013 1013 1013 
1013 1013 1013 1013 1013 1013 1013 1013 1013 
1013 1013 1013 1013 1013 1013 1013 1013 1013 
1013 1013 1013 1013 1013 1013 1013 1013 1013 
1013 1013 1013 1013 1013 1013 1013 1013 1013 
1013 1013 1013 1013 1013 1013 1013 1013 1013 
1013 1013 1013 1013 1013 1013 1013 1013 1013 
1013 1013 1013 1013 1013 1013 1013 1013 1013 
1013 1013 1013 1013 1013 1013 1013 1013 1013 
1013 1013 1013 1013 1013 1013 1013 1013 1013 
1013 1013 1013 1013 1013 1013 1013 1013 1013 
1013 1013 1013 1013 1013 1013 1013 1013 1013 
1013 1013 1013 1013 1013 1013 1013 1013 1013 
1013 1013 1013 1013 1013 1013 1013 1013 1013 
1013 1013 1013 1013 1013 1013 1013 1013 1013 
1013 1013 1013 1013 1013 1013 1013 1013 1013 
1013 1013 1013 1013 1013 1013 1013 1013 1013 
1013 1013 1013 1013 1013 1013 1013 1013 1013 
1013 1013 1013 1013 1013 1013 1013 1013 1013 
1013 1013 1013 1013 1013 1013 1013 1013 1013 
1013 1013 1013 1013 1013 1013 1013 1013 1013 
1013 1013 1013 1013 1013 1013 1013 1013 1013 
1013 1013 1013 1013 1013 1013 1013 1013 1013 
1013 1013 1013 1013 1013 1013 1013 1013 1013 
1013 1013 1013 1013 1013 1013 1013 1013 1013 
1013 1013 1013 1013 1013 1013 1013 1013 1013 
1013 1013 1013 1013 1013 1013 1013 1013 1013 
1013 1013 1013 1013 1013 1013 1013 1013 1013 
1013 1013 1013 1013 1013 1013 1013 1013 1013 
1013 1013 1013 1013 1013 1013 1013 1013 1013 
1013 1013 1013 1013 1013 1013 1013 1013 1013 
1013 1013 1013 1013 1013 1013 1013 1013 1013 
1013 1013 1013 1013 1013 1013 1013 1013 1013 
1013 1013 1013 1013 1013 1013 1013 1013 1013 
1013 1013 1013 1013 1013 1013 1013 1013 1013 
1013 1013 1013 1013 1013 1013 1013 1013 1013 
1013 1013 1013 1013 1013 1013 1013 1013 1013 
1013 1013 1013 1013 1013 1013 1013 1013 1013 
1013 1013 1013 1013 1013 1013 1013 1013 1013 
1013 1013 1013 1013 1013 1013 1013 1013 1013 
1013 1013 1013 1013 1013 1013 1013 1013 1013 
1013 1013 1013 1013 1013 1013 1013 1013 1013 
1013 1013 1013 1013 1013 1013 1013 1013 1013 
1013 1013 1013 1013 1013 1013 1013 1013 1013 
1013 1013 1013 1013 1013 1013 1013 1013 1013 
1013 1013 1013 1013 1013 1013 1013 1013 1013 
1013 1013 1013 1013 1013 1013 1013 1013 1013 
1013 1013 1013 1013 1013 1013 1013 1013 1013 
1013 1013 1013 1013 1013 1013 1013 1013 1013 
1013 1013 1013 1013 1013 1013 1013 1013 1013 
1013 1013 1013 1013 1013 1013 1013 1013 1013 
1013 1013 1013 1013 1013 1013 1013 1013 1013 
1013 1013 1013 1013 1013 1013 1013 1013 1013 
1013 1013 1013 1013 1013 1013 1013 1013 1013 
1013 1013 1013 1013 1013 1013 1013 1013 1013 
1013 1013 1013 1013 1013 1013 1013 1013 1013 
1013 1013 1013 1013 1013 1013 1013 1013 1013 
1013 1013 1013 1013 1013 1013 1013 1013 1013 
1013 1013 1013 1013 1013 1013 1013 1013 1013 
1013 1013 1013 1013 1013 1013 1013 1013 1013 
1013 1013 1013 1013 1013 1013 1013 1013 1013 
1013 1013 1013 1013 1013 1013 1013 1013 1013 
1013 1013 1013 1013 1013 1013 1013 1013 1013 
1013 1013 1013 1013 1013 1013 1013 1013 1013 
1013 1013 1013 1013 1013 1013 1013 1013 1013 
1013 1013 1013 1013 1013 1013 1013 1013 1013 
1013 1013 1013 1013 1013 1013 1013 1013 1013 
1013 1013 1013 1013 1013 1013 1013 1013 1013 
1013 1013 1013 1013 1013 1013 1013 1013 1013 
1013 1013 1013 1013 1013 1013 1013 1013 1013 
1013 1013 1013 1013 1013 1013 1013 1013 1013 
1013 1013 1013 1013 1013 1013 1013 1013 1013 
1013 1013 1013 1013 1013 1013 1013 1013 1013 
1013 1013 1013 1013 1013 1013 1013 1013 1013 
1013 1013 1013 1013 1013 1013 1013 1013 1013 
1013 1013 1013 1013 1013 1013 1013 1013 1013 
1013 1013 1013 1013 1013 1013 1013 1013 1013 
1013 1013 1013 1013 1013 1013 1013 1013 1013 
1013 1013 1013 1013 1013 1013 1013 1013 1013 
1013 1013 1013 1013 1013 1013 1013 1013 1013 
1013 1013 1013 1013 1013 1013 1013 1013 1013 
1013 1013 1013 1013 1013 1013 1013 1013 1013 
1013 1013 1013 1013 1013 1013 1013 1013 1013 
1013 1013 1013 1013 1013 1013 1013 1013 1013 
1013 1013 1013 1013 1013 1013 1013 1013 1013 
1013 1013 1013 1013 1013 1013 1013 1013 1013 
1013 1013 1013 1013 1013 1013 1013 1013 1013 
1013 1013 1013 1013 1013 1013 1013 1013 1013 
1013 1013 1013 1013 1013 1013 1013 1013 1013 
1013 1013 1013 1013 1013 1013 1013 1013 1013 
1013 1013 1013 1013 1013 1013 1013 1013 1013 
1013 1013 1013 1013 1013 1013 1013 1013 1013 
1013 1013 1013 1013 1013 1013 1013 1013 1013 
1013 1013 1013 1013 1013 1013 1013 1013 1013 
1013 1013 1013 1013 1013 1013 1013 1013 1013 
1013 1013 1013 1013 1013 1013 1013 1013 1013 
1013 1013 1013 1013 1013 1013 1013 1013 1013 
1013 1013 1013 1013 1013 1013 1013 1013 1013 
1013 1013 1013 1013 1013 1013 1013 1013 1013 
1013 1013 1013 1013 1013 1013 1013 1013 1013 
1013 1013 1013 1013 1013 1013 1013 1013 1013 
1013 1013 1013 1013 1013 1013 1013 1013 1013 
1013 1013 1013 1013 1013 1013 1013 1013 1013 
1013 1013 1013 1013 1013 1013 1013 1013 1013 
1013 1013 1013 1013 1013 1013 1013 1013 1013 
1013 1013 1013 1013 1013 1013 1013 1013 1013 
1013 1013 1013 1013 1013 1013 1013 1013 1013 
1013 1013 1013 1013 1013 1013 1013 1013 1013 
1013 1013 1013 1013 1013 1013 1013 1013 1013 
1013 1013 1013 1013 1013 1013 1013 1013 1013 
1013 1013 1013 1013 1013 1013 1013 1013 1013 
1013 1013 1013 1013 1013 1013 1013 1013 1013 
1013 1013 1013 1013 1013 1013 1013 1013 1013 
1013 1013 1013 1013 1013 1013 1013 1013 1013 
1013 1013 1013 1013 1013 1013 1013 1013 1013 
1013 1013 1013 1013 1013 1013 1013 1013 1013 
1013 1013 1013 1013 1013 1013 1013 1013 1013 
1013 1013 1013 1013 1013 1013 1013 1013 1013 
1013 1013 1013 1013 1013 1013 1013 1013 1013 
1013 1013 1013 1013 1013 1013 1013 1013 1013 
1013 1013 1013 1013 1013 1013 1013 1013 1013 
1013 1013 1013 1013 1013 1013 1013 1013 1013 
1013 1013 1013 1013 1013 1013 1013 1013 1013 
1013 1013 1013 1013 1013 1013 1013 1013 1013 
1013 1013 1013 1013 1013 1013 1013 1013 1013 
1013 1013 1013 1013 1013 1013 1013 1013 1013 
1013 1013 1013 1013 1013 1013 1013 1013 1013 
1013 1013 1013 1013 1013 1013 1013 1013 1013 
1013 1013 1013 1013 1013 1013 1013 1013 1013 
1013 1013 1013 1013 1013 1013 1013 1013 1013 
1013 1013 1013 1013 1013 1013 1013 1013 1013 
1013 1013 1013 1013 1013 1013 1013 1013 1013 
1013 1013 1013 1013 1013 1013 1013 1013 1013 
1013 1013 1013 1013 1013 1013 1013 1013 1013 
1013 1013 1013 1013 1013 1013 1013 1013 1013 
1013 1013 1013 1013 1013 1013 1013 1013 1013 
1013 1013 1013 1013 1013 1013 1013 1013 1013 
1013 1013 1013 1013 1013 1013 1013 1013 1013 
1013 1013 1013 1013 1013 1013 1013 1013 1013 
1013 1013 1013 1013 1013 1013 1013 1013 1013 
1013 1013 1013 1013 1013 1013 1013 1013 1013 
1013 1013 1013 1013 1013 1013 1013 1013 1013 
1013 1013 1013 1013 1013 1013 1013 1013 1013 
1013 1013 1013 1013 1013 1013 1013 1013 1013 
1013 1013 1013 1013 1013 1013 1013 1013 1013 
1013 1013 1013 1013 1013 1013 1013 1013 1013 
1013 1013 1013 1013 1013 1013 1013 1013 1013 
1013 1013 1013 1013 1013 1013 1013 1013 1013 
1013 1013 1013 1013 1013 1013 1013 1013 1013 
1013 1013 1013 1013 1013 1013 1013 1013 1013 
1013 1013 1013 1013 1013 1013 1013 1013 1013 
1013 1013 1013 1013 1013 1013 1013 1013 1013 
1013 1013 1013 1013 1013 1013 1013 1013 1013 
1013 1013 1013 1013 1013 1013 1013 1013 1013 
1013 1013 1013 1013 1013 1013 1013 1013 1013 
1013 1013 1013 1013 1013 1013 1013 1013 1013 
1013 1013 1013 1013 1013 1013 1013 1013 1013 
1013 1013 1013 1013 1013 1013 1013 1013 1013 
1013 1013 1013 1013 1013 1013 1013 1013 1013 
1013 1013 1013 1013 1013 1013 1013 1013 1013 
1013 1013 1013 1013 1013 1013 1013 1013 1013 
1013 1013 1013 1013 1013 1013 1013 1013 1013 
1013 1013 1013 1013 1013 1013 1013 1013 1013 
1013 1013 1013 1013 1013 1013 1013 1013 1013 
1013 1013 1013 1013 1013 1013 1013 1013 1013 
1013 1013 1013 1013 1013 1013 1013 1013 1013 
1013 1013 1013 1013 1013 1013 1013 1013 1013 
1013 1013 1013 1013 1013 1013 1013 1013 1013 
1013 1013 1013 1013 1013 1013 1013 1013 1013 
1013 1013 1013 1013 1013 1013 1013 1013 1013 
1013 1013 1013 1013 1013 1013 1013 1013 1013 
1013 1013 1013 1013 1013 1013 1013 1013 1013 
1013 1013 1013 1013 1013 1013 1013 1013 1013 
1013 1013 1013 1013 1013 1013 1013 1013 1013 
1013 1013 1013 1013 1013 1013 1013 1013 1013 
1013 1013 1013 1013 1013 1013 1013 1013 1013 
1013 1013 1013 1013 1013 1013 1013 1013 1013 
1013 1013 1013 1013 1013 1013 1013 1013 1013 
1013 1013 1013 1013 1013 1013 1013 1013 1013 
1013 1013 1013 1013 1013 1013 1013 1013 1013 
1013 1013 1013 1013 1013 1013 1013 1013 1013 
1013 1013 1013 1013 1013 1013 1013 1013 1013 
1013 1013 1013 1013 1013 1013 1013 1013 1013 
1013 1013 1013 1013 1013 1013 1013 1013 1013 
1013 1013 1013 1013 1013 1013 1013 1013 1013 
1013 1013 1013 1013 1013 1013 1013 1013 1013 
1013 1013 1013 1013 1013 1013 1013 1013 1013 
1013 1013 1013 1013 1013 1013 1013 1013 1013 
1013 1013 1013 1013 1013 1013 1013 1013 1013 
1013 1013 1013 1013 1013 1013 1013 1013 1013 
1013 1013 1013 1013 1013 1013 1013 1013 1013 
1013 1013 1013 1013 1013 1013 1013 1013 1013 
1013 1013 1013 1013 1013 1013 1013 1013 1013 
1013 1013 1013 1013 1013 1013 1013 1013 1013 
1013 1013 1013 1013 1013 1013 1013 1013 1013 
1013 1013 1013 1013 1013 1013 1013 1013 1013 
1013 1013 1013 1013 1013 1013 1013 1013 1013 
1013 1013 1013 1013 1013 1013 1013 1013 1013 
1013 1013 1013 1013 1013 1013 1013 1013 1013 
1013 1013 1013 1013 1013 1013 1013 1013 1013 
1013 1013 1013 1013 1013 1013 1013 1013 1013 
1013 1013 1013 1013 1013 1013 1013 1013 1013 
1013 1013 1013 1013 1013 1013 1013 1013 1013 
1013 1013 1013 1013 1013 1013 1013 1013 1013 
1013 1013 1013 1013 1013 1013 1013 1013 1013 
1013 1013 1013 1013 1013 1013 1013 1013 1013 
1013 1013 1013 1013 1013 1013 1013 1013 1013 
1013 1013 1013 1013 1013 1013 1013 1013 1013 
1013 1013 1013 1013 1013 1013 1013 1013 1013 
1013 1013 1013 1013 1013 1013 1013 1013 1013 
1013 1013 1013 1013 1013 1013 1013 1013 1013 
1013 1013 1013 1013 1013 1013 1013 1013 1013 
1013 1013 1013 1013 1013 1013 1013 1013 1013 
1013 1013 1013 1013 1013 1013 1013 1013 1013 
1013 1013 1013 1013 1013 1013 1013 1013 1013 
1013 1013 1013 1013 1013 1013 1013 1013 1013 
1013 1013 1013 1013 1013 1013 1013 1013 1013 
1013 1013 1013 1013 1013 1013 1013 1013 1013 
1013 1013 1013 1013 1013 1013 1013 1013 1013 
1013 1013 1013 1013 1013 1013 1013 1013 1013 
1013 1013 1013 1013 1013 1013 1013 1013 1013 
1013 1013 1013 1013 1013 1013 1013 1013 1013 
1013 1013 1013 1013 1013 1013 1013 1013 1013 
1013 1013 1013 1013 1013 1013 1013 1013 1013 
1013 1013 1013 1013 1013 1013 1013 1013 1013 
1013 1013 1013 1013 1013 1013 1013 1013 1013 
1013 1013 1013 1013 1013 1013 1013 1013 1013 
1013 1013 1013 1013 1013 1013 1013 1013 1013 
1013 1013 1013 1013 1013 1013 1013 1013 1013 
1013 1013 1013 1013 1013 1013 1013 1013 1013 
1013 1013 1013 1013 1013 1013 1013 1013 1013 
1013 1013 1013 1013 1013 1013 1013 1013 1013 
1013 1013 1013 1013 1013 1013 1013 1013 1013 
1013 1013 1013 1013 1013 1013 1013 1013 1013 
1013 1013 1013 1013 1013 1013 1013 1013 1013 
1013 1013 1013 1013 1013 1013 1013 1013 1013 
1013 1013 1013 1013 1013 1013 1013 1013 1013 
1013 1013 1013 1013 1013 1013 1013 1013 1013 
1013 1013 1013 1013 1013 1013 1013 1013 1013 
1013 1013 1013 1013 1013 1013 1013 1013 1013 
1013 1013 1013 1013 1013 1013 1013 1013 1013 