# vtk DataFile Version 4.2
vtk output
ASCII
DATASET POLYDATA
POINTS 3578 float
-63.0656 14.3269 -5.18389 -63.2637 14.8175 -5.79684 -63.5601 14.3388 -5.42457 
-62.7348 14.6643 -5.58694 -63.1998 13.5377 -5.01622 -63.6957 13.5311 -5.52117 
-62.4775 14.1515 -5.33976 -62.4981 13.4547 -5.11021 -61.9773 13.5869 -5.49449 
-63.3593 12.6625 -5.05883 -63.8333 12.3094 -5.68758 -62.6797 12.3984 -5.06465 
-61.8122 12.5346 -5.64318 -63.2882 11.7406 -5.17216 -63.6146 11.4054 -5.65748 
-62.7605 11.5227 -5.32809 -62.2586 11.7926 -5.5632 -63.0683 11.1348 -5.69527 
-63.4049 14.9406 -6.7996 -63.8189 14.3353 -6.24981 -61.9678 14.3756 -5.87247 
-62.5452 14.952 -6.28234 -61.0111 14.3657 -6.09026 -61.6071 15.0485 -6.61771 
-60.1087 14.2627 -6.14943 -60.6285 14.9864 -6.48729 -59.8882 14.7066 -6.49302 
-67.081 13.4176 -6.13647 -67.2754 14.0189 -6.64726 -67.657 13.5747 -6.69735 
-66.1697 13.1903 -6.10396 -66.4342 13.7597 -6.56231 -65.7207 13.5203 -6.62672 
-64.0444 13.3072 -6.20167 -61.2755 13.3767 -5.82417 -60.4393 13.6289 -5.95194 
-59.4538 14.0754 -6.38137 -59.627 13.3508 -6.18761 -58.8917 13.4043 -6.73448 
-67.2833 12.9726 -6.37201 -66.8703 12.2608 -6.72859 -66.5818 12.7036 -6.07684 
-65.3711 13.1203 -6.39457 -65.4454 12.5767 -6.1497 -64.4408 12.5104 -6.18646 
-64.647 13.0767 -6.48314 -61.1864 12.5434 -5.96148 -60.47 12.696 -6.11218 
-59.7166 12.5865 -6.38194 -59.2139 12.8318 -6.59945 -66.0692 11.9766 -6.40995 
-65.0563 11.9287 -6.45078 -64.0511 11.8587 -6.62258 -63.7439 11.5735 -6.2022 
-62.4676 11.2801 -5.85185 -61.8758 11.5664 -6.20736 -61.0424 11.9273 -6.52881 
-60.0798 12.1341 -6.74366 -63.2042 11.1087 -6.39099 -62.2765 11.0534 -6.59692 
-57.1763 10.2854 -6.05634 -57.4069 10.8467 -6.75869 -57.9715 10.3377 -6.30259 
-56.1419 10.5109 -6.02513 -56.3185 10.8878 -6.53815 -55.3287 10.4476 -6.09225 
-55.4868 10.8607 -6.39496 -54.3463 10.4942 -6.15587 -54.6324 11.012 -6.56619 
-53.3509 10.4692 -6.13588 -53.5918 11.0027 -6.37928 -52.5691 10.3606 -6.20986 
-52.4346 10.974 -6.57452 -51.9022 10.5056 -6.53038 -58.1285 9.73419 -6.16536 
-58.4183 9.98954 -6.3862 -58.7929 9.57846 -6.63346 -57.5085 9.48143 -6.0568 
-56.3569 9.71575 -6.10419 -55.126 9.91636 -6.54946 -55.7341 9.30062 -6.7422 
-54.0445 10.1346 -6.5529 -53.0805 10.1162 -6.55489 -52.1213 10.1538 -6.67305 
-58.3219 9.1437 -6.56175 -57.2472 8.93077 -6.54178 -56.311 8.9472 -6.59673 
-61.0008 15.5325 -7.06173 -61.3406 15.8328 -7.8282 -61.7561 15.4713 -7.31811 
-60.0151 15.3888 -6.94611 -60.301 15.8917 -7.62219 -59.0117 15.3727 -7.07867 
-59.3289 15.9052 -7.61219 -58.1053 15.2459 -7.1646 -58.4049 15.8369 -7.61768 
-57.7229 15.593 -7.62269 -67.2443 14.4774 -7.1486 -67.3489 14.778 -7.74743 
-67.7412 14.2708 -7.20715 -66.7782 14.6116 -7.62885 -64.2548 14.3941 -7.05914 
-64.183 14.7936 -7.66457 -64.7622 14.304 -7.56722 -63.5255 15.1701 -7.73154 
-62.5346 15.2394 -7.23597 -59.1813 14.4839 -6.75099 -58.3104 14.4797 -6.93043 
-57.4303 15.0672 -7.38322 -57.4687 14.4001 -7.1287 -56.9354 14.5344 -7.50219 
-67.81 13.6292 -7.67746 -66.4335 14.1911 -7.34945 -64.9419 13.6781 -6.98184 
-65.5049 13.9816 -7.44886 -64.2949 13.765 -6.74791 -58.3823 13.7015 -6.94618 
-57.6226 13.5826 -7.14578 -56.8816 13.7365 -7.44721 -67.3244 12.9495 -7.31871 
-66.8198 12.4198 -7.52359 -59.4263 12.3663 -6.85766 -58.8545 12.6084 -7.201 
-58.0321 12.9181 -7.5203 -57.0665 13.0759 -7.73361 -66.4122 11.5454 -6.92991 
-66.6184 11.7523 -7.37781 -65.6421 11.3836 -6.93251 -64.6455 11.4412 -7.07242 
-63.8651 11.5547 -7.36953 -63.4323 11.6498 -7.37738 -63.3124 11.4466 -6.9957 
-63.0337 11.3689 -7.68361 -61.4559 11.327 -6.90576 -60.8672 11.4637 -7.33693 
-60.1825 11.765 -7.55439 -59.2576 12.1092 -7.6014 -54.0058 11.5308 -7.00286 
-54.2051 11.8472 -7.84021 -54.6815 11.4586 -7.37314 -53.0515 11.5284 -6.91563 
-53.3263 11.9442 -7.63031 -52.3897 11.5254 -7.0553 -52.3743 11.8679 -7.62623 
-51.7716 11.5317 -7.45955 -66.0782 11.1767 -7.50642 -65.1176 11.0275 -7.65299 
-64.0854 11.164 -7.78547 -62.4367 11.0501 -7.59271 -61.2392 11.0945 -7.64111 
-58.4757 10.3332 -6.79591 -58.021 10.8046 -7.54686 -58.8209 10.3607 -7.34461 
-57.1658 11.0445 -7.63808 -56.34 11.057 -7.46687 -55.3476 11.1435 -7.3086 
-51.232 10.4472 -6.97542 -51.3879 10.9839 -7.13398 -50.5297 10.4149 -7.28702 
-50.3598 11.0072 -7.64787 -49.8778 10.5811 -7.61753 -59.2472 9.7662 -7.16052 
-59.2406 9.93128 -7.83531 -59.6225 9.40522 -7.72588 -55.319 9.52357 -7.02504 
-54.8905 9.60688 -7.32975 -54.2494 9.81316 -7.34911 -53.2802 9.92242 -7.55916 
-52.3367 10.0162 -7.50306 -51.2039 10.1097 -7.48243 -50.2361 10.2373 -7.62455 
-49.3893 9.77068 -7.41415 -49.4816 9.54644 -7.7421 -49.3651 9.5207 -7.33731 
-49.1124 9.64278 -7.46687 -59.1773 9.16787 -7.26131 -58.3207 8.77357 -7.32768 
-57.401 8.49626 -7.1283 -57.8376 8.44794 -7.4996 -56.6081 8.44209 -7.02933 
-55.8286 8.64733 -7.21538 -55.2205 9.13079 -7.42906 -49.0535 9.26597 -7.70228 
-57.276 8.02898 -7.66602 -56.1941 8.08404 -7.54352 -63.0033 15.5314 -8.03588 
-63.1947 15.7935 -8.83043 -63.6978 15.4324 -8.43178 -62.2369 15.5976 -7.7938 
-62.1888 15.8751 -8.51728 -61.143 15.9845 -8.66616 -60.4744 16.0097 -8.36485 
-59.5749 16.1336 -8.52461 -58.5711 16.1501 -8.34917 -56.941 15.3291 -7.91456 
-57.5857 16.0265 -8.31748 -56.1101 15.4469 -8.18186 -56.5376 16.0226 -8.49372 
-55.5088 15.2173 -8.29565 -55.6279 15.9616 -8.51086 -55.024 15.6754 -8.58141 
-67.3006 14.9251 -8.72032 -67.8137 14.3879 -8.17259 -66.1714 14.4387 -8.08604 
-66.4587 14.8447 -8.46095 -65.7089 14.5367 -8.69777 -64.3734 14.9914 -8.67933 
-64.8751 14.4606 -8.22736 -56.2591 14.422 -7.96988 -55.5759 14.5076 -8.41439 
-55.0756 15.0453 -8.57611 -67.7996 13.6097 -8.78174 -65.571 14.2486 -8.2667 
-56.4504 13.4064 -7.95282 -55.8524 13.7236 -8.45285 -67.4198 13.1258 -8.34214 
-66.5247 12.963 -8.54134 -66.2289 12.3022 -7.95291 -65.4058 12.7801 -8.55809 
-65.5752 12.1842 -8.21514 -64.8691 12.5411 -8.58504 -58.4479 12.3777 -7.88373 
-57.8553 12.4734 -8.32679 -57.1447 12.717 -8.55188 -56.2501 13.0513 -8.61084 
-66.1166 11.564 -7.93188 -65.7114 11.505 -8.57136 -65.1647 12.0215 -8.78481 
-63.4153 11.4067 -7.79755 -60.4622 11.3824 -7.92161 -59.9808 11.5296 -8.42641 
-59.2992 11.8494 -8.63751 -58.2615 12.1363 -8.62757 -54.0934 11.8289 -8.7381 
-54.7807 11.5119 -8.18079 -53.3277 12.0657 -8.55466 -52.3054 12.0885 -8.53091 
-50.9064 11.5463 -7.91134 -51.2917 11.9471 -8.4644 -50.326 11.5476 -8.13005 
-50.4581 11.8177 -8.51789 -49.8797 11.4776 -8.68168 -65.4386 11.0166 -8.42782 
-64.304 10.9225 -8.51733 -63.2235 11.0938 -8.25224 -62.3274 11.1304 -8.79205 
-61.2734 10.9765 -8.55095 -60.4189 11.1603 -8.59831 -58.5303 10.4551 -7.85719 
-57.9955 10.6105 -8.34891 -57.3077 10.8993 -8.58276 -56.343 11.0223 -8.46963 
-55.2926 11.1295 -8.53982 -49.3062 10.1732 -7.90009 -49.2709 10.983 -8.42808 
-48.0447 10.2335 -8.13778 -48.3174 10.846 -8.62195 -47.6466 10.6359 -8.62387 
-59.1923 9.7996 -8.80642 -59.6914 9.28582 -8.54854 -58.4926 10.2027 -8.52706 
-54.3352 9.14626 -7.8495 -53.4309 9.41898 -8.04118 -52.7818 9.56477 -8.40141 
-52.2566 9.83501 -8.438 -51.3399 9.895 -8.42362 -50.3806 9.94845 -8.25288 
-49.754 9.50223 -8.45628 -48.341 9.46891 -7.85232 -47.3618 10.1102 -8.36741 
-47.3828 9.4292 -8.13092 -46.9249 9.71422 -8.70882 -59.2793 8.9032 -8.12905 
-58.3769 8.45168 -8.00187 -58.9307 8.48598 -8.50305 -55.2884 8.31017 -7.83021 
-54.4348 8.21879 -8.16098 -53.5863 8.6447 -8.25895 -52.8265 8.879 -8.52882 
-49.1667 8.98499 -8.37329 -48.3299 8.81722 -8.24309 -47.7663 8.43713 -8.50254 
-47.5111 8.72594 -8.22095 -46.9053 8.66529 -8.69497 -58.2016 7.84923 -8.70108 
-57.4242 7.46826 -8.15028 -57.6592 7.3931 -8.46596 -56.4098 7.511 -8.00413 
-55.3571 7.51939 -8.2111 -54.8485 7.57367 -8.43251 -54.3017 7.95116 -8.67155 
-53.3116 8.13825 -8.6914 -47.4079 8.09034 -8.78057 -57.1361 7.20433 -8.37231 
-56.3318 7.16587 -8.49272 -55.5352 7.22668 -8.57459 -47.2488 6.51131 -8.32156 
-47.3463 6.93129 -8.62013 -47.526 6.3829 -8.81195 -47.0149 6.60184 -8.73888 
-47.19 6.06009 -8.57421 -59.3163 4.49769 -8.314 -59.1395 4.74486 -8.63731 
-59.7323 4.70929 -8.59191 -58.9118 4.52152 -8.57412 -49.339 4.50437 -8.35682 
-49.2679 4.69106 -8.81628 -49.5897 4.22402 -8.70316 -48.9276 4.59003 -8.60434 
-46.2692 4.34297 -8.2748 -46.2961 4.63231 -8.44206 -46.4627 4.26009 -8.52573 
-46.1147 4.49596 -8.44397 -59.4921 4.23849 -8.61877 -58.0652 3.90615 -8.69965 
-58.5751 3.62123 -8.50342 -58.2875 3.49188 -8.33046 -57.9114 3.53692 -8.59492 
-49.186 4.24729 -8.48478 -48.2997 3.72341 -8.4448 -48.5736 3.60028 -8.52369 
-48.3401 3.46319 -8.37375 -48.0831 3.58394 -8.54354 -46.3408 3.79613 -8.28894 
-46.5832 3.49928 -8.64519 -45.8924 3.9002 -8.57066 -58.4614 3.20204 -8.65358 
-57.1404 2.90882 -8.6859 -57.6811 2.55824 -8.62914 -57.3242 2.51171 -8.35447 
-56.886 2.36589 -8.69223 -48.4561 3.20811 -8.69766 -46.0763 3.24475 -8.53185 
-57.4543 2.22377 -8.64242 -48.3506 1.36521 -8.3113 -48.4615 1.7914 -8.55156 
-48.6208 1.45525 -8.76413 -48.0625 1.53345 -8.48577 -48.1029 1.13271 -8.69043 
-56.0853 17.3022 -9.16748 -56.3835 17.8428 -9.81877 -56.901 17.3608 -9.4245 
-54.9875 17.4032 -9.10096 -55.3303 17.9065 -9.61931 -54.0829 17.2846 -9.16837 
-54.3941 17.8531 -9.60731 -53.7252 17.6127 -9.62415 -58.9335 16.4755 -9.0706 
-59.4853 16.7657 -9.7853 -59.6552 16.4045 -9.34944 -58.0342 16.5152 -8.9952 
-58.5875 16.9842 -9.67415 -57.0282 16.6899 -8.99621 -57.6279 17.0865 -9.48508 
-56.1207 16.5453 -8.83204 -55.2111 16.5008 -8.838 -54.2707 16.5114 -8.95618 
-53.4285 17.1096 -9.40165 -53.4298 16.4653 -9.17303 -52.9129 16.6065 -9.53258 
-63.2048 15.8613 -9.78007 -63.8607 15.5043 -9.24864 -62.3552 15.9975 -9.53289 
-61.4669 16.0069 -9.35765 -60.4718 16.1512 -9.44197 -54.5518 15.4298 -8.85703 
-53.6183 15.4223 -9.15299 -52.8261 15.8008 -9.47862 -67.286 14.9503 -9.76779 
-67.8075 14.3799 -9.2482 -66.3908 15.0623 -9.48851 -65.1345 14.5494 -8.8231 
-65.2659 14.8942 -9.39931 -64.3427 15.1657 -9.66707 -55.1189 14.3613 -8.77755 
-54.4199 14.3487 -9.16509 -53.6934 14.584 -9.42282 -53.0927 15.0295 -9.51862 
-67.791 13.5962 -9.85765 -66.1576 13.4474 -9.24753 -66.6645 13.3672 -9.44241 
[...]
CELL_DATA 7196
SCALARS scalars float
LOOKUP_TABLE default
2001 2001 2001 2001 2001 2001 2001 2001 2001 
2001 2001 2001 2001 2001 2001 2001 2001 2001 
2001 2001 2001 2001 2001 2001 2001 2001 2001 
2001 2001 2001 2001 2001 2001 2001 2001 2001 
2001 2001 2001 2001 2001 2001 2001 2001 2001 
2001 2001 2001 2001 2001 2001 2001 2001 2001 
2001 2001 2001 2001 2001 2001 2001 2001 2001 
2001 2001 2001 2001 2001 2001 2001 2001 2001 
2001 2001 2001 2001 2001 2001 2001 2001 2001 
2001 2001 2001 2001 2001 2001 2001 2001 2001 
2001 2001 2001 2001 2001 2001 2001 2001 2001 
2001 2001 2001 2001 2001 2001 2001 2001 2001 
2001 2001 2001 2001 2001 2001 2001 2001 2001 
2001 2001 2001 2001 2001 2001 2001 2001 2001 
2001 2001 2001 2001 2001 2001 2001 2001 2001 
2001 2001 2001 2001 2001 2001 2001 2001 2001 
2001 2001 2001 2001 2001 2001 2001 2001 2001 
2001 2001 2001 2001 2001 2001 2001 2001 2001 
2001 2001 2001 2001 2001 2001 2001 2001 2001 
2001 2001 2001 2001 2001 2001 2001 2001 2001 
2001 2001 2001 2001 2001 2001 2001 2001 2001 
2001 2001 2001 2001 2001 2001 2001 2001 2001 
2001 2001 2001 2001 2001 2001 2001 2001 2001 
2001 2001 2001 2001 2001 2001 2001 2001 2001 
2001 2001 2001 2001 2001 2001 2001 2001 2001 
2001 2001 2001 2001 2001 2001 2001 2001 2001 
2001 2001 2001 2001 2001 2001 2001 2001 2001 
2001 2001 2001 2001 2001 2001 2001 2001 2001 
2001 2001 2001 2001 2001 2001 2001 2001 2001 
2001 2001 2001 2001 2001 2001 2001 2001 2001 
2001 2001 2001 2001 2001 2001 2001 2001 2001 
2001 2001 2001 2001 2001 2001 2001 2001 2001 
2001 2001 2001 2001 2001 2001 2001 2001 2001 
2001 2001 2001 2001 2001 2001 2001 2001 2001 
2001 2001 2001 2001 2001 2001 2001 2001 2001 
2001 2001 2001 2001 2001 2001 2001 2001 2001 
2001 2001 2001 2001 2001 2001 2001 2001 2001 
2001 2001 2001 2001 2001 2001 2001 2001 2001 
2001 2001 2001 2001 2001 2001 2001 2001 2001 
2001 2001 2001 2001 2001 2001 2001 2001 2001 
2001 2001 2001 2001 2001 2001 2001 2001 2001 
2001 2001 2001 2001 2001 2001 2001 2001 2001 
2001 2001 2001 2001 2001 2001 2001 2001 2001 
2001 2001 2001 2001 2001 2001 2001 2001 2001 
2001 2001 2001 2001 2001 2001 2001 2001 2001 
2001 2001 2001 2001 2001 2001 2001 2001 2001 
2001 2001 2001 2001 2001 2001 2001 2001 2001 
2001 2001 2001 2001 2001 2001 2001 2001 2001 
2001 2001 2001 2001 2001 2001 2001 2001 2001 
2001 2001 2001 2001 2001 2001 2001 2001 2001 
2001 2001 2001 2001 2001 2001 2001 2001 2001 
2001 2001 2001 2001 2001 2001 2001 2001 2001 
2001 2001 2001 2001 2001 2001 2001 2001 2001 
2001 2001 2001 2001 2001 2001 2001 2001 2001 
2001 2001 2001 2001 2001 2001 2001 2001 2001 
2001 2001 2001 2001 2001 2001 2001 2001 2001 
2001 2001 2001 2001 2001 2001 2001 2001 2001 
2001 2001 2001 2001 2001 2001 2001 2001 2001 
2001 2001 2001 2001 2001 2001 2001 2001 2001 
2001 2001 2001 2001 2001 2001 2001 2001 2001 
2001 2001 2001 2001 2001 2001 2001 2001 2001 
2001 2001 2001 2001 2001 2001 2001 2001 2001 
2001 2001 2001 2001 2001 2001 2001 2001 2001 
2001 2001 2001 2001 2001 2001 2001 2001 2001 
2001 2001 2001 2001 2001 2001 2001 2001 2001 
2001 2001 2001 2001 2001 2001 2001 2001 2001 
2001 2001 2001 2001 2001 2001 2001 2001 2001 
2001 2001 2001 2001 2001 2001 2001 2001 2001 
2001 2001 2001 2001 2001 2001 2001 2001 2001 
2001 2001 2001 2001 2001 2001 2001 2001 2001 
2001 2001 2001 2001 2001 2001 2001 2001 2001 
2001 2001 2001 2001 2001 2001 2001 2001 2001 
2001 2001 2001 2001 2001 2001 2001 2001 2001 
2001 2001 2001 2001 2001 2001 2001 2001 2001 
2001 2001 2001 2001 2001 2001 2001 2001 2001 
2001 2001 2001 2001 2001 2001 2001 2001 2001 
2001 2001 2001 2001 2001 2001 2001 2001 2001 
2001 2001 2001 2001 2001 2001 2001 2001 2001 
2001 2001 2001 2001 2001 2001 2001 2001 2001 
2001 2001 2001 2001 2001 2001 2001 2001 2001 
2001 2001 2001 2001 2001 2001 2001 2001 2001 
2001 2001 2001 2001 2001 2001 2001 2001 2001 
2001 2001 2001 2001 2001 2001 2001 2001 2001 
2001 2001 2001 2001 2001 2001 2001 2001 2001 
2001 2001 2001 2001 2001 2001 2001 2001 2001 
2001 2001 2001 2001 2001 2001 2001 2001 2001 
2001 2001 2001 2001 2001 2001 2001 2001 2001 
2001 2001 2001 2001 2001 2001 2001 2001 2001 
2001 2001 2001 2001 2001 2001 2001 2001 2001 
2001 2001 2001 2001 2001 2001 2001 2001 2001 
2001 2001 2001 2001 2001 2001 2001 2001 2001 
2001 2001 2001 2001 2001 2001 2001 2001 2001 
2001 2001 2001 2001 2001 2001 2001 2001 2001 
2001 2001 2001 2001 2001 2001 2001 2001 2001 
2001 2001 2001 2001 2001 2001 2001 2001 2001 
2001 2001 2001 2001 2001 2001 2001 2001 2001 
2001 2001 2001 2001 2001 2001 2001 2001 2001 
2001 2001 2001 2001 2001 2001 2001 2001 2001 
2001 2001 2001 2001 2001 2001 2001 2001 2001 
2001 2001 2001 2001 2001 2001 2001 2001 2001 
2001 2001 2001 2001 2001 2001 2001 2001 2001 
2001 2001 2001 2001 2001 2001 2001 2001 2001 
2001 2001 2001 2001 2001 2001 2001 2001 2001 
2001 2001 2001 2001 2001 2001 2001 2001 2001 
2001 2001 2001 2001 2001 2001 2001 2001 2001 
2001 2001 2001 2001 2001 2001 2001 2001 2001 
2001 2001 2001 2001 2001 2001 2001 2001 2001 
2001 2001 2001 2001 2001 2001 2001 2001 2001 
2001 2001 2001 2001 2001 2001 2001 2001 2001 
2001 2001 2001 2001 2001 2001 2001 2001 2001 
2001 2001 2001 2001 2001 2001 2001 2001 2001 
2001 2001 2001 2001 2001 2001 2001 2001 2001 
2001 2001 2001 2001 2001 2001 2001 2001 2001 
2001 2001 2001 2001 2001 2001 2001 2001 2001 
2001 2001 2001 2001 2001 2001 2001 2001 2001 
2001 2001 2001 2001 2001 2001 2001 2001 2001 
2001 2001 2001 2001 2001 2001 2001 2001 2001 
2001 2001 2001 2001 2001 2001 2001 2001 2001 
2001 2001 2001 2001 2001 2001 2001 2001 2001 
2001 2001 2001 2001 2001 2001 2001 2001 2001 
2001 2001 2001 2001 2001 2001 2001 2001 2001 
2001 2001 2001 2001 2001 2001 2001 2001 2001 
2001 2001 2001 2001 2001 2001 2001 2001 2001 
2001 2001 2001 2001 2001 2001 2001 2001 2001 
2001 2001 2001 2001 2001 2001 2001 2001 2001 
2001 2001 2001 2001 2001 2001 2001 2001 2001 
2001 2001 2001 2001 2001 2001 2001 2001 2001 
2001 2001 2001 2001 2001 2001 2001 2001 2001 
2001 2001 2001 2001 2001 2001 2001 2001 2001 
2001 2001 2001 2001 2001 2001 2001 2001 2001 
2001 2001 2001 2001 2001 2001 2001 2001 2001 
2001 2001 2001 2001 2001 2001 2001 2001 2001 
2001 2001 2001 2001 2001 2001 2001 2001 2001 
2001 2001 2001 2001 2001 2001 2001 2001 2001 
2001 2001 2001 2001 2001 2001 2001 2001 2001 
2001 2001 2001 2001 2001 2001 2001 2001 2001 
2001 2001 2001 2001 2001 2001 2001 2001 2001 
2001 2001 2001 2001 2001 2001 2001 2001 2001 
2001 2001 2001 2001 2001 2001 2001 2001 2001 
2001 2001 2001 2001 2001 2001 2001 2001 2001 
2001 2001 2001 2001 2001 2001 2001 2001 2001 
2001 2001 2001 2001 2001 2001 2001 2001 2001 
2001 2001 2001 2001 2001 2001 2001 2001 2001 
2001 2001 2001 2001 2001 2001 2001 2001 2001 
2001 2001 2001 2001 2001 2001 2001 2001 2001 
2001 2001 2001 2001 2001 2001 2001 2001 2001 
2001 2001 2001 2001 2001 2001 2001 2001 2001 
2001 2001 2001 2001 2001 2001 2001 2001 2001 
2001 2001 2001 2001 2001 2001 2001 2001 2001 
2001 2001 2001 2001 2001 2001 2001 2001 2001 
2001 2001 2001 2001 2001 2001 2001 2001 2001 
2001 2001 2001 2001 2001 2001 2001 2001 2001 
2001 2001 2001 2001 2001 2001 2001 2001 2001 
2001 2001 2001 2001 2001 2001 2001 2001 2001 
2001 2001 2001 2001 2001 2001 2001 2001 2001 
2001 2001 2001 2001 2001 2001 2001 2001 2001 
2001 2001 2001 2001 2001 2001 2001 2001 2001 
2001 2001 2001 2001 2001 2001 2001 2001 2001 
2001 2001 2001 2001 2001 2001 2001 2001 2001 
2001 2001 2001 2001 2001 2001 2001 2001 2001 
2001 2001 2001 2001 2001 2001 2001 2001 2001 
2001 2001 2001 2001 2001 2001 2001 2001 2001 
2001 2001 2001 2001 2001 2001 2001 2001 2001 
2001 2001 2001 2001 2001 2001 2001 2001 2001 
2001 2001 2001 2001 2001 2001 2001 2001 2001 
2001 2001 2001 2001 2001 2001 2001 2001 2001 
2001 2001 2001 2001 2001 2001 2001 2001 2001 
2001 2001 2001 2001 2001 2001 2001 2001 2001 
2001 2001 2001 2001 2001 2001 2001 2001 2001 
2001 2001 2001 2001 2001 2001 2001 2001 2001 
2001 2001 2001 2001 2001 2001 2001 2001 2001 
2001 2001 2001 2001 2001 2001 2001 2001 2001 
2001 2001 2001 2001 2001 2001 2001 2001 2001 
2001 2001 2001 2001 2001 2001 2001 2001 2001 
2001 2001 2001 2001 2001 2001 2001 2001 2001 
2001 2001 2001 2001 2001 2001 2001 2001 2001 
2001 2001 2001 2001 2001 2001 2001 2001 2001 
2001 2001 2001 2001 2001 2001 2001 2001 2001 
2001 2001 2001 2001 2001 2001 2001 2001 2001 
2001 2001 2001 2001 2001 2001 2001 2001 2001 
2001 2001 2001 2001 2001 2001 2001 2001 2001 
2001 2001 2001 2001 2001 2001 2001 2001 2001 
2001 2001 2001 2001 2001 2001 2001 2001 2001 
2001 2001 2001 2001 2001 2001 2001 2001 2001 
2001 2001 2001 2001 2001 2001 2001 2001 2001 
2001 2001 2001 2001 2001 2001 2001 2001 2001 
2001 2001 2001 2001 2001 2001 2001 2001 2001 
2001 2001 2001 2001 2001 2001 2001 2001 2001 
2001 2001 2001 2001 2001 2001 2001 2001 2001 
2001 2001 2001 2001 2001 2001 2001 2001 2001 
2001 2001 2001 2001 2001 2001 2001 2001 2001 
2001 2001 2001 2001 2001 2001 2001 2001 2001 
2001 2001 2001 2001 2001 2001 2001 2001 2001 
2001 2001 2001 2001 2001 2001 2001 2001 2001 
2001 2001 2001 2001 2001 2001 2001 2001 2001 
2001 2001 2001 2001 2001 2001 2001 2001 2001 
2001 2001 2001 2001 2001 2001 2001 2001 2001 
2001 2001 2001 2001 2001 2001 2001 2001 2001 
2001 2001 2001 2001 2001 2001 2001 2001 2001 
2001 2001 2001 2001 2001 2001 2001 2001 2001 
2001 2001 2001 2001 2001 2001 2001 2001 2001 
2001 2001 2001 2001 2001 2001 2001 2001 2001 
2001 2001 2001 2001 2001 2001 2001 2001 2001 
2001 2001 2001 2001 2001 2001 2001 2001 2001 
2001 2001 2001 2001 2001 2001 2001 2001 2001 
2001 2001 2001 2001 2001 2001 2001 2001 2001 
2001 2001 2001 2001 2001 2001 2001 2001 2001 
2001 2001 2001 2001 2001 2001 2001 2001 2001 
2001 2001 2001 2001 2001 2001 2001 2001 2001 
2001 2001 2001 2001 2001 2001 2001 2001 2001 
2001 2001 2001 2001 2001 2001 2001 2001 2001 
2001 2001 2001 2001 2001 2001 2001 2001 2001 
2001 2001 2001 2001 2001 2001 2001 2001 2001 
2001 2001 2001 2001 2001 2001 2001 2001 2001 
2001 2001 2001 2001 2001 2001 2001 2001 2001 
2001 2001 2001 2001 2001 2001 2001 2001 2001 
2001 2001 2001 2001 2001 2001 2001 2001 2001 
2001 2001 2001 2001 2001 2001 2001 2001 2001 
2001 2001 2001 2001 2001 2001 2001 2001 2001 
2001 2001 2001 2001 2001 2001 2001 2001 2001 
2001 2001 2001 2001 2001 2001 2001 2001 2001 
2001 2001 2001 2001 2001 2001 2001 2001 2001 
2001 2001 2001 2001 2001 2001 2001 2001 2001 
2001 2001 2001 2001 2001 2001 2001 2001 2001 
2001 2001 2001 2001 2001 2001 2001 2001 2001 
2001 2001 2001 2001 2001 2001 2001 2001 2001 
2001 2001 2001 2001 2001 2001 2001 2001 2001 
2001 2001 2001 2001 2001 2001 2001 2001 2001 
2001 2001 2001 2001 2001 2001 2001 2001 2001 
2001 2001 2001 2001 2001 2001 2001 2001 2001 
2001 2001 2001 2001 2001 2001 2001 2001 2001 
2001 2001 2001 2001 2001 2001 2001 2001 2001 
2001 2001 2001 2001 2001 2001 2001 2001 2001 
2001 2001 2001 2001 2001 2001 2001 2001 2001 
2001 2001 2001 2001 2001 2001 2001 2001 2001 
2001 2001 2001 2001 2001 2001 2001 2001 2001 
2001 2001 2001 2001 2001 2001 2001 2001 2001 
2001 2001 2001 2001 2001 2001 2001 2001 2001 
2001 2001 2001 2001 2001 2001 2001 2001 2001 
2001 2001 2001 2001 2001 2001 2001 2001 2001 
2001 2001 2001 2001 2001 2001 2001 2001 2001 
2001 2001 2001 2001 2001 2001 2001 2001 2001 
2001 2001 2001 2001 2001 2001 2001 2001 2001 
2001 2001 2001 2001 2001 2001 2001 2001 2001 
2001 2001 2001 2001 2001 2001 2001 2001 2001 
2001 2001 2001 2001 2001 2001 2001 2001 2001 
2001 2001 2001 2001 2001 2001 2001 2001 2001 
2001 2001 2001 2001 2001 2001 2001 2001 2001 
2001 2001 2001 2001 2001 2001 2001 2001 2001 
2001 2001 2001 2001 2001 2001 2001 2001 2001 
2001 2001 2001 2001 2001 2001 2001 2001 2001 
2001 2001 2001 2001 2001 2001 2001 2001 2001 
2001 2001 2001 2001 2001 2001 2001 2001 2001 
2001 2001 2001 2001 2001 2001 2001 2001 2001 
2001 2001 2001 2001 2001 2001 2001 2001 2001 
2001 2001 2001 2001 2001 2001 2001 2001 2001 
2001 2001 2001 2001 2001 2001 2001 2001 2001 
2001 2001 2001 2001 2001 2001 2001 2001 2001 
2001 2001 2001 2001 2001 2001 2001 2001 2001 
2001 2001 2001 2001 2001 2001 2001 2001 2001 
2001 2001 2001 2001 2001 2001 2001 2001 2001 
2001 2001 2001 2001 2001 2001 2001 2001 2001 
2001 2001 2001 2001 2001 2001 2001 2001 2001 
2001 2001 2001 2001 2001 2001 2001 2001 2001 
2001 2001 2001 2001 2001 2001 2001 2001 2001 
2001 2001 2001 2001 2001 2001 2001 2001 2001 
2001 2001 2001 2001 2001 2001 2001 2001 2001 
2001 2001 2001 2001 2001 2001 2001 2001 2001 
2001 2001 2001 2001 2001 2001 2001 2001 2001 
2001 2001 2001 2001 2001 2001 2001 2001 2001 
2001 2001 2001 2001 2001 2001 2001 2001 2001 
2001 2001 2001 2001 2001 2001 2001 2001 2001 
2001 2001 2001 2001 2001 2001 2001 2001 2001 
2001 2001 2001 2001 2001 2001 2001 2001 2001 
2001 2001 2001 2001 2001 2001 2001 2001 2001 
2001 2001 2001 2001 2001 2001 2001 2001 2001 
2001 2001 2001 2001 2001 2001 2001 2001 2001 
2001 2001 2001 2001 2001 2001 2001 2001 2001 
2001 2001 2001 2001 2001 2001 2001 2001 2001 
2001 2001 2001 2001 2001 2001 2001 2001 2001 
2001 2001 2001 2001 2001 2001 2001 2001 2001 
2001 2001 2001 2001 2001 2001 2001 2001 2001 
2001 2001 2001 2001 2001 2001 2001 2001 2001 
2001 2001 2001 2001 2001 2001 2001 2001 2001 
2001 2001 2001 2001 2001 2001 2001 2001 2001 
2001 2001 2001 2001 2001 2001 2001 2001 2001 
2001 2001 2001 2001 2001 2001 2001 2001 2001 
2001 2001 2001 2001 2001 2001 2001 2001 2001 
2001 2001 2001 2001 2001 2001 2001 2001 2001 
2001 2001 2001 2001 2001 2001 2001 2001 2001 
2001 2001 2001 2001 2001 2001 2001 2001 2001 
2001 2001 2001 2001 2001 2001 2001 2001 2001 
2001 2001 2001 2001 2001 2001 2001 2001 2001 
2001 2001 2001 2001 2001 2001 2001 2001 2001 
2001 2001 2001 2001 2001 2001 2001 2001 2001 
2001 2001 2001 2001 2001 2001 2001 2001 2001 
2001 2001 2001 2001 2001 2001 2001 2001 2001 
2001 2001 2001 2001 2001 2001 2001 2001 2001 
2001 2001 2001 2001 2001 2001 2001 2001 2001 
2001 2001 2001 2001 2001 2001 2001 2001 2001 
2001 2001 2001 2001 2001 2001 2001 2001 2001 
2001 2001 2001 2001 2001 2001 2001 2001 2001 
2001 2001 2001 2001 2001 2001 2001 2001 2001 
2001 2001 2001 2001 2001 2001 2001 2001 2001 
2001 2001 2001 2001 2001 2001 2001 2001 2001 
2001 2001 2001 2001 2001 2001 2001 2001 2001 
2001 2001 2001 2001 2001 2001 2001 2001 2001 
2001 2001 2001 2001 2001 2001 2001 2001 2001 
2001 2001 2001 2001 2001 2001 2001 2001 2001 
2001 2001 2001 2001 2001 2001 2001 2001 2001 
2001 2001 2001 2001 2001 2001 2001 2001 2001 
2001 2001 2001 2001 2001 2001 2001 2001 2001 
2001 2001 2001 2001 2001 2001 2001 2001 2001 
2001 2001 2001 2001 2001 2001 2001 2001 2001 
2001 2001 2001 2001 2001 2001 2001 2001 2001 
2001 2001 2001 2001 2001 2001 2001 2001 2001 
2001 2001 2001 2001 2001 2001 2001 2001 2001 
2001 2001 2001 2001 2001 2001 2001 2001 2001 
2001 2001 2001 2001 2001 2001 2001 2001 2001 
2001 2001 2001 2001 2001 2001 2001 2001 2001 
2001 2001 2001 2001 2001 2001 2001 2001 2001 
2001 2001 2001 2001 2001 2001 2001 2001 2001 
2001 2001 2001 2001 2001 2001 2001 2001 2001 
2001 2001 2001 2001 2001 2001 2001 2001 2001 
2001 2001 2001 2001 2001 2001 2001 2001 2001 
2001 2001 2001 2001 2001 2001 2001 2001 2001 
2001 2001 2001 2001 2001 2001 2001 2001 2001 
2001 2001 2001 2001 2001 2001 2001 2001 2001 
2001 2001 2001 2001 2001 2001 2001 2001 2001 
2001 2001 2001 2001 2001 2001 2001 2001 2001 
2001 2001 2001 2001 2001 2001 2001 2001 2001 
2001 2001 2001 2001 2001 2001 2001 2001 2001 
2001 2001 2001 2001 2001 2001 2001 2001 2001 
2001 2001 2001 2001 2001 2001 2001 2001 2001 
2001 2001 2001 2001 2001 2001 2001 2001 2001 
2001 2001 2001 2001 2001 2001 2001 2001 2001 
2001 2001 2001 2001 2001 2001 2001 2001 2001 
2001 2001 2001 2001 2001 2001 2001 2001 2001 
2001 2001 2001 2001 2001 2001 2001 2001 2001 
2001 2001 2001 2001 2001 2001 2001 2001 2001 
2001 2001 2001 2001 2001 2001 2001 2001 2001 
2001 2001 2001 2001 2001 2001 2001 2001 2001 
2001 2001 2001 2001 2001 2001 2001 2001 2001 
2001 2001 2001 2001 2001 2001 2001 2001 2001 
2001 2001 2001 2001 2001 2001 2001 2001 2001 
2001 2001 2001 2001 2001 2001 2001 2001 2001 
2001 2001 2001 2001 2001 2001 2001 2001 2001 
2001 2001 2001 2001 2001 2001 2001 2001 2001 
2001 2001 2001 2001 2001 2001 2001 2001 2001 
2001 2001 2001 2001 2001 2001 2001 2001 2001 
2001 2001 2001 2001 2001 2001 2001 2001 2001 
2001 2001 2001 2001 2001 2001 2001 2001 2001 
2001 2001 2001 2001 2001 2001 2001 2001 2001 
2001 2001 2001 2001 2001 2001 2001 2001 2001 
2001 2001 2001 2001 2001 2001 2001 2001 2001 
2001 2001 2001 2001 2001 2001 2001 2001 2001 
2001 2001 2001 2001 2001 2001 2001 2001 2001 
2001 2001 2001 2001 2001 2001 2001 2001 2001 
2001 2001 2001 2001 2001 2001 2001 2001 2001 
2001 2001 2001 2001 2001 2001 2001 2001 2001 
2001 2001 2001 2001 2001 2001 2001 2001 2001 
2001 2001 2001 2001 2001 2001 2001 2001 2001 
2001 2001 2001 2001 2001 2001 2001 2001 2001 
2001 2001 2001 2001 2001 2001 2001 2001 2001 
2001 2001 2001 2001 2001 2001 2001 2001 2001 
2001 2001 2001 2001 2001 2001 2001 2001 2001 
2001 2001 2001 2001 2001 2001 2001 2001 2001 
2001 2001 2001 2001 2001 2001 2001 2001 2001 
2001 2001 2001 2001 2001 2001 2001 2001 2001 
2001 2001 2001 2001 2001 2001 2001 2001 2001 
2001 2001 2001 2001 2001 2001 2001 2001 2001 
2001 2001 2001 2001 2001 2001 2001 2001 2001 
2001 2001 2001 2001 2001 2001 2001 2001 2001 
2001 2001 2001 2001 2001 2001 2001 2001 2001 
2001 2001 2001 2001 2001 2001 2001 2001 2001 
2001 2001 2001 2001 2001 2001 2001 2001 2001 
2001 2001 2001 2001 2001 2001 2001 2001 2001 
2001 2001 2001 2001 2001 2001 2001 2001 2001 
2001 2001 2001 2001 2001 2001 2001 2001 2001 
2001 2001 2001 2001 2001 2001 2001 2001 2001 
2001 2001 2001 2001 2001 2001 2001 2001 2001 
2001 2001 2001 2001 2001 2001 2001 2001 2001 
2001 2001 2001 2001 2001 2001 2001 2001 2001 
2001 2001 2001 2001 2001 2001 2001 2001 2001 
2001 2001 2001 2001 2001 2001 2001 2001 2001 
2001 2001 2001 2001 2001 2001 2001 2001 2001 
2001 2001 2001 2001 2001 2001 2001 2001 2001 
2001 2001 2001 2001 2001 2001 2001 2001 2001 
2001 2001 2001 2001 2001 2001 2001 2001 2001 
2001 2001 2001 2001 2001 2001 2001 2001 2001 
2001 2001 2001 2001 2001 2001 2001 2001 2001 
2001 2001 2001 2001 2001 2001 2001 2001 2001 
2001 2001 2001 2001 2001 2001 2001 2001 2001 
2001 2001 2001 2001 2001 2001 2001 2001 2001 
2001 2001 2001 2001 2001 2001 2001 2001 2001 
2001 2001 2001 2001 2001 2001 2001 2001 2001 
2001 2001 2001 2001 2001 2001 2001 2001 2001 
2001 2001 2001 2001 2001 2001 2001 2001 2001 
2001 2001 2001 2001 2001 2001 2001 2001 2001 
2001 2001 2001 2001 2001 2001 2001 2001 2001 
2001 2001 2001 2001 2001 2001 2001 2001 2001 
2001 2001 2001 2001 2001 2001 2001 2001 2001 
2001 2001 2001 2001 2001 2001 2001 2001 2001 
2001 2001 2001 2001 2001 2001 2001 2001 2001 
2001 2001 2001 2001 2001 2001 2001 2001 2001 
2001 2001 2001 2001 2001 2001 2001 2001 2001 
2001 2001 2001 2001 2001 2001 2001 2001 2001 
2001 2001 2001 2001 2001 2001 2001 2001 2001 
2001 2001 2001 2001 2001 2001 2001 2001 2001 
2001 2001 2001 2001 2001 2001 2001 2001 2001 
2001 2001 2001 2001 2001 2001 2001 2001 2001 
2001 2001 2001 2001 2001 2001 2001 2001 2001 
2001 2001 2001 2001 2001 2001 2001 2001 2001 
2001 2001 2001 2001 2001 2001 2001 2001 2001 
2001 2001 2001 2001 2001 2001 2001 2001 2001 
2001 2001 2001 2001 2001 2001 2001 2001 2001 
2001 2001 2001 2001 2001 2001 2001 2001 2001 
2001 2001 2001 2001 2001 2001 2001 2001 2001 
2001 2001 2001 2001 2001 2001 2001 2001 2001 
2001 2001 2001 2001 2001 2001 2001 2001 2001 
2001 2001 2001 2001 2001 2001 2001 2001 2001 
2001 2001 2001 2001 2001 2001 2001 2001 2001 
2001 2001 2001 2001 2001 2001 2001 2001 2001 
2001 2001 2001 2001 2001 2001 2001 2001 2001 
2001 2001 2001 2001 2001 2001 2001 2001 2001 
2001 2001 2001 2001 2001 2001 2001 2001 2001 
2001 2001 2001 2001 2001 2001 2001 2001 2001 
2001 2001 2001 2001 2001 2001 2001 2001 2001 
2001 2001 2001 2001 2001 2001 2001 2001 2001 
2001 2001 2001 2001 2001 2001 2001 2001 2001 
2001 2001 2001 2001 2001 2001 2001 2001 2001 
2001 2001 2001 2001 2001 2001 2001 2001 2001 
2001 2001 2001 2001 2001 2001 2001 2001 2001 