# vtk DataFile Version 4.2
vtk output
ASCII
DATASET POLYDATA
POINTS 4988 float
31.3607 -14.8553 20.8382 31.4695 -14.5274 20.5411 31.6026 -14.8663 20.7788 
31.117 -14.7333 20.5895 30.143 -14.6788 20.8364 30.3043 -14.5514 20.6147 
30.3667 -14.7979 20.6454 30.0431 -14.6225 20.623 31.4407 -15.1768 20.8543 
31.5583 -15.1828 20.6388 31.2833 -15.1726 20.7019 30.1005 -14.7693 20.6486 
31.3998 -15.3892 20.7256 31.8501 -14.7678 20.4083 31.898 -14.4137 20.2274 
32.2052 -14.5778 20.089 31.4219 -14.286 20.0613 30.7511 -14.7408 20.5034 
30.8158 -14.4304 20.3105 30.1633 -14.3587 20.0143 29.9157 -14.6777 20.2004 
32.0673 -14.969 20.0026 31.3462 -15.0843 20.3486 31.3812 -15.3389 20.5709 
31.2248 -15.3161 20.1397 30.8452 -15.3311 20.3204 30.2018 -14.9916 20.2528 
30.4397 -15.3428 20.1365 31.4369 -15.5927 20.0627 31.4986 -15.9873 20.0209 
31.2627 -15.8586 20.3021 30.9631 -15.9223 20.299 30.5522 -15.7305 20.1269 
31.2168 -16.1442 20.099 30.7105 -16.1259 20.0094 31.9878 -14.2018 19.8275 
32.084 -13.876 19.3376 32.4308 -14.1608 19.6025 31.3728 -14.1365 19.7002 
31.3803 -13.9222 19.3982 31.0975 -14.0782 19.5036 30.2642 -13.93 19.4534 
30.4047 -14.1288 19.622 30.1476 -14.0998 19.6727 29.9345 -14.0137 19.3763 
32.5064 -14.577 19.7652 32.7312 -14.3181 19.4657 32.8148 -14.6347 19.3302 
30.8428 -14.2253 19.7344 29.5896 -14.894 19.8031 29.6126 -14.4631 19.5443 
29.2501 -14.6411 19.4189 32.4854 -15.0093 19.5804 31.967 -15.3892 19.7469 
32.2711 -15.3073 19.309 31.5632 -15.2766 20.0147 30.0544 -15.4093 19.9393 
29.4836 -15.4055 19.8205 29.0468 -14.8606 19.5596 28.9221 -15.277 19.7706 
28.2222 -15.3673 19.7753 28.4614 -14.96 19.4674 27.6408 -15.4596 19.7224 
27.8427 -15.0992 19.4634 27.4405 -15.2415 19.4229 32.0169 -15.5534 19.4597 
31.7423 -15.787 19.5758 30.1609 -15.9963 19.8646 29.6828 -15.8325 19.8243 
29.0897 -15.9962 19.7679 28.4772 -15.7837 19.8619 27.8605 -15.98 19.8095 
27.1401 -15.5136 19.4184 27.1491 -15.9535 19.7542 26.807 -15.8465 19.4679 
31.431 -16.2116 19.4849 30.9085 -16.1992 19.7209 30.2006 -16.1824 19.4788 
29.7399 -16.501 19.4154 29.6684 -16.3408 19.6792 29.3487 -16.4724 19.5778 
29.0962 -16.4125 19.3994 28.763 -16.5888 19.4066 28.4754 -16.3138 19.6897 
28.0312 -16.4225 19.5888 27.6831 -16.359 19.6126 27.4555 -16.518 19.5465 
27.2898 -16.3442 19.7265 26.6369 -16.1713 19.6046 26.7472 -16.4707 19.6862 
26.2853 -16.5822 19.3831 29.5771 -16.6178 19.5248 28.3495 -16.6852 19.3182 
27.1402 -16.7825 19.4399 26.5299 -16.8747 19.4331 30.2895 -13.6182 19.1306 
30.1915 -13.3923 18.9143 30.3536 -13.4409 18.8953 30.0357 -13.5997 18.9993 
32.5889 -14.0177 19.3109 32.5029 -13.8578 18.8523 32.8574 -14.2179 19.0605 
31.9441 -13.751 18.8457 31.4218 -13.7719 18.9228 30.6982 -13.6898 18.8813 
30.7181 -13.9426 19.3501 29.8025 -13.9173 18.8295 32.8803 -14.6008 18.7483 
29.5054 -14.2703 18.9501 28.7982 -14.6834 19.2386 29.0318 -14.4696 18.9415 
28.3398 -14.7276 19.1035 28.4272 -14.5373 18.8015 28.0285 -14.6482 18.798 
32.5629 -14.9747 18.9529 32.1934 -15.2299 18.8402 27.9213 -14.8549 19.0724 
27.2072 -15.2703 19.2041 27.3944 -15.018 19.0196 26.9759 -15.244 18.9538 
31.9896 -15.5357 19.0974 31.7671 -15.9274 18.8471 30.7677 -15.9901 19.2125 
30.9941 -15.9305 18.876 30.7219 -15.6647 18.7107 30.2449 -15.6676 18.8329 
30.2606 -15.8904 19.1724 29.8982 -15.8736 18.91 26.3306 -16.034 19.2745 
26.6567 -15.5868 19.0866 25.9055 -16.0638 19.0601 26.139 -15.6474 18.9239 
25.743 -15.7952 18.7509 31.881 -16.4249 19.11 31.9795 -16.3641 18.8223 
32.0933 -16.5328 18.9385 31.5876 -16.5845 19.1239 31.2034 -16.3098 18.9361 
29.5444 -16.2253 18.9478 29.4879 -16.5317 19.3687 29.0165 -16.5625 19.2125 
29.1573 -16.4596 18.9025 27.7671 -16.6162 19.3984 25.9842 -16.4071 19.1683 
25.759 -16.3484 18.866 31.8431 -16.6811 18.8919 31.4497 -16.6721 18.7739 
28.8585 -16.6772 19.051 28.5132 -16.7371 18.89 27.8367 -16.8243 19.0141 
27.2275 -17.1245 19.1051 27.4411 -17.0763 18.8546 26.7424 -17.1865 19.1676 
26.3544 -17.0659 19.0791 26.0358 -16.7657 18.964 27.0503 -17.2954 18.9286 
26.7088 -17.2865 18.8717 31.9939 -19.4803 19.0574 31.8813 -19.2478 18.8308 
32.1596 -19.3998 18.9495 31.7417 -19.4669 18.9001 18.1109 -19.4292 19.0701 
18.1684 -19.295 18.7485 18.3553 -19.5764 18.8762 17.6143 -19.4625 19.1191 
17.6304 -19.2296 18.8669 16.9579 -19.4876 19.124 16.9688 -19.2437 18.8909 
16.4587 -19.5256 19.0778 16.4786 -19.3208 18.9748 16.1945 -19.4289 18.8167 
32.0654 -19.6456 18.8652 18.7809 -20.0802 19.0221 18.8745 -19.9629 18.7927 
19.0045 -20.1991 18.8381 18.0347 -19.7447 18.9848 18.6263 -20.0646 18.9604 
17.4333 -19.8092 18.9904 16.7663 -19.8107 18.872 16.2924 -19.6438 18.7911 
18.6256 -20.2132 18.8095 30.1505 -13.5816 18.7121 32.4901 -13.8687 18.2216 
32.855 -14.2061 18.4325 32.021 -13.7475 18.3335 31.4221 -13.7646 18.3483 
30.8048 -13.7745 18.3201 30.2006 -13.7402 18.2668 29.6663 -13.8624 18.2904 
29.4996 -14.141 18.5469 29.2541 -14.07 18.2051 32.8593 -14.7861 18.1871 
29.1107 -14.2887 18.4602 28.4787 -14.3416 18.3002 27.5827 -14.6884 18.6351 
27.9128 -14.4743 18.3967 26.986 -14.7878 18.5792 27.2662 -14.39 18.15 
26.3668 -14.7507 18.5269 26.5818 -14.4472 18.2307 25.9299 -14.7983 18.4679 
26.0973 -14.4988 18.308 25.8084 -14.6608 18.1725 32.5414 -14.977 18.3675 
32.1335 -15.13 18.4426 31.9173 -15.3741 18.6354 31.8233 -15.4783 18.3023 
26.5275 -15.1975 18.7377 26.0111 -15.2238 18.6471 25.7463 -15.2801 18.3063 
31.7281 -16.0173 18.1335 30.9977 -15.9304 18.5146 30.6571 -15.6389 18.183 
30.1945 -15.5147 18.2924 29.6545 -15.6408 18.3317 29.5891 -15.8624 18.5832 
29.2942 -15.8695 18.2833 25.7374 -16.0417 18.4733 31.9386 -16.5729 18.6814 
31.69 -16.5188 18.2906 31.1254 -16.4041 18.4078 29.1023 -16.1932 18.4289 
28.844 -16.5192 18.6233 28.5972 -16.1888 18.2765 28.2962 -16.5359 18.5803 
28.0069 -16.1874 18.2942 27.6543 -16.6508 18.5943 27.3938 -16.2085 18.3083 
27.0302 -16.6331 18.5097 26.7563 -16.2172 18.2892 26.4636 -16.5594 18.4751 
26.1439 -16.1987 18.305 25.9984 -16.5641 18.601 31.4714 -16.7051 18.4187 
27.1238 -17.0882 18.703 26.5021 -16.9692 18.6996 32.1091 -19.0505 18.6228 
32.062 -18.6459 18.2335 32.3033 -18.9131 18.268 31.7757 -18.8182 18.2088 
32.4376 -19.3936 18.5982 32.599 -19.223 18.1117 32.7632 -19.6382 18.1625 
31.388 -19.7249 18.6215 31.5029 -19.2919 18.4706 31.1058 -19.5286 18.1066 
18.1438 -19.2506 18.1584 18.4522 -19.5215 18.4689 17.6138 -19.1474 18.3097 
16.9536 -19.1517 18.3264 16.385 -19.2527 18.4935 16.152 -19.4888 18.3139 
32.4805 -19.8409 18.4786 31.976 -20.0413 18.6174 32.3738 -20.314 18.3362 
31.4918 -20.2305 18.5524 30.7594 -19.8186 18.2179 30.94 -20.0736 18.4564 
30.5061 -20.0366 18.2088 19.3957 -20.1695 18.6615 19.3459 -19.8799 18.2208 
19.7551 -20.1827 18.4159 18.734 -19.7318 18.3007 18.331 -20.007 18.7119 
17.7165 -20.1025 18.7694 17.1819 -20.236 18.6224 16.7459 -20.0883 18.4016 
16.3683 -19.7998 18.2609 31.9786 -20.5163 18.4433 32.2643 -20.6694 18.28 
31.6437 -20.6388 18.339 31.1824 -20.4584 18.313 30.6972 -20.2771 18.2582 
30.1725 -20.4795 18.3195 30.4692 -20.6795 18.3132 30.2023 -20.8625 18.4649 
29.9699 -20.6145 18.2834 26.6049 -20.7272 18.4387 26.7235 -20.4973 18.2589 
26.6989 -20.7624 18.2233 26.4339 -20.5811 18.2319 19.8641 -20.5359 18.486 
20.1286 -20.4398 18.299 20.2771 -20.7492 18.208 19.4052 -20.5597 18.5304 
18.7681 -20.4861 18.4442 19.1055 -20.6702 18.3143 18.1953 -20.4623 18.4456 
17.7847 -20.8222 18.259 17.645 -20.5246 18.4939 17.2563 -20.7371 18.2511 
16.9681 -20.4138 18.1429 32.485 -21.4921 18.486 32.6768 -21.0703 18.237 
32.8272 -21.3468 18.2686 32.0016 -20.8657 18.2075 32.3628 -21.2341 18.2761 
30.6578 -21.3486 18.5304 30.8618 -21.0319 18.2534 31.1093 -21.4111 18.3498 
30.1802 -21.3654 18.53 29.8736 -21.1158 18.3338 26.5317 -20.8203 18.2233 
19.9604 -20.8778 18.2117 19.4321 -20.906 18.1732 17.4883 -20.9804 18.2152 
32.6258 -21.7787 18.5176 32.8172 -21.8087 18.1709 32.0667 -21.5526 18.3705 
32.0233 -21.9272 18.5278 31.2749 -21.8155 18.5513 31.5815 -21.59 18.3215 
30.9034 -22.0229 18.5546 30.3811 -21.8153 18.5015 29.923 -21.6832 18.3383 
19.9561 -21.8885 18.4026 20.1312 -21.7622 18.1546 20.1145 -22.006 18.3111 
19.7436 -21.7634 18.2078 32.4948 -22.0688 18.3814 32.0654 -22.306 18.3245 
31.6712 -22.5953 18.2769 31.4762 -22.3133 18.4936 31.052 -22.4255 18.3744 
30.5984 -22.2586 18.3238 30.134 -22.0832 18.2787 29.575 -22.3209 18.344 
29.7226 -22.4931 18.265 29.5629 -22.4716 18.3924 29.3473 -22.5211 18.1743 
19.8641 -22.042 18.3307 31.3117 -22.6568 18.2801 29.5353 -22.7196 18.2293 
22.3876 -12.2837 17.8089 22.4457 -12.0925 17.5478 22.5583 -12.3647 17.7129 
22.078 -12.3577 17.5493 22.3407 -12.535 17.6588 22.8954 -13.4243 17.8379 
23.0896 -13.2736 17.6795 23.186 -13.5636 17.6954 22.5193 -13.1748 17.677 
22.3597 -13.5553 17.9045 21.7045 -13.6678 17.9295 21.9578 -13.3486 17.7486 
21.4913 -13.5785 17.5149 32.705 -14.1253 17.9828 32.4411 -13.9934 17.753 
32.0138 -13.8205 17.6552 31.4128 -13.7563 17.7134 30.7978 -13.7774 17.703 
30.1888 -13.7795 17.6866 29.5982 -13.78 17.6869 28.7981 -14.1033 18.016 
29.0235 -13.8577 17.7131 28.3331 -14.137 17.8632 28.4164 -13.918 17.5909 
28.0342 -14.0376 17.5956 27.0951 -14.1493 17.8436 27.2546 -13.9526 17.4988 
27.4298 -14.1471 17.7885 26.8285 -14.0632 17.6115 22.8202 -13.7493 17.7299 
22.2518 -13.928 17.6116 22.0333 -14.1213 17.7567 21.9568 -13.9597 17.933 
21.1307 -13.8135 17.6964 21.2739 -14.0424 17.9298 20.5761 -14.1378 17.9073 
20.5607 -13.8819 17.6678 20.0778 -14.1773 17.8857 19.9908 -13.9306 17.674 
19.6794 -14.0842 17.6696 32.6459 -14.2992 17.5171 32.8746 -14.5406 17.8376 
27.8622 -14.2476 17.8956 26.7007 -14.2512 17.8721 26.1114 -14.3539 17.8689 
25.7191 -14.7904 17.6688 21.7183 -14.2223 17.8231 21.1487 -14.2818 17.706 
20.4266 -14.3613 17.6956 19.814 -14.3224 17.6092 32.5296 -15.3109 18.0257 
32.867 -15.2249 17.7051 32.1253 -15.2745 18.1361 25.9817 -15.3242 17.9155 
26.228 -15.3811 17.72 25.937 -15.1194 17.5843 32.592 -15.7462 17.8341 
32.8108 -15.9425 17.4755 32.0892 -15.7484 17.9717 30.8126 -16.0534 18.0429 
30.5221 -15.9077 17.6834 30.1765 -15.627 17.7696 29.6007 -15.6077 17.7836 
[...]
CELL_DATA 9988
SCALARS scalars float
LOOKUP_TABLE default
2018 2018 2018 2018 2018 2018 2018 2018 2018 
2018 2018 2018 2018 2018 2018 2018 2018 2018 
2018 2018 2018 2018 2018 2018 2018 2018 2018 
2018 2018 2018 2018 2018 2018 2018 2018 2018 
2018 2018 2018 2018 2018 2018 2018 2018 2018 
2018 2018 2018 2018 2018 2018 2018 2018 2018 
2018 2018 2018 2018 2018 2018 2018 2018 2018 
2018 2018 2018 2018 2018 2018 2018 2018 2018 
2018 2018 2018 2018 2018 2018 2018 2018 2018 
2018 2018 2018 2018 2018 2018 2018 2018 2018 
2018 2018 2018 2018 2018 2018 2018 2018 2018 
2018 2018 2018 2018 2018 2018 2018 2018 2018 
2018 2018 2018 2018 2018 2018 2018 2018 2018 
2018 2018 2018 2018 2018 2018 2018 2018 2018 
2018 2018 2018 2018 2018 2018 2018 2018 2018 
2018 2018 2018 2018 2018 2018 2018 2018 2018 
2018 2018 2018 2018 2018 2018 2018 2018 2018 
2018 2018 2018 2018 2018 2018 2018 2018 2018 
2018 2018 2018 2018 2018 2018 2018 2018 2018 
2018 2018 2018 2018 2018 2018 2018 2018 2018 
2018 2018 2018 2018 2018 2018 2018 2018 2018 
2018 2018 2018 2018 2018 2018 2018 2018 2018 
2018 2018 2018 2018 2018 2018 2018 2018 2018 
2018 2018 2018 2018 2018 2018 2018 2018 2018 
2018 2018 2018 2018 2018 2018 2018 2018 2018 
2018 2018 2018 2018 2018 2018 2018 2018 2018 
2018 2018 2018 2018 2018 2018 2018 2018 2018 
2018 2018 2018 2018 2018 2018 2018 2018 2018 
2018 2018 2018 2018 2018 2018 2018 2018 2018 
2018 2018 2018 2018 2018 2018 2018 2018 2018 
2018 2018 2018 2018 2018 2018 2018 2018 2018 
2018 2018 2018 2018 2018 2018 2018 2018 2018 
2018 2018 2018 2018 2018 2018 2018 2018 2018 
2018 2018 2018 2018 2018 2018 2018 2018 2018 
2018 2018 2018 2018 2018 2018 2018 2018 2018 
2018 2018 2018 2018 2018 2018 2018 2018 2018 
2018 2018 2018 2018 2018 2018 2018 2018 2018 
2018 2018 2018 2018 2018 2018 2018 2018 2018 
2018 2018 2018 2018 2018 2018 2018 2018 2018 
2018 2018 2018 2018 2018 2018 2018 2018 2018 
2018 2018 2018 2018 2018 2018 2018 2018 2018 
2018 2018 2018 2018 2018 2018 2018 2018 2018 
2018 2018 2018 2018 2018 2018 2018 2018 2018 
2018 2018 2018 2018 2018 2018 2018 2018 2018 
2018 2018 2018 2018 2018 2018 2018 2018 2018 
2018 2018 2018 2018 2018 2018 2018 2018 2018 
2018 2018 2018 2018 2018 2018 2018 2018 2018 
2018 2018 2018 2018 2018 2018 2018 2018 2018 
2018 2018 2018 2018 2018 2018 2018 2018 2018 
2018 2018 2018 2018 2018 2018 2018 2018 2018 
2018 2018 2018 2018 2018 2018 2018 2018 2018 
2018 2018 2018 2018 2018 2018 2018 2018 2018 
2018 2018 2018 2018 2018 2018 2018 2018 2018 
2018 2018 2018 2018 2018 2018 2018 2018 2018 
2018 2018 2018 2018 2018 2018 2018 2018 2018 
2018 2018 2018 2018 2018 2018 2018 2018 2018 
2018 2018 2018 2018 2018 2018 2018 2018 2018 
2018 2018 2018 2018 2018 2018 2018 2018 2018 
2018 2018 2018 2018 2018 2018 2018 2018 2018 
2018 2018 2018 2018 2018 2018 2018 2018 2018 
2018 2018 2018 2018 2018 2018 2018 2018 2018 
2018 2018 2018 2018 2018 2018 2018 2018 2018 
2018 2018 2018 2018 2018 2018 2018 2018 2018 
2018 2018 2018 2018 2018 2018 2018 2018 2018 
2018 2018 2018 2018 2018 2018 2018 2018 2018 
2018 2018 2018 2018 2018 2018 2018 2018 2018 
2018 2018 2018 2018 2018 2018 2018 2018 2018 
2018 2018 2018 2018 2018 2018 2018 2018 2018 
2018 2018 2018 2018 2018 2018 2018 2018 2018 
2018 2018 2018 2018 2018 2018 2018 2018 2018 
2018 2018 2018 2018 2018 2018 2018 2018 2018 
2018 2018 2018 2018 2018 2018 2018 2018 2018 
2018 2018 2018 2018 2018 2018 2018 2018 2018 
2018 2018 2018 2018 2018 2018 2018 2018 2018 
2018 2018 2018 2018 2018 2018 2018 2018 2018 
2018 2018 2018 2018 2018 2018 2018 2018 2018 
2018 2018 2018 2018 2018 2018 2018 2018 2018 
2018 2018 2018 2018 2018 2018 2018 2018 2018 
2018 2018 2018 2018 2018 2018 2018 2018 2018 
2018 2018 2018 2018 2018 2018 2018 2018 2018 
2018 2018 2018 2018 2018 2018 2018 2018 2018 
2018 2018 2018 2018 2018 2018 2018 2018 2018 
2018 2018 2018 2018 2018 2018 2018 2018 2018 
2018 2018 2018 2018 2018 2018 2018 2018 2018 
2018 2018 2018 2018 2018 2018 2018 2018 2018 
2018 2018 2018 2018 2018 2018 2018 2018 2018 
2018 2018 2018 2018 2018 2018 2018 2018 2018 
2018 2018 2018 2018 2018 2018 2018 2018 2018 
2018 2018 2018 2018 2018 2018 2018 2018 2018 
2018 2018 2018 2018 2018 2018 2018 2018 2018 
2018 2018 2018 2018 2018 2018 2018 2018 2018 
2018 2018 2018 2018 2018 2018 2018 2018 2018 
2018 2018 2018 2018 2018 2018 2018 2018 2018 
2018 2018 2018 2018 2018 2018 2018 2018 2018 
2018 2018 2018 2018 2018 2018 2018 2018 2018 
2018 2018 2018 2018 2018 2018 2018 2018 2018 
2018 2018 2018 2018 2018 2018 2018 2018 2018 
2018 2018 2018 2018 2018 2018 2018 2018 2018 
2018 2018 2018 2018 2018 2018 2018 2018 2018 
2018 2018 2018 2018 2018 2018 2018 2018 2018 
2018 2018 2018 2018 2018 2018 2018 2018 2018 
2018 2018 2018 2018 2018 2018 2018 2018 2018 
2018 2018 2018 2018 2018 2018 2018 2018 2018 
2018 2018 2018 2018 2018 2018 2018 2018 2018 
2018 2018 2018 2018 2018 2018 2018 2018 2018 
2018 2018 2018 2018 2018 2018 2018 2018 2018 
2018 2018 2018 2018 2018 2018 2018 2018 2018 
2018 2018 2018 2018 2018 2018 2018 2018 2018 
2018 2018 2018 2018 2018 2018 2018 2018 2018 
2018 2018 2018 2018 2018 2018 2018 2018 2018 
2018 2018 2018 2018 2018 2018 2018 2018 2018 
2018 2018 2018 2018 2018 2018 2018 2018 2018 
2018 2018 2018 2018 2018 2018 2018 2018 2018 
2018 2018 2018 2018 2018 2018 2018 2018 2018 
2018 2018 2018 2018 2018 2018 2018 2018 2018 
2018 2018 2018 2018 2018 2018 2018 2018 2018 
2018 2018 2018 2018 2018 2018 2018 2018 2018 
2018 2018 2018 2018 2018 2018 2018 2018 2018 
2018 2018 2018 2018 2018 2018 2018 2018 2018 
2018 2018 2018 2018 2018 2018 2018 2018 2018 
2018 2018 2018 2018 2018 2018 2018 2018 2018 
2018 2018 2018 2018 2018 2018 2018 2018 2018 
2018 2018 2018 2018 2018 2018 2018 2018 2018 
2018 2018 2018 2018 2018 2018 2018 2018 2018 
2018 2018 2018 2018 2018 2018 2018 2018 2018 
2018 2018 2018 2018 2018 2018 2018 2018 2018 
2018 2018 2018 2018 2018 2018 2018 2018 2018 
2018 2018 2018 2018 2018 2018 2018 2018 2018 
2018 2018 2018 2018 2018 2018 2018 2018 2018 
2018 2018 2018 2018 2018 2018 2018 2018 2018 
2018 2018 2018 2018 2018 2018 2018 2018 2018 
2018 2018 2018 2018 2018 2018 2018 2018 2018 
2018 2018 2018 2018 2018 2018 2018 2018 2018 
2018 2018 2018 2018 2018 2018 2018 2018 2018 
2018 2018 2018 2018 2018 2018 2018 2018 2018 
2018 2018 2018 2018 2018 2018 2018 2018 2018 
2018 2018 2018 2018 2018 2018 2018 2018 2018 
2018 2018 2018 2018 2018 2018 2018 2018 2018 
2018 2018 2018 2018 2018 2018 2018 2018 2018 
2018 2018 2018 2018 2018 2018 2018 2018 2018 
2018 2018 2018 2018 2018 2018 2018 2018 2018 
2018 2018 2018 2018 2018 2018 2018 2018 2018 
2018 2018 2018 2018 2018 2018 2018 2018 2018 
2018 2018 2018 2018 2018 2018 2018 2018 2018 
2018 2018 2018 2018 2018 2018 2018 2018 2018 
2018 2018 2018 2018 2018 2018 2018 2018 2018 
2018 2018 2018 2018 2018 2018 2018 2018 2018 
2018 2018 2018 2018 2018 2018 2018 2018 2018 
2018 2018 2018 2018 2018 2018 2018 2018 2018 
2018 2018 2018 2018 2018 2018 2018 2018 2018 
2018 2018 2018 2018 2018 2018 2018 2018 2018 
2018 2018 2018 2018 2018 2018 2018 2018 2018 
2018 2018 2018 2018 2018 2018 2018 2018 2018 
2018 2018 2018 2018 2018 2018 2018 2018 2018 
2018 2018 2018 2018 2018 2018 2018 2018 2018 
2018 2018 2018 2018 2018 2018 2018 2018 2018 
2018 2018 2018 2018 2018 2018 2018 2018 2018 
2018 2018 2018 2018 2018 2018 2018 2018 2018 
2018 2018 2018 2018 2018 2018 2018 2018 2018 
2018 2018 2018 2018 2018 2018 2018 2018 2018 
2018 2018 2018 2018 2018 2018 2018 2018 2018 
2018 2018 2018 2018 2018 2018 2018 2018 2018 
2018 2018 2018 2018 2018 2018 2018 2018 2018 
2018 2018 2018 2018 2018 2018 2018 2018 2018 
2018 2018 2018 2018 2018 2018 2018 2018 2018 
2018 2018 2018 2018 2018 2018 2018 2018 2018 
2018 2018 2018 2018 2018 2018 2018 2018 2018 
2018 2018 2018 2018 2018 2018 2018 2018 2018 
2018 2018 2018 2018 2018 2018 2018 2018 2018 
2018 2018 2018 2018 2018 2018 2018 2018 2018 
2018 2018 2018 2018 2018 2018 2018 2018 2018 
2018 2018 2018 2018 2018 2018 2018 2018 2018 
2018 2018 2018 2018 2018 2018 2018 2018 2018 
2018 2018 2018 2018 2018 2018 2018 2018 2018 
2018 2018 2018 2018 2018 2018 2018 2018 2018 
2018 2018 2018 2018 2018 2018 2018 2018 2018 
2018 2018 2018 2018 2018 2018 2018 2018 2018 
2018 2018 2018 2018 2018 2018 2018 2018 2018 
2018 2018 2018 2018 2018 2018 2018 2018 2018 
2018 2018 2018 2018 2018 2018 2018 2018 2018 
2018 2018 2018 2018 2018 2018 2018 2018 2018 
2018 2018 2018 2018 2018 2018 2018 2018 2018 
2018 2018 2018 2018 2018 2018 2018 2018 2018 
2018 2018 2018 2018 2018 2018 2018 2018 2018 
2018 2018 2018 2018 2018 2018 2018 2018 2018 
2018 2018 2018 2018 2018 2018 2018 2018 2018 
2018 2018 2018 2018 2018 2018 2018 2018 2018 
2018 2018 2018 2018 2018 2018 2018 2018 2018 
2018 2018 2018 2018 2018 2018 2018 2018 2018 
2018 2018 2018 2018 2018 2018 2018 2018 2018 
2018 2018 2018 2018 2018 2018 2018 2018 2018 
2018 2018 2018 2018 2018 2018 2018 2018 2018 
2018 2018 2018 2018 2018 2018 2018 2018 2018 
2018 2018 2018 2018 2018 2018 2018 2018 2018 
2018 2018 2018 2018 2018 2018 2018 2018 2018 
2018 2018 2018 2018 2018 2018 2018 2018 2018 
2018 2018 2018 2018 2018 2018 2018 2018 2018 
2018 2018 2018 2018 2018 2018 2018 2018 2018 
2018 2018 2018 2018 2018 2018 2018 2018 2018 
2018 2018 2018 2018 2018 2018 2018 2018 2018 
2018 2018 2018 2018 2018 2018 2018 2018 2018 
2018 2018 2018 2018 2018 2018 2018 2018 2018 
2018 2018 2018 2018 2018 2018 2018 2018 2018 
2018 2018 2018 2018 2018 2018 2018 2018 2018 
2018 2018 2018 2018 2018 2018 2018 2018 2018 
2018 2018 2018 2018 2018 2018 2018 2018 2018 
2018 2018 2018 2018 2018 2018 2018 2018 2018 
2018 2018 2018 2018 2018 2018 2018 2018 2018 
2018 2018 2018 2018 2018 2018 2018 2018 2018 
2018 2018 2018 2018 2018 2018 2018 2018 2018 
2018 2018 2018 2018 2018 2018 2018 2018 2018 
2018 2018 2018 2018 2018 2018 2018 2018 2018 
2018 2018 2018 2018 2018 2018 2018 2018 2018 
2018 2018 2018 2018 2018 2018 2018 2018 2018 
2018 2018 2018 2018 2018 2018 2018 2018 2018 
2018 2018 2018 2018 2018 2018 2018 2018 2018 
2018 2018 2018 2018 2018 2018 2018 2018 2018 
2018 2018 2018 2018 2018 2018 2018 2018 2018 
2018 2018 2018 2018 2018 2018 2018 2018 2018 
2018 2018 2018 2018 2018 2018 2018 2018 2018 
2018 2018 2018 2018 2018 2018 2018 2018 2018 
2018 2018 2018 2018 2018 2018 2018 2018 2018 
2018 2018 2018 2018 2018 2018 2018 2018 2018 
2018 2018 2018 2018 2018 2018 2018 2018 2018 
2018 2018 2018 2018 2018 2018 2018 2018 2018 
2018 2018 2018 2018 2018 2018 2018 2018 2018 
2018 2018 2018 2018 2018 2018 2018 2018 2018 
2018 2018 2018 2018 2018 2018 2018 2018 2018 
2018 2018 2018 2018 2018 2018 2018 2018 2018 
2018 2018 2018 2018 2018 2018 2018 2018 2018 
2018 2018 2018 2018 2018 2018 2018 2018 2018 
2018 2018 2018 2018 2018 2018 2018 2018 2018 
2018 2018 2018 2018 2018 2018 2018 2018 2018 
2018 2018 2018 2018 2018 2018 2018 2018 2018 
2018 2018 2018 2018 2018 2018 2018 2018 2018 
2018 2018 2018 2018 2018 2018 2018 2018 2018 
2018 2018 2018 2018 2018 2018 2018 2018 2018 
2018 2018 2018 2018 2018 2018 2018 2018 2018 
2018 2018 2018 2018 2018 2018 2018 2018 2018 
2018 2018 2018 2018 2018 2018 2018 2018 2018 
2018 2018 2018 2018 2018 2018 2018 2018 2018 
2018 2018 2018 2018 2018 2018 2018 2018 2018 
2018 2018 2018 2018 2018 2018 2018 2018 2018 
2018 2018 2018 2018 2018 2018 2018 2018 2018 
2018 2018 2018 2018 2018 2018 2018 2018 2018 
2018 2018 2018 2018 2018 2018 2018 2018 2018 
2018 2018 2018 2018 2018 2018 2018 2018 2018 
2018 2018 2018 2018 2018 2018 2018 2018 2018 
2018 2018 2018 2018 2018 2018 2018 2018 2018 
2018 2018 2018 2018 2018 2018 2018 2018 2018 
2018 2018 2018 2018 2018 2018 2018 2018 2018 
2018 2018 2018 2018 2018 2018 2018 2018 2018 
2018 2018 2018 2018 2018 2018 2018 2018 2018 
2018 2018 2018 2018 2018 2018 2018 2018 2018 
2018 2018 2018 2018 2018 2018 2018 2018 2018 
2018 2018 2018 2018 2018 2018 2018 2018 2018 
2018 2018 2018 2018 2018 2018 2018 2018 2018 
2018 2018 2018 2018 2018 2018 2018 2018 2018 
2018 2018 2018 2018 2018 2018 2018 2018 2018 
2018 2018 2018 2018 2018 2018 2018 2018 2018 
2018 2018 2018 2018 2018 2018 2018 2018 2018 
2018 2018 2018 2018 2018 2018 2018 2018 2018 
2018 2018 2018 2018 2018 2018 2018 2018 2018 
2018 2018 2018 2018 2018 2018 2018 2018 2018 
2018 2018 2018 2018 2018 2018 2018 2018 2018 
2018 2018 2018 2018 2018 2018 2018 2018 2018 
2018 2018 2018 2018 2018 2018 2018 2018 2018 
2018 2018 2018 2018 2018 2018 2018 2018 2018 
2018 2018 2018 2018 2018 2018 2018 2018 2018 
2018 2018 2018 2018 2018 2018 2018 2018 2018 
2018 2018 2018 2018 2018 2018 2018 2018 2018 
2018 2018 2018 2018 2018 2018 2018 2018 2018 
2018 2018 2018 2018 2018 2018 2018 2018 2018 
2018 2018 2018 2018 2018 2018 2018 2018 2018 
2018 2018 2018 2018 2018 2018 2018 2018 2018 
2018 2018 2018 2018 2018 2018 2018 2018 2018 
2018 2018 2018 2018 2018 2018 2018 2018 2018 
2018 2018 2018 2018 2018 2018 2018 2018 2018 
2018 2018 2018 2018 2018 2018 2018 2018 2018 
2018 2018 2018 2018 2018 2018 2018 2018 2018 
2018 2018 2018 2018 2018 2018 2018 2018 2018 
2018 2018 2018 2018 2018 2018 2018 2018 2018 
2018 2018 2018 2018 2018 2018 2018 2018 2018 
2018 2018 2018 2018 2018 2018 2018 2018 2018 
2018 2018 2018 2018 2018 2018 2018 2018 2018 
2018 2018 2018 2018 2018 2018 2018 2018 2018 
2018 2018 2018 2018 2018 2018 2018 2018 2018 
2018 2018 2018 2018 2018 2018 2018 2018 2018 
2018 2018 2018 2018 2018 2018 2018 2018 2018 
2018 2018 2018 2018 2018 2018 2018 2018 2018 
2018 2018 2018 2018 2018 2018 2018 2018 2018 
2018 2018 2018 2018 2018 2018 2018 2018 2018 
2018 2018 2018 2018 2018 2018 2018 2018 2018 
2018 2018 2018 2018 2018 2018 2018 2018 2018 
2018 2018 2018 2018 2018 2018 2018 2018 2018 
2018 2018 2018 2018 2018 2018 2018 2018 2018 
2018 2018 2018 2018 2018 2018 2018 2018 2018 
2018 2018 2018 2018 2018 2018 2018 2018 2018 
2018 2018 2018 2018 2018 2018 2018 2018 2018 
2018 2018 2018 2018 2018 2018 2018 2018 2018 
2018 2018 2018 2018 2018 2018 2018 2018 2018 
2018 2018 2018 2018 2018 2018 2018 2018 2018 
2018 2018 2018 2018 2018 2018 2018 2018 2018 
2018 2018 2018 2018 2018 2018 2018 2018 2018 
2018 2018 2018 2018 2018 2018 2018 2018 2018 
2018 2018 2018 2018 2018 2018 2018 2018 2018 
2018 2018 2018 2018 2018 2018 2018 2018 2018 
2018 2018 2018 2018 2018 2018 2018 2018 2018 
2018 2018 2018 2018 2018 2018 2018 2018 2018 
2018 2018 2018 2018 2018 2018 2018 2018 2018 
2018 2018 2018 2018 2018 2018 2018 2018 2018 
2018 2018 2018 2018 2018 2018 2018 2018 2018 
2018 2018 2018 2018 2018 2018 2018 2018 2018 
2018 2018 2018 2018 2018 2018 2018 2018 2018 
2018 2018 2018 2018 2018 2018 2018 2018 2018 
2018 2018 2018 2018 2018 2018 2018 2018 2018 
2018 2018 2018 2018 2018 2018 2018 2018 2018 
2018 2018 2018 2018 2018 2018 2018 2018 2018 
2018 2018 2018 2018 2018 2018 2018 2018 2018 
2018 2018 2018 2018 2018 2018 2018 2018 2018 
2018 2018 2018 2018 2018 2018 2018 2018 2018 
2018 2018 2018 2018 2018 2018 2018 2018 2018 
2018 2018 2018 2018 2018 2018 2018 2018 2018 
2018 2018 2018 2018 2018 2018 2018 2018 2018 
2018 2018 2018 2018 2018 2018 2018 2018 2018 
2018 2018 2018 2018 2018 2018 2018 2018 2018 
2018 2018 2018 2018 2018 2018 2018 2018 2018 
2018 2018 2018 2018 2018 2018 2018 2018 2018 
2018 2018 2018 2018 2018 2018 2018 2018 2018 
2018 2018 2018 2018 2018 2018 2018 2018 2018 
2018 2018 2018 2018 2018 2018 2018 2018 2018 
2018 2018 2018 2018 2018 2018 2018 2018 2018 
2018 2018 2018 2018 2018 2018 2018 2018 2018 
2018 2018 2018 2018 2018 2018 2018 2018 2018 
2018 2018 2018 2018 2018 2018 2018 2018 2018 
2018 2018 2018 2018 2018 2018 2018 2018 2018 
2018 2018 2018 2018 2018 2018 2018 2018 2018 
2018 2018 2018 2018 2018 2018 2018 2018 2018 
2018 2018 2018 2018 2018 2018 2018 2018 2018 
2018 2018 2018 2018 2018 2018 2018 2018 2018 
2018 2018 2018 2018 2018 2018 2018 2018 2018 
2018 2018 2018 2018 2018 2018 2018 2018 2018 
2018 2018 2018 2018 2018 2018 2018 2018 2018 
2018 2018 2018 2018 2018 2018 2018 2018 2018 
2018 2018 2018 2018 2018 2018 2018 2018 2018 
2018 2018 2018 2018 2018 2018 2018 2018 2018 
2018 2018 2018 2018 2018 2018 2018 2018 2018 
2018 2018 2018 2018 2018 2018 2018 2018 2018 
2018 2018 2018 2018 2018 2018 2018 2018 2018 
2018 2018 2018 2018 2018 2018 2018 2018 2018 
2018 2018 2018 2018 2018 2018 2018 2018 2018 
2018 2018 2018 2018 2018 2018 2018 2018 2018 
2018 2018 2018 2018 2018 2018 2018 2018 2018 
2018 2018 2018 2018 2018 2018 2018 2018 2018 
2018 2018 2018 2018 2018 2018 2018 2018 2018 
2018 2018 2018 2018 2018 2018 2018 2018 2018 
2018 2018 2018 2018 2018 2018 2018 2018 2018 
2018 2018 2018 2018 2018 2018 2018 2018 2018 
2018 2018 2018 2018 2018 2018 2018 2018 2018 
2018 2018 2018 2018 2018 2018 2018 2018 2018 
2018 2018 2018 2018 2018 2018 2018 2018 2018 
2018 2018 2018 2018 2018 2018 2018 2018 2018 
2018 2018 2018 2018 2018 2018 2018 2018 2018 
2018 2018 2018 2018 2018 2018 2018 2018 2018 
2018 2018 2018 2018 2018 2018 2018 2018 2018 
2018 2018 2018 2018 2018 2018 2018 2018 2018 
2018 2018 2018 2018 2018 2018 2018 2018 2018 
2018 2018 2018 2018 2018 2018 2018 2018 2018 
2018 2018 2018 2018 2018 2018 2018 2018 2018 
2018 2018 2018 2018 2018 2018 2018 2018 2018 
2018 2018 2018 2018 2018 2018 2018 2018 2018 
2018 2018 2018 2018 2018 2018 2018 2018 2018 
2018 2018 2018 2018 2018 2018 2018 2018 2018 
2018 2018 2018 2018 2018 2018 2018 2018 2018 
2018 2018 2018 2018 2018 2018 2018 2018 2018 
2018 2018 2018 2018 2018 2018 2018 2018 2018 
2018 2018 2018 2018 2018 2018 2018 2018 2018 
2018 2018 2018 2018 2018 2018 2018 2018 2018 
2018 2018 2018 2018 2018 2018 2018 2018 2018 
2018 2018 2018 2018 2018 2018 2018 2018 2018 
2018 2018 2018 2018 2018 2018 2018 2018 2018 
2018 2018 2018 2018 2018 2018 2018 2018 2018 
2018 2018 2018 2018 2018 2018 2018 2018 2018 
2018 2018 2018 2018 2018 2018 2018 2018 2018 
2018 2018 2018 2018 2018 2018 2018 2018 2018 
2018 2018 2018 2018 2018 2018 2018 2018 2018 
2018 2018 2018 2018 2018 2018 2018 2018 2018 
2018 2018 2018 2018 2018 2018 2018 2018 2018 
2018 2018 2018 2018 2018 2018 2018 2018 2018 
2018 2018 2018 2018 2018 2018 2018 2018 2018 
2018 2018 2018 2018 2018 2018 2018 2018 2018 
2018 2018 2018 2018 2018 2018 2018 2018 2018 
2018 2018 2018 2018 2018 2018 2018 2018 2018 
2018 2018 2018 2018 2018 2018 2018 2018 2018 
2018 2018 2018 2018 2018 2018 2018 2018 2018 
2018 2018 2018 2018 2018 2018 2018 2018 2018 
2018 2018 2018 2018 2018 2018 2018 2018 2018 
2018 2018 2018 2018 2018 2018 2018 2018 2018 
2018 2018 2018 2018 2018 2018 2018 2018 2018 
2018 2018 2018 2018 2018 2018 2018 2018 2018 
2018 2018 2018 2018 2018 2018 2018 2018 2018 
2018 2018 2018 2018 2018 2018 2018 2018 2018 
2018 2018 2018 2018 2018 2018 2018 2018 2018 
2018 2018 2018 2018 2018 2018 2018 2018 2018 
2018 2018 2018 2018 2018 2018 2018 2018 2018 
2018 2018 2018 2018 2018 2018 2018 2018 2018 
2018 2018 2018 2018 2018 2018 2018 2018 2018 
2018 2018 2018 2018 2018 2018 2018 2018 2018 
2018 2018 2018 2018 2018 2018 2018 2018 2018 
2018 2018 2018 2018 2018 2018 2018 2018 2018 
2018 2018 2018 2018 2018 2018 2018 2018 2018 
2018 2018 2018 2018 2018 2018 2018 2018 2018 
2018 2018 2018 2018 2018 2018 2018 2018 2018 
2018 2018 2018 2018 2018 2018 2018 2018 2018 
2018 2018 2018 2018 2018 2018 2018 2018 2018 
2018 2018 2018 2018 2018 2018 2018 2018 2018 
2018 2018 2018 2018 2018 2018 2018 2018 2018 
2018 2018 2018 2018 2018 2018 2018 2018 2018 
2018 2018 2018 2018 2018 2018 2018 2018 2018 
2018 2018 2018 2018 2018 2018 2018 2018 2018 
2018 2018 2018 2018 2018 2018 2018 2018 2018 
2018 2018 2018 2018 2018 2018 2018 2018 2018 
2018 2018 2018 2018 2018 2018 2018 2018 2018 
2018 2018 2018 2018 2018 2018 2018 2018 2018 
2018 2018 2018 2018 2018 2018 2018 2018 2018 
2018 2018 2018 2018 2018 2018 2018 2018 2018 
2018 2018 2018 2018 2018 2018 2018 2018 2018 
2018 2018 2018 2018 2018 2018 2018 2018 2018 
2018 2018 2018 2018 2018 2018 2018 2018 2018 
2018 2018 2018 2018 2018 2018 2018 2018 2018 
2018 2018 2018 2018 2018 2018 2018 2018 2018 
2018 2018 2018 2018 2018 2018 2018 2018 2018 
2018 2018 2018 2018 2018 2018 2018 2018 2018 