# vtk DataFile Version 4.2
vtk output
ASCII
DATASET POLYDATA
POINTS 3052 float
28.6664 -18.8522 -1.18374 28.7537 -18.199 -1.43611 28.2169 -18.516 -1.41897 
29.0395 -18.2865 -1.7245 27.933 -19.3868 -1.12877 27.6633 -19.0158 -1.42346 
27.2542 -19.7451 -1.50974 28.4336 -19.7675 -1.13855 28.9366 -19.2338 -1.50236 
27.7358 -20.2702 -1.23849 27.2826 -20.6917 -1.5135 28.3358 -20.2417 -1.67434 
28.6855 -19.8658 -1.43376 27.812 -20.851 -1.5341 28.7518 -21.3564 -1.44224 
28.4069 -21.6948 -1.64982 28.8107 -21.5865 -1.36148 28.9898 -21.3177 -1.7335 
28.8675 -21.7679 -1.69467 28.6044 -17.7929 -1.96291 28.7378 -17.1721 -2.48716 
28.1936 -17.5054 -2.48218 29.1203 -17.4886 -2.59796 27.6399 -18.5233 -1.96313 
27.6285 -18.0239 -2.48579 27.1191 -18.5131 -2.50169 29.1039 -18.6242 -2.57383 
26.8156 -19.3696 -2.12725 26.5779 -18.9629 -2.66435 26.3379 -19.6439 -2.61623 
28.7912 -19.2845 -2.70353 28.7251 -19.5419 -1.99933 28.5315 -19.7046 -2.39475 
26.6216 -20.5998 -1.95147 25.9969 -20.4902 -2.51684 28.6241 -20.1424 -2.36767 
28.4986 -20.9397 -1.81638 29.0335 -20.4825 -2.6334 24.832 -21.4862 -2.24111 
24.5831 -21.3172 -2.63915 24.3527 -21.8108 -2.67414 25.6654 -21.3772 -2.14338 
25.3001 -20.9827 -2.60461 26.6292 -21.7172 -2.09402 27.5266 -21.3533 -1.77462 
29.0636 -21.444 -2.42116 24.9272 -21.9963 -2.41275 25.9031 -22.1149 -2.4328 
26.9774 -22.326 -2.6962 27.3825 -22.6231 -2.50446 27.619 -22.3026 -2.18407 
28.5505 -22.0742 -2.20763 28.0908 -22.4725 -2.55569 27.6589 -22.7268 -2.50267 
29.7203 -15.8168 -3.20579 29.47 -15.2647 -3.7423 29.1829 -15.6426 -3.37888 
30.032 -15.5057 -3.68699 28.9003 -16.5961 -3.01175 28.733 -15.9557 -3.44915 
28.1943 -16.4792 -3.5 29.6809 -16.3936 -3.14236 30.0707 -16.1753 -3.55623 
27.6622 -17.5226 -3.0007 27.5991 -16.9556 -3.68687 27.1791 -17.5421 -3.68428 
29.5877 -16.9456 -3.55174 29.2875 -17.739 -3.32996 26.85 -18.2921 -3.09117 
26.6904 -18.129 -3.86172 26.3637 -18.847 -3.30775 29.2158 -18.322 -3.69076 
26.0145 -19.629 -3.3716 28.7843 -19.6747 -2.83542 29.1185 -19.3533 -3.44356 
25.744 -20.3905 -3.04139 25.6614 -19.9581 -3.68451 25.3505 -20.474 -3.55663 
29.1327 -20.6317 -3.49555 24.6282 -21.0596 -3.60678 24.2141 -21.5572 -3.18507 
28.6277 -21.7609 -2.99288 28.2239 -21.7475 -3.52649 28.7376 -21.1559 -3.87431 
24.5935 -22.3707 -2.95591 24.2968 -22.1676 -3.53983 25.5169 -22.6982 -2.96203 
26.5161 -22.7383 -2.98589 27.1175 -22.6161 -3.42897 27.6098 -22.1432 -3.69408 
27.7564 -22.3648 -2.89373 24.9177 -22.7187 -3.55922 25.9269 -23.2753 -3.76726 
26.4772 -23.6495 -3.5122 26.4322 -23.3761 -3.27402 26.9297 -23.2549 -3.5489 
26.7327 -23.7051 -3.49823 11.6622 -15.6043 -4.29989 11.4487 -15.2135 -4.60678 
11.4734 -15.6974 -4.65127 11.8987 -15.2751 -4.6732 28.6377 -15.6397 -3.88342 
28.6187 -15.1403 -4.64034 28.08 -15.6272 -4.47876 29.5885 -14.9886 -4.5445 
30.2574 -15.5179 -4.49076 11.7688 -15.7535 -4.65963 27.8627 -16.24 -4.10461 
27.5977 -15.9222 -4.72884 27.3475 -16.6604 -4.49733 30.1257 -16.3954 -4.4545 
26.9954 -17.4447 -4.49859 29.3669 -17.6427 -4.27082 29.7409 -17.0244 -4.77362 
26.5377 -18.0215 -4.55804 26.1224 -18.7099 -4.20402 29.3468 -18.5543 -4.72246 
25.7509 -19.3806 -4.13875 25.6254 -18.9423 -4.71936 25.397 -19.6806 -4.5235 
29.2292 -19.6872 -4.37973 25.1321 -20.4482 -4.54274 29.034 -20.4355 -4.4889 
23.9251 -21.6331 -4.0537 23.7143 -21.2284 -4.71686 23.2267 -21.6002 -4.70703 
24.7143 -20.9107 -4.70786 28.2269 -21.4309 -4.46319 28.6565 -20.886 -4.64173 
23.5958 -21.8518 -4.78953 24.3211 -22.2011 -4.46376 24.6479 -22.5074 -4.00732 
24.9784 -22.8723 -4.1982 27.216 -22.7573 -4.2618 27.7317 -22.0304 -4.82792 
24.6825 -23.0632 -4.46426 24.3655 -23.475 -4.69222 24.8543 -23.4196 -4.28293 
25.4516 -23.5551 -4.17714 26.0618 -23.5582 -4.43315 26.6309 -23.1879 -4.68061 
26.7075 -23.4519 -3.87938 24.8664 -23.9555 -4.71164 25.6755 -23.8839 -4.6967 
10.956 -14.5979 -5.20094 10.8976 -14.2502 -5.76521 10.4861 -14.4602 -5.4745 
11.6591 -14.6678 -4.93981 11.6222 -14.1633 -5.62807 12.2198 -14.6219 -5.4796 
30.1436 -14.6456 -5.12136 29.5319 -14.2022 -5.7919 29.3177 -14.5454 -5.35073 
30.7248 -14.5245 -5.30259 30.4677 -14.2865 -5.59217 30.8821 -14.5009 -5.50048 
10.5596 -14.7602 -5.44331 11.0945 -15.4343 -5.58748 12.2097 -15.408 -5.33284 
27.8147 -15.4222 -5.00184 27.9224 -15.0571 -5.40734 27.2922 -15.7101 -5.46504 
28.6244 -14.7556 -5.38368 30.6234 -14.8445 -5.43213 30.3721 -15.6244 -5.47807 
11.7253 -15.8789 -5.31033 12.4128 -16.3841 -5.58288 13.0316 -16.6158 -5.24657 
12.7904 -16.1382 -5.48439 13.7173 -16.8028 -5.1998 13.3879 -16.1268 -5.45759 
14.0229 -16.3383 -5.71032 26.9786 -16.7436 -5.26742 30.1486 -16.425 -5.51893 
12.5569 -17.0833 -5.59554 13.2392 -17.772 -5.50897 13.4544 -17.3558 -5.21094 
13.9932 -17.3766 -5.61601 25.9371 -17.5254 -5.32038 25.7818 -17.1579 -5.57748 
25.3026 -17.7155 -5.59353 26.5585 -17.519 -5.0708 26.3538 -16.9633 -5.55577 
29.4465 -17.7857 -5.50247 29.7712 -17.0413 -5.83754 13.6926 -17.8851 -5.42057 
14.5744 -18.4056 -5.58987 14.3239 -18.6862 -5.59641 14.7484 -18.585 -5.37028 
14.902 -18.4645 -5.70069 25.8699 -18.1976 -5.01276 25.1742 -18.846 -5.39326 
29.658 -18.267 -5.45287 29.6815 -18.6463 -5.35559 29.8473 -18.499 -5.60876 
14.6704 -18.7902 -5.79052 25.1039 -19.8723 -5.43514 29.2449 -19.4279 -5.33735 
29.7393 -18.7971 -5.5951 25.0202 -20.5781 -5.33456 28.7841 -20.3848 -5.14824 
28.3776 -20.6773 -5.50182 28.6692 -19.9855 -5.76262 22.7668 -21.4921 -5.08788 
22.6787 -21.2089 -5.43966 22.2767 -21.51 -5.49801 23.5494 -20.9509 -5.53988 
24.4368 -20.8702 -5.43971 28.028 -21.4001 -5.51444 22.7441 -21.9029 -5.53178 
23.8578 -22.1978 -5.2708 24.3982 -22.725 -4.87935 23.9538 -22.6691 -5.45103 
27.2429 -22.4723 -5.36121 27.7343 -21.9167 -5.52054 23.9065 -23.3058 -5.23843 
23.4908 -23.0569 -5.76435 23.5132 -23.6891 -5.77998 26.2176 -23.4959 -5.2833 
26.7274 -23.0014 -5.44315 24.0439 -23.9703 -5.44577 24.6467 -24.1721 -5.46841 
25.356 -23.9794 -5.53352 10.6263 -14.6508 -5.74313 11.0107 -14.6684 -6.54168 
11.5468 -13.9742 -6.28172 12.9955 -14.7739 -6.01643 12.4228 -13.9659 -6.33207 
13.8056 -14.7746 -6.2776 13.4415 -14.0751 -6.53496 14.0591 -14.3511 -6.76088 
27.7663 -14.6887 -6.07815 27.6598 -14.2418 -6.79485 27.1681 -14.6766 -6.60652 
28.7253 -14.3812 -5.89007 28.5316 -13.9623 -6.61093 29.809 -13.9672 -6.36677 
30.6233 -14.4048 -5.89293 30.3149 -14.4987 -6.51106 11.0908 -15.588 -6.54141 
12.5855 -15.7876 -5.72233 13.6194 -15.48 -5.92202 14.1427 -15.4217 -6.49335 
26.7441 -15.4404 -6.18944 26.4991 -15.0522 -6.88361 26.0974 -15.6553 -6.48984 
30.202 -15.7186 -6.6553 11.7946 -16.3755 -5.8859 11.3007 -16.3497 -6.69126 
14.3118 -16.4965 -6.52825 25.8019 -16.5434 -6.04157 25.6799 -16.0123 -6.5136 
25.1561 -16.5249 -6.52408 26.6731 -16.2597 -5.81166 30.1214 -16.5531 -6.404 
11.8768 -17.106 -6.34632 12.6204 -17.7648 -5.97058 12.0722 -17.7698 -6.61671 
14.3683 -17.4744 -6.38693 24.7021 -17.4967 -6.12488 24.6091 -17.0637 -6.50274 
24.1195 -17.5637 -6.50808 29.2259 -17.6734 -6.42703 29.57 -17.0486 -6.86102 
12.6 -18.3651 -6.23213 12.2924 -18.4675 -6.84782 13.6917 -18.2846 -5.88708 
14.6509 -18.1064 -6.17419 15.0177 -18.4628 -6.32717 23.9753 -18.4373 -6.27257 
23.5626 -18.0076 -6.66847 23.386 -18.4663 -6.75874 24.6439 -18.403 -5.87673 
29.5209 -18.6057 -5.83797 29.063 -18.4664 -6.36911 12.8781 -18.8608 -6.45558 
13.8123 -19.1051 -6.38726 14.7525 -18.9904 -6.45272 23.6659 -19.1378 -6.67022 
23.9808 -19.7396 -6.51663 24.477 -19.4349 -6.08295 28.8989 -19.2875 -6.17424 
28.2639 -19.9104 -6.42663 28.5296 -19.1054 -6.66438 20.9047 -20.559 -6.27007 
20.6875 -20.095 -6.48676 20.3917 -20.5064 -6.61449 21.7503 -20.5235 -6.18505 
21.3571 -20.0106 -6.4908 22.7788 -20.6762 -6.04557 22.4219 -20.034 -6.53154 
24.023 -20.3978 -6.08938 23.4226 -20.0123 -6.56255 24.7713 -20.3431 -5.85011 
28.0039 -20.7719 -6.30299 20.7375 -21.1025 -6.44738 21.1713 -21.7106 -6.57022 
21.7063 -21.2839 -6.02635 27.6046 -21.6556 -6.08164 27.2006 -21.5228 -6.58779 
27.6877 -21.0482 -6.58006 21.9377 -22.1286 -6.36201 22.811 -22.6757 -6.17519 
22.2854 -22.7686 -6.63904 23.4575 -22.4434 -5.73198 26.7249 -22.5732 -6.04504 
26.2069 -22.5818 -6.65886 26.6346 -21.9839 -6.68943 22.6926 -23.1184 -6.57982 
23.0458 -23.5146 -6.45543 25.9244 -23.3545 -6.0758 25.29 -23.6934 -6.35847 
25.5528 -23.1436 -6.87834 23.5137 -24.0101 -6.53474 24.4568 -24 -6.45359 
12.7592 -11.833 -7.18441 12.5353 -11.0483 -7.57907 12.1 -11.4562 -7.60915 
13.0777 -11.3348 -7.49318 12.0241 -12.4162 -7.14833 11.6428 -12.0327 -7.81566 
11.3894 -12.7126 -7.47176 12.9063 -12.6759 -6.97011 13.5271 -11.9576 -7.38124 
13.5882 -12.6279 -7.16746 14.1048 -12.4403 -7.74662 11.6012 -13.5458 -6.93031 
11.0449 -13.4345 -7.62984 12.7136 -13.3344 -6.83722 13.6078 -13.4495 -6.91391 
14.12 -13.4628 -7.50053 29.0359 -13.4294 -7.11587 28.6575 -13.1261 -7.89249 
28.2484 -13.526 -7.39119 29.7776 -13.5941 -7.03158 29.486 -13.1722 -7.54795 
30.0681 -13.6012 -7.57218 10.8086 -14.2465 -7.25598 10.6128 -14.0802 -7.91206 
10.4541 -14.5995 -7.77855 14.1998 -14.569 -7.47715 27.8 -13.906 -7.28623 
27.1586 -14.367 -7.3218 30.1747 -14.5946 -7.47007 10.6912 -14.9008 -7.44406 
10.9847 -15.5928 -7.43393 14.2835 -15.5618 -7.5867 25.6212 -15.686 -6.91942 
25.9251 -15.0947 -7.38082 25.2083 -15.5225 -7.5087 26.464 -14.7377 -7.53353 
28.872 -15.4468 -7.33122 28.3408 -15.3355 -7.72688 28.788 -14.9886 -7.73835 
29.5883 -15.0475 -7.60054 29.5925 -15.508 -7.21547 11.2748 -16.4344 -7.82224 
14.5609 -16.2421 -7.43969 14.8478 -16.8882 -7.06826 15.0557 -16.5474 -7.84955 
24.6429 -16.5354 -7.01269 24.6631 -16.0032 -7.53729 24.1549 -16.5196 -7.53192 
28.7653 -15.9935 -7.68318 29.7329 -16.0905 -7.38897 30.0042 -16.5081 -7.24369 
11.6211 -17.0984 -7.23599 11.9748 -17.7143 -7.50539 14.9758 -17.7484 -6.77181 
15.6362 -17.0101 -7.64749 15.5641 -17.5828 -7.19575 16.1669 -17.5174 -7.67018 
23.8051 -17.3225 -7.06197 23.6443 -17.0789 -7.50763 23.2325 -17.782 -7.39659 
27.9542 -17.6627 -7.22154 27.3034 -17.6056 -7.64931 27.6282 -17.0332 -7.68186 
28.567 -17.0508 -7.47341 28.7705 -17.568 -6.96259 29.4705 -16.8379 -7.58762 
[...]
CELL_DATA 6100
SCALARS scalars float
LOOKUP_TABLE default
1016 1016 1016 1016 1016 1016 1016 1016 1016 
1016 1016 1016 1016 1016 1016 1016 1016 1016 
1016 1016 1016 1016 1016 1016 1016 1016 1016 
1016 1016 1016 1016 1016 1016 1016 1016 1016 
1016 1016 1016 1016 1016 1016 1016 1016 1016 
1016 1016 1016 1016 1016 1016 1016 1016 1016 
1016 1016 1016 1016 1016 1016 1016 1016 1016 
1016 1016 1016 1016 1016 1016 1016 1016 1016 
1016 1016 1016 1016 1016 1016 1016 1016 1016 
1016 1016 1016 1016 1016 1016 1016 1016 1016 
1016 1016 1016 1016 1016 1016 1016 1016 1016 
1016 1016 1016 1016 1016 1016 1016 1016 1016 
1016 1016 1016 1016 1016 1016 1016 1016 1016 
1016 1016 1016 1016 1016 1016 1016 1016 1016 
1016 1016 1016 1016 1016 1016 1016 1016 1016 
1016 1016 1016 1016 1016 1016 1016 1016 1016 
1016 1016 1016 1016 1016 1016 1016 1016 1016 
1016 1016 1016 1016 1016 1016 1016 1016 1016 
1016 1016 1016 1016 1016 1016 1016 1016 1016 
1016 1016 1016 1016 1016 1016 1016 1016 1016 
1016 1016 1016 1016 1016 1016 1016 1016 1016 
1016 1016 1016 1016 1016 1016 1016 1016 1016 
1016 1016 1016 1016 1016 1016 1016 1016 1016 
1016 1016 1016 1016 1016 1016 1016 1016 1016 
1016 1016 1016 1016 1016 1016 1016 1016 1016 
1016 1016 1016 1016 1016 1016 1016 1016 1016 
1016 1016 1016 1016 1016 1016 1016 1016 1016 
1016 1016 1016 1016 1016 1016 1016 1016 1016 
1016 1016 1016 1016 1016 1016 1016 1016 1016 
1016 1016 1016 1016 1016 1016 1016 1016 1016 
1016 1016 1016 1016 1016 1016 1016 1016 1016 
1016 1016 1016 1016 1016 1016 1016 1016 1016 
1016 1016 1016 1016 1016 1016 1016 1016 1016 
1016 1016 1016 1016 1016 1016 1016 1016 1016 
1016 1016 1016 1016 1016 1016 1016 1016 1016 
1016 1016 1016 1016 1016 1016 1016 1016 1016 
1016 1016 1016 1016 1016 1016 1016 1016 1016 
1016 1016 1016 1016 1016 1016 1016 1016 1016 
1016 1016 1016 1016 1016 1016 1016 1016 1016 
1016 1016 1016 1016 1016 1016 1016 1016 1016 
1016 1016 1016 1016 1016 1016 1016 1016 1016 
1016 1016 1016 1016 1016 1016 1016 1016 1016 
1016 1016 1016 1016 1016 1016 1016 1016 1016 
1016 1016 1016 1016 1016 1016 1016 1016 1016 
1016 1016 1016 1016 1016 1016 1016 1016 1016 
1016 1016 1016 1016 1016 1016 1016 1016 1016 
1016 1016 1016 1016 1016 1016 1016 1016 1016 
1016 1016 1016 1016 1016 1016 1016 1016 1016 
1016 1016 1016 1016 1016 1016 1016 1016 1016 
1016 1016 1016 1016 1016 1016 1016 1016 1016 
1016 1016 1016 1016 1016 1016 1016 1016 1016 
1016 1016 1016 1016 1016 1016 1016 1016 1016 
1016 1016 1016 1016 1016 1016 1016 1016 1016 
1016 1016 1016 1016 1016 1016 1016 1016 1016 
1016 1016 1016 1016 1016 1016 1016 1016 1016 
1016 1016 1016 1016 1016 1016 1016 1016 1016 
1016 1016 1016 1016 1016 1016 1016 1016 1016 
1016 1016 1016 1016 1016 1016 1016 1016 1016 
1016 1016 1016 1016 1016 1016 1016 1016 1016 
1016 1016 1016 1016 1016 1016 1016 1016 1016 
1016 1016 1016 1016 1016 1016 1016 1016 1016 
1016 1016 1016 1016 1016 1016 1016 1016 1016 
1016 1016 1016 1016 1016 1016 1016 1016 1016 
1016 1016 1016 1016 1016 1016 1016 1016 1016 
1016 1016 1016 1016 1016 1016 1016 1016 1016 
1016 1016 1016 1016 1016 1016 1016 1016 1016 
1016 1016 1016 1016 1016 1016 1016 1016 1016 
1016 1016 1016 1016 1016 1016 1016 1016 1016 
1016 1016 1016 1016 1016 1016 1016 1016 1016 
1016 1016 1016 1016 1016 1016 1016 1016 1016 
1016 1016 1016 1016 1016 1016 1016 1016 1016 
1016 1016 1016 1016 1016 1016 1016 1016 1016 
1016 1016 1016 1016 1016 1016 1016 1016 1016 
1016 1016 1016 1016 1016 1016 1016 1016 1016 
1016 1016 1016 1016 1016 1016 1016 1016 1016 
1016 1016 1016 1016 1016 1016 1016 1016 1016 
1016 1016 1016 1016 1016 1016 1016 1016 1016 
1016 1016 1016 1016 1016 1016 1016 1016 1016 
1016 1016 1016 1016 1016 1016 1016 1016 1016 
1016 1016 1016 1016 1016 1016 1016 1016 1016 
1016 1016 1016 1016 1016 1016 1016 1016 1016 
1016 1016 1016 1016 1016 1016 1016 1016 1016 
1016 1016 1016 1016 1016 1016 1016 1016 1016 
1016 1016 1016 1016 1016 1016 1016 1016 1016 
1016 1016 1016 1016 1016 1016 1016 1016 1016 
1016 1016 1016 1016 1016 1016 1016 1016 1016 
1016 1016 1016 1016 1016 1016 1016 1016 1016 
1016 1016 1016 1016 1016 1016 1016 1016 1016 
1016 1016 1016 1016 1016 1016 1016 1016 1016 
1016 1016 1016 1016 1016 1016 1016 1016 1016 
1016 1016 1016 1016 1016 1016 1016 1016 1016 
1016 1016 1016 1016 1016 1016 1016 1016 1016 
1016 1016 1016 1016 1016 1016 1016 1016 1016 
1016 1016 1016 1016 1016 1016 1016 1016 1016 
1016 1016 1016 1016 1016 1016 1016 1016 1016 
1016 1016 1016 1016 1016 1016 1016 1016 1016 
1016 1016 1016 1016 1016 1016 1016 1016 1016 
1016 1016 1016 1016 1016 1016 1016 1016 1016 
1016 1016 1016 1016 1016 1016 1016 1016 1016 
1016 1016 1016 1016 1016 1016 1016 1016 1016 
1016 1016 1016 1016 1016 1016 1016 1016 1016 
1016 1016 1016 1016 1016 1016 1016 1016 1016 
1016 1016 1016 1016 1016 1016 1016 1016 1016 
1016 1016 1016 1016 1016 1016 1016 1016 1016 
1016 1016 1016 1016 1016 1016 1016 1016 1016 
1016 1016 1016 1016 1016 1016 1016 1016 1016 
1016 1016 1016 1016 1016 1016 1016 1016 1016 
1016 1016 1016 1016 1016 1016 1016 1016 1016 
1016 1016 1016 1016 1016 1016 1016 1016 1016 
1016 1016 1016 1016 1016 1016 1016 1016 1016 
1016 1016 1016 1016 1016 1016 1016 1016 1016 
1016 1016 1016 1016 1016 1016 1016 1016 1016 
1016 1016 1016 1016 1016 1016 1016 1016 1016 
1016 1016 1016 1016 1016 1016 1016 1016 1016 
1016 1016 1016 1016 1016 1016 1016 1016 1016 
1016 1016 1016 1016 1016 1016 1016 1016 1016 
1016 1016 1016 1016 1016 1016 1016 1016 1016 
1016 1016 1016 1016 1016 1016 1016 1016 1016 
1016 1016 1016 1016 1016 1016 1016 1016 1016 
1016 1016 1016 1016 1016 1016 1016 1016 1016 
1016 1016 1016 1016 1016 1016 1016 1016 1016 
1016 1016 1016 1016 1016 1016 1016 1016 1016 
1016 1016 1016 1016 1016 1016 1016 1016 1016 
1016 1016 1016 1016 1016 1016 1016 1016 1016 
1016 1016 1016 1016 1016 1016 1016 1016 1016 
1016 1016 1016 1016 1016 1016 1016 1016 1016 
1016 1016 1016 1016 1016 1016 1016 1016 1016 
1016 1016 1016 1016 1016 1016 1016 1016 1016 
1016 1016 1016 1016 1016 1016 1016 1016 1016 
1016 1016 1016 1016 1016 1016 1016 1016 1016 
1016 1016 1016 1016 1016 1016 1016 1016 1016 
1016 1016 1016 1016 1016 1016 1016 1016 1016 
1016 1016 1016 1016 1016 1016 1016 1016 1016 
1016 1016 1016 1016 1016 1016 1016 1016 1016 
1016 1016 1016 1016 1016 1016 1016 1016 1016 
1016 1016 1016 1016 1016 1016 1016 1016 1016 
1016 1016 1016 1016 1016 1016 1016 1016 1016 
1016 1016 1016 1016 1016 1016 1016 1016 1016 
1016 1016 1016 1016 1016 1016 1016 1016 1016 
1016 1016 1016 1016 1016 1016 1016 1016 1016 
1016 1016 1016 1016 1016 1016 1016 1016 1016 
1016 1016 1016 1016 1016 1016 1016 1016 1016 
1016 1016 1016 1016 1016 1016 1016 1016 1016 
1016 1016 1016 1016 1016 1016 1016 1016 1016 
1016 1016 1016 1016 1016 1016 1016 1016 1016 
1016 1016 1016 1016 1016 1016 1016 1016 1016 
1016 1016 1016 1016 1016 1016 1016 1016 1016 
1016 1016 1016 1016 1016 1016 1016 1016 1016 
1016 1016 1016 1016 1016 1016 1016 1016 1016 
1016 1016 1016 1016 1016 1016 1016 1016 1016 
1016 1016 1016 1016 1016 1016 1016 1016 1016 
1016 1016 1016 1016 1016 1016 1016 1016 1016 
1016 1016 1016 1016 1016 1016 1016 1016 1016 
1016 1016 1016 1016 1016 1016 1016 1016 1016 
1016 1016 1016 1016 1016 1016 1016 1016 1016 
1016 1016 1016 1016 1016 1016 1016 1016 1016 
1016 1016 1016 1016 1016 1016 1016 1016 1016 
1016 1016 1016 1016 1016 1016 1016 1016 1016 
1016 1016 1016 1016 1016 1016 1016 1016 1016 
1016 1016 1016 1016 1016 1016 1016 1016 1016 
1016 1016 1016 1016 1016 1016 1016 1016 1016 
1016 1016 1016 1016 1016 1016 1016 1016 1016 
1016 1016 1016 1016 1016 1016 1016 1016 1016 
1016 1016 1016 1016 1016 1016 1016 1016 1016 
1016 1016 1016 1016 1016 1016 1016 1016 1016 
1016 1016 1016 1016 1016 1016 1016 1016 1016 
1016 1016 1016 1016 1016 1016 1016 1016 1016 
1016 1016 1016 1016 1016 1016 1016 1016 1016 
1016 1016 1016 1016 1016 1016 1016 1016 1016 
1016 1016 1016 1016 1016 1016 1016 1016 1016 
1016 1016 1016 1016 1016 1016 1016 1016 1016 
1016 1016 1016 1016 1016 1016 1016 1016 1016 
1016 1016 1016 1016 1016 1016 1016 1016 1016 
1016 1016 1016 1016 1016 1016 1016 1016 1016 
1016 1016 1016 1016 1016 1016 1016 1016 1016 
1016 1016 1016 1016 1016 1016 1016 1016 1016 
1016 1016 1016 1016 1016 1016 1016 1016 1016 
1016 1016 1016 1016 1016 1016 1016 1016 1016 
1016 1016 1016 1016 1016 1016 1016 1016 1016 
1016 1016 1016 1016 1016 1016 1016 1016 1016 
1016 1016 1016 1016 1016 1016 1016 1016 1016 
1016 1016 1016 1016 1016 1016 1016 1016 1016 
1016 1016 1016 1016 1016 1016 1016 1016 1016 
1016 1016 1016 1016 1016 1016 1016 1016 1016 
1016 1016 1016 1016 1016 1016 1016 1016 1016 
1016 1016 1016 1016 1016 1016 1016 1016 1016 
1016 1016 1016 1016 1016 1016 1016 1016 1016 
1016 1016 1016 1016 1016 1016 1016 1016 1016 
1016 1016 1016 1016 1016 1016 1016 1016 1016 
1016 1016 1016 1016 1016 1016 1016 1016 1016 
1016 1016 1016 1016 1016 1016 1016 1016 1016 
1016 1016 1016 1016 1016 1016 1016 1016 1016 
1016 1016 1016 1016 1016 1016 1016 1016 1016 
1016 1016 1016 1016 1016 1016 1016 1016 1016 
1016 1016 1016 1016 1016 1016 1016 1016 1016 
1016 1016 1016 1016 1016 1016 1016 1016 1016 
1016 1016 1016 1016 1016 1016 1016 1016 1016 
1016 1016 1016 1016 1016 1016 1016 1016 1016 
1016 1016 1016 1016 1016 1016 1016 1016 1016 
1016 1016 1016 1016 1016 1016 1016 1016 1016 
1016 1016 1016 1016 1016 1016 1016 1016 1016 
1016 1016 1016 1016 1016 1016 1016 1016 1016 
1016 1016 1016 1016 1016 1016 1016 1016 1016 
1016 1016 1016 1016 1016 1016 1016 1016 1016 
1016 1016 1016 1016 1016 1016 1016 1016 1016 
1016 1016 1016 1016 1016 1016 1016 1016 1016 
1016 1016 1016 1016 1016 1016 1016 1016 1016 
1016 1016 1016 1016 1016 1016 1016 1016 1016 
1016 1016 1016 1016 1016 1016 1016 1016 1016 
1016 1016 1016 1016 1016 1016 1016 1016 1016 
1016 1016 1016 1016 1016 1016 1016 1016 1016 
1016 1016 1016 1016 1016 1016 1016 1016 1016 
1016 1016 1016 1016 1016 1016 1016 1016 1016 
1016 1016 1016 1016 1016 1016 1016 1016 1016 
1016 1016 1016 1016 1016 1016 1016 1016 1016 
1016 1016 1016 1016 1016 1016 1016 1016 1016 
1016 1016 1016 1016 1016 1016 1016 1016 1016 
1016 1016 1016 1016 1016 1016 1016 1016 1016 
1016 1016 1016 1016 1016 1016 1016 1016 1016 
1016 1016 1016 1016 1016 1016 1016 1016 1016 
1016 1016 1016 1016 1016 1016 1016 1016 1016 
1016 1016 1016 1016 1016 1016 1016 1016 1016 
1016 1016 1016 1016 1016 1016 1016 1016 1016 
1016 1016 1016 1016 1016 1016 1016 1016 1016 
1016 1016 1016 1016 1016 1016 1016 1016 1016 
1016 1016 1016 1016 1016 1016 1016 1016 1016 
1016 1016 1016 1016 1016 1016 1016 1016 1016 
1016 1016 1016 1016 1016 1016 1016 1016 1016 
1016 1016 1016 1016 1016 1016 1016 1016 1016 
1016 1016 1016 1016 1016 1016 1016 1016 1016 
1016 1016 1016 1016 1016 1016 1016 1016 1016 
1016 1016 1016 1016 1016 1016 1016 1016 1016 
1016 1016 1016 1016 1016 1016 1016 1016 1016 
1016 1016 1016 1016 1016 1016 1016 1016 1016 
1016 1016 1016 1016 1016 1016 1016 1016 1016 
1016 1016 1016 1016 1016 1016 1016 1016 1016 
1016 1016 1016 1016 1016 1016 1016 1016 1016 
1016 1016 1016 1016 1016 1016 1016 1016 1016 
1016 1016 1016 1016 1016 1016 1016 1016 1016 
1016 1016 1016 1016 1016 1016 1016 1016 1016 
1016 1016 1016 1016 1016 1016 1016 1016 1016 
1016 1016 1016 1016 1016 1016 1016 1016 1016 
1016 1016 1016 1016 1016 1016 1016 1016 1016 
1016 1016 1016 1016 1016 1016 1016 1016 1016 
1016 1016 1016 1016 1016 1016 1016 1016 1016 
1016 1016 1016 1016 1016 1016 1016 1016 1016 
1016 1016 1016 1016 1016 1016 1016 1016 1016 
1016 1016 1016 1016 1016 1016 1016 1016 1016 
1016 1016 1016 1016 1016 1016 1016 1016 1016 
1016 1016 1016 1016 1016 1016 1016 1016 1016 
1016 1016 1016 1016 1016 1016 1016 1016 1016 
1016 1016 1016 1016 1016 1016 1016 1016 1016 
1016 1016 1016 1016 1016 1016 1016 1016 1016 
1016 1016 1016 1016 1016 1016 1016 1016 1016 
1016 1016 1016 1016 1016 1016 1016 1016 1016 
1016 1016 1016 1016 1016 1016 1016 1016 1016 
1016 1016 1016 1016 1016 1016 1016 1016 1016 
1016 1016 1016 1016 1016 1016 1016 1016 1016 
1016 1016 1016 1016 1016 1016 1016 1016 1016 
1016 1016 1016 1016 1016 1016 1016 1016 1016 
1016 1016 1016 1016 1016 1016 1016 1016 1016 
1016 1016 1016 1016 1016 1016 1016 1016 1016 
1016 1016 1016 1016 1016 1016 1016 1016 1016 
1016 1016 1016 1016 1016 1016 1016 1016 1016 
1016 1016 1016 1016 1016 1016 1016 1016 1016 
1016 1016 1016 1016 1016 1016 1016 1016 1016 
1016 1016 1016 1016 1016 1016 1016 1016 1016 
1016 1016 1016 1016 1016 1016 1016 1016 1016 
1016 1016 1016 1016 1016 1016 1016 1016 1016 
1016 1016 1016 1016 1016 1016 1016 1016 1016 
1016 1016 1016 1016 1016 1016 1016 1016 1016 
1016 1016 1016 1016 1016 1016 1016 1016 1016 
1016 1016 1016 1016 1016 1016 1016 1016 1016 
1016 1016 1016 1016 1016 1016 1016 1016 1016 
1016 1016 1016 1016 1016 1016 1016 1016 1016 
1016 1016 1016 1016 1016 1016 1016 1016 1016 
1016 1016 1016 1016 1016 1016 1016 1016 1016 
1016 1016 1016 1016 1016 1016 1016 1016 1016 
1016 1016 1016 1016 1016 1016 1016 1016 1016 
1016 1016 1016 1016 1016 1016 1016 1016 1016 
1016 1016 1016 1016 1016 1016 1016 1016 1016 
1016 1016 1016 1016 1016 1016 1016 1016 1016 
1016 1016 1016 1016 1016 1016 1016 1016 1016 
1016 1016 1016 1016 1016 1016 1016 1016 1016 
1016 1016 1016 1016 1016 1016 1016 1016 1016 
1016 1016 1016 1016 1016 1016 1016 1016 1016 
1016 1016 1016 1016 1016 1016 1016 1016 1016 
1016 1016 1016 1016 1016 1016 1016 1016 1016 
1016 1016 1016 1016 1016 1016 1016 1016 1016 
1016 1016 1016 1016 1016 1016 1016 1016 1016 
1016 1016 1016 1016 1016 1016 1016 1016 1016 
1016 1016 1016 1016 1016 1016 1016 1016 1016 
1016 1016 1016 1016 1016 1016 1016 1016 1016 
1016 1016 1016 1016 1016 1016 1016 1016 1016 
1016 1016 1016 1016 1016 1016 1016 1016 1016 
1016 1016 1016 1016 1016 1016 1016 1016 1016 
1016 1016 1016 1016 1016 1016 1016 1016 1016 
1016 1016 1016 1016 1016 1016 1016 1016 1016 
1016 1016 1016 1016 1016 1016 1016 1016 1016 
1016 1016 1016 1016 1016 1016 1016 1016 1016 
1016 1016 1016 1016 1016 1016 1016 1016 1016 
1016 1016 1016 1016 1016 1016 1016 1016 1016 
1016 1016 1016 1016 1016 1016 1016 1016 1016 
1016 1016 1016 1016 1016 1016 1016 1016 1016 
1016 1016 1016 1016 1016 1016 1016 1016 1016 
1016 1016 1016 1016 1016 1016 1016 1016 1016 
1016 1016 1016 1016 1016 1016 1016 1016 1016 
1016 1016 1016 1016 1016 1016 1016 1016 1016 
1016 1016 1016 1016 1016 1016 1016 1016 1016 
1016 1016 1016 1016 1016 1016 1016 1016 1016 
1016 1016 1016 1016 1016 1016 1016 1016 1016 
1016 1016 1016 1016 1016 1016 1016 1016 1016 
1016 1016 1016 1016 1016 1016 1016 1016 1016 
1016 1016 1016 1016 1016 1016 1016 1016 1016 
1016 1016 1016 1016 1016 1016 1016 1016 1016 
1016 1016 1016 1016 1016 1016 1016 1016 1016 
1016 1016 1016 1016 1016 1016 1016 1016 1016 
1016 1016 1016 1016 1016 1016 1016 1016 1016 
1016 1016 1016 1016 1016 1016 1016 1016 1016 
1016 1016 1016 1016 1016 1016 1016 1016 1016 
1016 1016 1016 1016 1016 1016 1016 1016 1016 
1016 1016 1016 1016 1016 1016 1016 1016 1016 
1016 1016 1016 1016 1016 1016 1016 1016 1016 
1016 1016 1016 1016 1016 1016 1016 1016 1016 
1016 1016 1016 1016 1016 1016 1016 1016 1016 
1016 1016 1016 1016 1016 1016 1016 1016 1016 
1016 1016 1016 1016 1016 1016 1016 1016 1016 
1016 1016 1016 1016 1016 1016 1016 1016 1016 
1016 1016 1016 1016 1016 1016 1016 1016 1016 
1016 1016 1016 1016 1016 1016 1016 1016 1016 
1016 1016 1016 1016 1016 1016 1016 1016 1016 
1016 1016 1016 1016 1016 1016 1016 1016 1016 
1016 1016 1016 1016 1016 1016 1016 1016 1016 
1016 1016 1016 1016 1016 1016 1016 1016 1016 
1016 1016 1016 1016 1016 1016 1016 1016 1016 
1016 1016 1016 1016 1016 1016 1016 1016 1016 
1016 1016 1016 1016 1016 1016 1016 1016 1016 
1016 1016 1016 1016 1016 1016 1016 1016 1016 
1016 1016 1016 1016 1016 1016 1016 1016 1016 
1016 1016 1016 1016 1016 1016 1016 1016 1016 
1016 1016 1016 1016 1016 1016 1016 1016 1016 
1016 1016 1016 1016 1016 1016 1016 1016 1016 
1016 1016 1016 1016 1016 1016 1016 1016 1016 
1016 1016 1016 1016 1016 1016 1016 1016 1016 
1016 1016 1016 1016 1016 1016 1016 1016 1016 
1016 1016 1016 1016 1016 1016 1016 1016 1016 
1016 1016 1016 1016 1016 1016 1016 1016 1016 
1016 1016 1016 1016 1016 1016 1016 1016 1016 
1016 1016 1016 1016 1016 1016 1016 1016 1016 
1016 1016 1016 1016 1016 1016 1016 1016 1016 
1016 1016 1016 1016 1016 1016 1016 1016 1016 
1016 1016 1016 1016 1016 1016 1016 1016 1016 
1016 1016 1016 1016 1016 1016 1016 1016 1016 
1016 1016 1016 1016 1016 1016 1016 1016 1016 
1016 1016 1016 1016 1016 1016 1016 1016 1016 
1016 1016 1016 1016 1016 1016 1016 1016 1016 
1016 1016 1016 1016 1016 1016 1016 1016 1016 
1016 1016 1016 1016 1016 1016 1016 1016 1016 
1016 1016 1016 1016 1016 1016 1016 1016 1016 
1016 1016 1016 1016 1016 1016 1016 1016 1016 
1016 1016 1016 1016 1016 1016 1016 1016 1016 
1016 1016 1016 1016 1016 1016 1016 1016 1016 
1016 1016 1016 1016 1016 1016 1016 1016 1016 
1016 1016 1016 1016 1016 1016 1016 1016 1016 
1016 1016 1016 1016 1016 1016 1016 1016 1016 
1016 1016 1016 1016 1016 1016 1016 1016 1016 
1016 1016 1016 1016 1016 1016 1016 1016 1016 
1016 1016 1016 1016 1016 1016 1016 1016 1016 
1016 1016 1016 1016 1016 1016 1016 1016 1016 
1016 1016 1016 1016 1016 1016 1016 1016 1016 
1016 1016 1016 1016 1016 1016 1016 1016 1016 
1016 1016 1016 1016 1016 1016 1016 1016 1016 
1016 1016 1016 1016 1016 1016 1016 1016 1016 
1016 1016 1016 1016 1016 1016 1016 1016 1016 
1016 1016 1016 1016 1016 1016 1016 1016 1016 
1016 1016 1016 1016 1016 1016 1016 1016 1016 
1016 1016 1016 1016 1016 1016 1016 1016 1016 
1016 1016 1016 1016 1016 1016 1016 1016 1016 
1016 1016 1016 1016 1016 1016 1016 1016 1016 
1016 1016 1016 1016 1016 1016 1016 1016 1016 
1016 1016 1016 1016 1016 1016 1016 1016 1016 
1016 1016 1016 1016 1016 1016 1016 1016 1016 
1016 1016 1016 1016 1016 1016 1016 1016 1016 
1016 1016 1016 1016 1016 1016 1016 1016 1016 
1016 1016 1016 1016 1016 1016 1016 1016 1016 
1016 1016 1016 1016 1016 1016 1016 1016 1016 
1016 1016 1016 1016 1016 1016 1016 1016 1016 
1016 1016 1016 1016 1016 1016 1016 1016 1016 
1016 1016 1016 1016 1016 1016 1016 1016 1016 
1016 1016 1016 1016 1016 1016 1016 1016 1016 
1016 1016 1016 1016 1016 1016 1016 1016 1016 
1016 1016 1016 1016 1016 1016 1016 1016 1016 
1016 1016 1016 1016 1016 1016 1016 1016 1016 
1016 1016 1016 1016 1016 1016 1016 1016 1016 
1016 1016 1016 1016 1016 1016 1016 1016 1016 
1016 1016 1016 1016 1016 1016 1016 1016 1016 
1016 1016 1016 1016 1016 1016 1016 1016 1016 
1016 1016 1016 1016 1016 1016 1016 1016 1016 
1016 1016 1016 1016 1016 1016 1016 1016 1016 
1016 1016 1016 1016 1016 1016 1016 1016 1016 
1016 1016 1016 1016 1016 1016 1016 1016 1016 
1016 1016 1016 1016 1016 1016 1016 1016 1016 
1016 1016 1016 1016 1016 1016 1016 1016 1016 
1016 1016 1016 1016 1016 1016 1016 1016 1016 
1016 1016 1016 1016 1016 1016 1016 1016 1016 
1016 1016 1016 1016 1016 1016 1016 1016 1016 
1016 1016 1016 1016 1016 1016 1016 1016 1016 
1016 1016 1016 1016 1016 1016 1016 1016 1016 
1016 1016 1016 1016 1016 1016 1016 1016 1016 
1016 1016 1016 1016 1016 1016 1016 1016 1016 
1016 1016 1016 1016 1016 1016 1016 1016 1016 
1016 1016 1016 1016 1016 1016 1016 1016 1016 
1016 1016 1016 1016 1016 1016 1016 1016 1016 
1016 1016 1016 1016 1016 1016 1016 1016 1016 
1016 1016 1016 1016 1016 1016 1016 1016 1016 
1016 1016 1016 1016 1016 1016 1016 1016 1016 
1016 1016 1016 1016 1016 1016 1016 1016 1016 
1016 1016 1016 1016 1016 1016 1016 1016 1016 
1016 1016 1016 1016 1016 1016 1016 1016 1016 
1016 1016 1016 1016 1016 1016 1016 1016 1016 
1016 1016 1016 1016 1016 1016 1016 1016 1016 
1016 1016 1016 1016 1016 1016 1016 1016 1016 
1016 1016 1016 1016 1016 1016 1016 1016 1016 
1016 1016 1016 1016 1016 1016 1016 1016 1016 
1016 1016 1016 1016 1016 1016 1016 1016 1016 
1016 1016 1016 1016 1016 1016 1016 1016 1016 
1016 1016 1016 1016 1016 1016 1016 1016 1016 
1016 1016 1016 1016 1016 1016 1016 1016 1016 
1016 1016 1016 1016 1016 1016 1016 1016 1016 
1016 1016 1016 1016 1016 1016 1016 1016 1016 
1016 1016 1016 1016 1016 1016 1016 1016 1016 
1016 1016 1016 1016 1016 1016 1016 1016 1016 
1016 1016 1016 1016 1016 1016 1016 1016 1016 