# vtk DataFile Version 4.2
vtk output
ASCII
DATASET POLYDATA
POINTS 16774 float
46.0538 -30.2243 0.518698 46.2442 -30.516 0.770762 46.6414 -30.6124 0.520347 
45.5115 -30.2103 0.367044 45.6836 -30.5908 0.895989 44.9636 -30.7514 0.488666 
45.9636 -30.3657 0.0134255 45.272 -30.5306 -0.067566 45.1959 -31.4383 2.9509 
45.6833 -31.5062 2.32629 44.9933 -31.1191 2.38552 44.3272 -31.1457 2.29938 
44.375 -31.6143 3.08478 43.7886 -31.5695 2.50369 47.1484 -31.1436 1.19345 
47.3371 -31.5786 1.65158 47.7863 -31.5775 1.38032 46.8495 -31.6661 1.68075 
45.1637 -30.9982 1.46692 45.8561 -31.2613 1.48178 44.5555 -31.0566 1.71766 
43.8105 -31.5224 1.67606 47.3062 -30.9832 0.460974 47.854 -31.5888 0.165318 
46.4174 -31.1035 1.14221 44.3973 -31.513 0.946915 44.68 -31.3952 0.3308 
47.3519 -31.1702 -0.320142 47.6558 -31.7124 -0.78052 46.619 -30.8969 -0.34458 
45.6214 -30.9612 -0.560799 44.9094 -31.4845 -0.383419 47.0077 -31.6107 -0.989613 
46.1528 -31.4417 -0.924437 45.4091 -31.7277 -1.0843 45.2262 -31.9661 3.3805 
45.4752 -32.7538 3.91112 45.9325 -32.419 3.41362 44.3741 -32.038 3.62866 
44.5985 -32.5129 3.85217 43.9542 -32.4961 3.38264 48.1195 -32.1559 2.30344 
48.3231 -32.4724 2.67042 48.5181 -32.3776 2.33026 48.0865 -32.6465 2.48768 
46.3388 -32.1104 2.51941 46.41 -32.6665 3.10084 46.755 -32.7665 2.64083 
43.245 -32.0078 2.17195 43.305 -32.3891 2.94293 42.7022 -32.6189 2.48846 
48.4018 -32.031 1.73455 48.8724 -32.6146 1.49987 47.3813 -32.4379 2.12684 
46.2779 -31.6583 1.74427 43.251 -32.0256 1.5493 42.7682 -32.4684 1.74948 
48.3649 -32.0133 0.839119 48.7664 -32.4652 0.632727 44.7259 -32.2595 0.415583 
44.241 -32.6565 0.90331 43.2857 -32.446 1.12428 48.5145 -32.4796 0.0814679 
48.0623 -32.3114 -0.629573 44.6322 -32.7072 -0.548111 47.4623 -32.0878 -1.3806 
47.8639 -32.463 -1.38986 46.9518 -32.3063 -1.46895 46.1658 -32.1286 -1.29852 
45.4268 -32.2617 -1.50205 45.7886 -32.4949 -1.57418 44.9282 -32.4407 -1.45125 
47.2458 -32.8191 -1.81996 45.4672 -32.8077 -1.97155 46.1633 -32.9427 3.64291 
46.0219 -33.6971 3.89732 46.6017 -33.3244 3.24411 45.0673 -33.2856 3.97535 
44.5386 -32.9314 3.46856 44.9524 -33.5913 3.53576 48.5504 -32.8577 2.35632 
47.015 -33.4432 2.58982 45.2887 -33.7849 2.94996 45.0431 -33.1496 2.73887 
45.6188 -33.3986 2.25552 44.3504 -33.12 2.54222 43.2968 -33.5112 2.96829 
43.9165 -33.5656 2.54051 42.1769 -33.0743 2.16569 42.4448 -33.2958 2.84876 
41.9059 -33.741 2.51222 49.3963 -33.1077 1.39674 49.2189 -33.4999 1.82788 
49.6509 -33.5026 1.24197 48.3318 -33.5237 2.20221 47.5212 -33.5448 2.2158 
45.0621 -33.1188 1.42579 45.9119 -33.6679 1.60194 44.6297 -33.5491 1.46823 
44.3335 -33.8117 2.05354 42.3746 -32.972 1.44053 41.9406 -33.5864 1.78264 
49.2564 -32.9896 0.709325 49.6883 -33.8379 0.446674 45.3897 -33.7371 0.970421 
44.8365 -33.1824 0.425232 44.1983 -33.5977 0.923715 43.4666 -33.338 0.91214 
42.5775 -33.5738 1.14843 49.0955 -33.2937 -0.0951761 48.5092 -32.9659 -0.54538 
48.9066 -33.6797 -0.900371 44.3816 -33.3283 -0.164822 44.299 -33.2608 -0.767474 
44.0629 -33.7635 -0.310055 48.3379 -33.0536 -1.22723 48.6505 -33.7845 -1.77068 
46.3189 -32.7275 -1.69634 44.6034 -33.2838 -1.42124 44.2723 -33.8545 -1.00064 
48.0123 -33.3344 -1.98355 47.2011 -33.5187 -2.22411 46.0684 -33.5373 -2.2427 
45.4368 -33.2772 -2.54798 45.5657 -33.5243 -2.6375 45.0301 -33.3654 -2.24884 
45.3069 -33.5039 -2.72035 52.3184 -34.3222 3.4409 52.25 -34.6872 3.84602 
52.6267 -34.4115 3.46838 51.9044 -34.5971 3.51808 46.3113 -34.8706 3.92579 
46.8639 -34.2156 3.32116 45.3633 -34.2738 3.94756 45.0188 -34.5207 3.52408 
52.4483 -34.6305 3.19759 47.9736 -34.1462 2.42704 48.4042 -34.6225 2.76934 
48.7282 -34.381 2.38379 47.3206 -34.0546 2.60266 47.6388 -34.5554 3.00739 
45.8812 -34.129 2.31402 45.2509 -34.7439 2.99561 43.1231 -34.8166 2.9449 
43.8049 -34.2581 2.53988 42.3314 -34.2808 2.93009 41.9126 -34.4737 2.34942 
49.4088 -34.4958 2.07432 49.739 -34.2523 1.36704 46.397 -34.7396 1.89446 
46.3395 -34.1454 1.61995 46.6343 -34.6819 1.1885 44.357 -34.7605 1.99607 
44.7144 -34.2876 1.39824 42.0988 -34.0946 1.60587 42.5436 -34.424 1.36945 
42.1772 -34.8447 1.91889 49.8364 -34.6887 0.687015 46.0578 -34.4615 1.01341 
45.2318 -34.5319 1.02634 44.5604 -33.8336 0.620114 43.8815 -34.2885 0.325335 
43.2832 -34.4842 0.941168 49.4124 -33.9348 -0.3806 49.6942 -34.7264 -0.439609 
44.0025 -34.4626 -0.37177 49.3085 -34.3399 -0.968282 49.0732 -34.389 -1.63994 
44.7936 -34.4586 -1.66622 44.3792 -34.6092 -0.855062 48.3769 -34.0089 -2.40629 
48.8085 -34.382 -2.30836 47.6454 -34.0013 -2.56297 46.6513 -34.0868 -2.52347 
45.876 -34.3746 -2.43964 45.3588 -34.5124 -2.25288 45.3495 -33.8683 -2.41149 
48.3218 -34.652 -2.9432 47.0625 -34.5053 -3.02467 46.1908 -34.5816 -2.81683 
41.2874 -35.2864 10.4296 41.4497 -35.4442 10.7175 41.5841 -35.4503 10.2989 
40.8878 -35.6598 10.3772 41.2215 -35.5351 10.0067 54.0258 -35.1888 4.44483 
54.2265 -35.724 5.01644 54.6659 -35.6893 4.66886 53.1783 -35.0583 4.4599 
53.5204 -35.4269 4.82371 52.559 -35.0161 4.32281 52.6678 -35.6038 4.9424 
51.9202 -35.3724 4.55844 54.4588 -35.5732 3.95086 53.8106 -35.5009 3.29594 
53.2426 -34.9123 3.73186 51.3063 -34.9677 3.21049 51.4456 -35.1609 3.98481 
50.0704 -35.1302 3.33449 50.598 -35.4453 3.99038 49.1731 -35.1671 3.48383 
49.6046 -35.4959 3.99495 48.2258 -35.0421 3.36984 48.4622 -35.6193 3.98603 
47.238 -34.9096 3.57591 47.191 -35.5671 3.91488 46.2541 -35.6231 4.02086 
45.4732 -35.3896 3.86222 45.0221 -35.3265 3.42391 53.0971 -35.2485 2.8999 
52.2707 -35.0875 2.63517 52.7624 -35.5197 2.27775 51.465 -35.1549 2.46038 
50.3757 -35.1294 2.45027 49.2652 -34.8566 2.80392 45.7913 -35.3757 2.61477 
45.2699 -35.631 3.16875 43.2684 -35.7597 2.91931 43.8305 -35.3158 2.5601 
42.4509 -35.4188 2.89552 42.049 -35.3355 2.47271 52.0286 -35.4882 2.01513 
51.0356 -35.6844 1.98104 50.3883 -35.6413 2.0121 49.9312 -35.3809 1.56721 
46.7287 -35.2708 1.42983 46.3538 -35.7292 1.98064 44.3671 -35.8241 2.03989 
44.8687 -35.2554 1.46967 42.7302 -35.4346 1.62353 42.3069 -35.6581 2.21871 
49.804 -35.5361 0.512294 46.4794 -34.9964 0.602771 46.8397 -35.5141 0.639555 
46.0446 -35.3535 0.542858 45.4595 -35.5779 0.957309 43.8266 -35.3759 0.273204 
43.2829 -35.7792 1.02909 49.9287 -35.7518 -0.549922 46.4574 -35.6793 0.18076 
44.2455 -35.1161 -0.327311 44.5646 -35.2964 -0.757403 44.2834 -35.7004 -0.214988 
49.4363 -34.8297 -1.44304 49.7101 -35.413 -1.52521 44.6654 -35.5219 -1.36536 
49.252 -35.022 -2.28836 49.6713 -35.868 -2.58904 45.4563 -34.9599 -2.83857 
44.8145 -35.4956 -2.38366 49.0951 -35.3672 -3.07864 48.3059 -35.1429 -3.61041 
48.7862 -35.5592 -3.68072 47.3309 -34.8579 -3.6554 46.2627 -34.8405 -3.4006 
45.5312 -35.1963 -3.75553 44.9907 -35.6374 -3.46985 48.2063 -35.4344 -4.11534 
47.7306 -35.5359 -4.70053 47.5069 -35.1771 -4.2877 46.4431 -35.1287 -4.32298 
45.6373 -35.6579 -4.64817 45.1825 -35.6517 -4.15118 46.9728 -35.4689 -5.00547 
46.2507 -35.5921 -5.09458 42.0582 -36.2212 12.3423 42.3218 -36.4889 12.7151 
42.5854 -36.5341 12.2712 42.0629 -36.6508 12.5259 42.309 -36.1042 11.7377 
42.7176 -36.4684 11.4 41.5112 -36.604 12.11 41.2471 -35.8876 11.3668 
40.2322 -36.1404 11.2325 40.6066 -36.6007 11.939 39.9231 -36.7168 11.6474 
42.1206 -35.9133 10.6376 42.8575 -36.5813 10.3686 40.3655 -35.9827 10.6572 
39.9004 -36.5708 10.748 42.353 -36.2212 9.66367 42.7056 -36.4909 9.49854 
41.6378 -35.975 9.59163 40.909 -36.2138 9.58306 40.3051 -36.6046 10.0152 
44.1006 -36.2316 8.53164 44.2695 -36.4034 8.88492 44.5629 -36.5362 8.46879 
43.5574 -36.2559 8.38097 43.7132 -36.3951 8.89975 42.1019 -36.6735 8.97097 
43.089 -36.4849 8.59416 41.2777 -36.6962 9.09119 43.9674 -36.5906 7.98148 
43.0809 -36.7189 8.11551 54.2228 -36.2522 5.45026 54.3367 -36.5081 5.61375 
54.5698 -36.3646 5.23253 54.0759 -36.5158 5.55332 51.9254 -36.0349 5.35977 
52.1703 -36.5688 5.85563 52.7295 -36.5296 5.67856 51.1008 -36.1929 5.28256 
51.6427 -36.5604 5.78119 51.0654 -36.6572 5.49163 54.9975 -36.3474 4.46497 
53.6422 -36.4363 5.29964 51.2021 -35.7485 4.67343 50.3313 -36.7201 5.09954 
50.2124 -35.9843 4.66185 49.0788 -35.9949 4.51075 49.2934 -36.6157 4.91151 
48.2718 -36.178 4.4526 48.3527 -36.6493 4.82158 47.7179 -36.6979 4.63457 
55.0809 -36.1685 3.54929 55.5798 -36.5598 3.93676 55.6486 -36.5711 3.3593 
54.3248 -35.8437 3.24214 47.5087 -36.2755 4.24629 46.2821 -36.3187 4.04844 
45.3656 -35.9785 3.58657 45.7079 -36.5627 3.52572 55.2032 -36.4444 2.91774 
54.7716 -36.5569 2.30939 54.4064 -36.1858 2.60099 53.5086 -35.8117 2.50129 
45.8927 -36.5305 2.64667 43.0096 -36.3388 2.81329 43.7608 -36.2757 2.58807 
42.3845 -36.0034 2.65229 42.8037 -36.564 2.22768 54.1527 -36.4453 1.85849 
53.6948 -36.5435 1.25885 53.5213 -36.1936 1.71847 52.6212 -35.9677 1.60024 
51.6236 -36.0769 1.47645 50.8638 -36.3731 1.58051 50.3387 -36.2123 1.73958 
49.9331 -36.5688 1.17926 46.7335 -36.1588 1.31516 46.2965 -36.7944 1.96346 
44.1708 -36.8758 2.06587 44.8737 -36.4562 1.39224 42.9003 -36.5373 1.42532 
52.9813 -36.4663 0.979273 52.034 -36.6618 0.941847 51.0773 -36.8264 1.2124 
49.9187 -36.3265 0.330813 47.0093 -36.479 0.53442 45.2733 -36.6075 0.822311 
45.7437 -36.4367 0.310914 43.6304 -36.4514 0.406522 43.2255 -36.5984 0.902235 
50.2292 -36.2335 -0.331521 50.28 -36.8485 -0.0360056 50.5481 -36.7455 -0.744393 
47.0915 -36.1304 -0.23676 47.6285 -36.6357 -0.815775 47.3854 -36.763 -0.120435 
46.4062 -36.4413 -0.218164 46.7954 -36.6742 -0.707678 44.3656 -35.9898 -0.78061 
43.9932 -36.345 -0.245696 50.267 -36.3175 -0.91947 50.0304 -36.2799 -1.69859 
47.3081 -36.5447 -0.955713 44.3485 -36.0535 -1.70791 43.8391 -36.6757 -1.16834 
50.0084 -36.5299 -2.70514 44.384 -36.1778 -2.58323 43.8701 -36.5102 -2.17889 
49.2796 -35.8885 -3.57903 49.8451 -36.409 -3.63954 44.6353 -36.3736 -3.46074 
44.1285 -36.5609 -2.97071 49.2445 -36.1277 -4.52495 49.8301 -36.5056 -4.78773 
48.4846 -35.8161 -4.47388 45.2439 -35.9985 -4.57898 44.9904 -36.2819 -4.27453 
49.3181 -36.2507 -5.3204 49.637 -36.5474 -5.61271 48.5859 -36.1141 -5.38527 
47.562 -35.9567 -5.41812 46.5795 -36.0252 -5.59633 45.909 -36.2723 -5.40177 
[...]
CELL_DATA 33700
SCALARS scalars float
LOOKUP_TABLE default
2011 2011 2011 2011 2011 2011 2011 2011 2011 
2011 2011 2011 2011 2011 2011 2011 2011 2011 
2011 2011 2011 2011 2011 2011 2011 2011 2011 
2011 2011 2011 2011 2011 2011 2011 2011 2011 
2011 2011 2011 2011 2011 2011 2011 2011 2011 
2011 2011 2011 2011 2011 2011 2011 2011 2011 
2011 2011 2011 2011 2011 2011 2011 2011 2011 
2011 2011 2011 2011 2011 2011 2011 2011 2011 
2011 2011 2011 2011 2011 2011 2011 2011 2011 
2011 2011 2011 2011 2011 2011 2011 2011 2011 
2011 2011 2011 2011 2011 2011 2011 2011 2011 
2011 2011 2011 2011 2011 2011 2011 2011 2011 
2011 2011 2011 2011 2011 2011 2011 2011 2011 
2011 2011 2011 2011 2011 2011 2011 2011 2011 
2011 2011 2011 2011 2011 2011 2011 2011 2011 
2011 2011 2011 2011 2011 2011 2011 2011 2011 
2011 2011 2011 2011 2011 2011 2011 2011 2011 
2011 2011 2011 2011 2011 2011 2011 2011 2011 
2011 2011 2011 2011 2011 2011 2011 2011 2011 
2011 2011 2011 2011 2011 2011 2011 2011 2011 
2011 2011 2011 2011 2011 2011 2011 2011 2011 
2011 2011 2011 2011 2011 2011 2011 2011 2011 
2011 2011 2011 2011 2011 2011 2011 2011 2011 
2011 2011 2011 2011 2011 2011 2011 2011 2011 
2011 2011 2011 2011 2011 2011 2011 2011 2011 
2011 2011 2011 2011 2011 2011 2011 2011 2011 
2011 2011 2011 2011 2011 2011 2011 2011 2011 
2011 2011 2011 2011 2011 2011 2011 2011 2011 
2011 2011 2011 2011 2011 2011 2011 2011 2011 
2011 2011 2011 2011 2011 2011 2011 2011 2011 
2011 2011 2011 2011 2011 2011 2011 2011 2011 
2011 2011 2011 2011 2011 2011 2011 2011 2011 
2011 2011 2011 2011 2011 2011 2011 2011 2011 
2011 2011 2011 2011 2011 2011 2011 2011 2011 
2011 2011 2011 2011 2011 2011 2011 2011 2011 
2011 2011 2011 2011 2011 2011 2011 2011 2011 
2011 2011 2011 2011 2011 2011 2011 2011 2011 
2011 2011 2011 2011 2011 2011 2011 2011 2011 
2011 2011 2011 2011 2011 2011 2011 2011 2011 
2011 2011 2011 2011 2011 2011 2011 2011 2011 
2011 2011 2011 2011 2011 2011 2011 2011 2011 
2011 2011 2011 2011 2011 2011 2011 2011 2011 
2011 2011 2011 2011 2011 2011 2011 2011 2011 
2011 2011 2011 2011 2011 2011 2011 2011 2011 
2011 2011 2011 2011 2011 2011 2011 2011 2011 
2011 2011 2011 2011 2011 2011 2011 2011 2011 
2011 2011 2011 2011 2011 2011 2011 2011 2011 
2011 2011 2011 2011 2011 2011 2011 2011 2011 
2011 2011 2011 2011 2011 2011 2011 2011 2011 
2011 2011 2011 2011 2011 2011 2011 2011 2011 
2011 2011 2011 2011 2011 2011 2011 2011 2011 
2011 2011 2011 2011 2011 2011 2011 2011 2011 
2011 2011 2011 2011 2011 2011 2011 2011 2011 
2011 2011 2011 2011 2011 2011 2011 2011 2011 
2011 2011 2011 2011 2011 2011 2011 2011 2011 
2011 2011 2011 2011 2011 2011 2011 2011 2011 
2011 2011 2011 2011 2011 2011 2011 2011 2011 
2011 2011 2011 2011 2011 2011 2011 2011 2011 
2011 2011 2011 2011 2011 2011 2011 2011 2011 
2011 2011 2011 2011 2011 2011 2011 2011 2011 
2011 2011 2011 2011 2011 2011 2011 2011 2011 
2011 2011 2011 2011 2011 2011 2011 2011 2011 
2011 2011 2011 2011 2011 2011 2011 2011 2011 
2011 2011 2011 2011 2011 2011 2011 2011 2011 
2011 2011 2011 2011 2011 2011 2011 2011 2011 
2011 2011 2011 2011 2011 2011 2011 2011 2011 
2011 2011 2011 2011 2011 2011 2011 2011 2011 
2011 2011 2011 2011 2011 2011 2011 2011 2011 
2011 2011 2011 2011 2011 2011 2011 2011 2011 
2011 2011 2011 2011 2011 2011 2011 2011 2011 
2011 2011 2011 2011 2011 2011 2011 2011 2011 
2011 2011 2011 2011 2011 2011 2011 2011 2011 
2011 2011 2011 2011 2011 2011 2011 2011 2011 
2011 2011 2011 2011 2011 2011 2011 2011 2011 
2011 2011 2011 2011 2011 2011 2011 2011 2011 
2011 2011 2011 2011 2011 2011 2011 2011 2011 
2011 2011 2011 2011 2011 2011 2011 2011 2011 
2011 2011 2011 2011 2011 2011 2011 2011 2011 
2011 2011 2011 2011 2011 2011 2011 2011 2011 
2011 2011 2011 2011 2011 2011 2011 2011 2011 
2011 2011 2011 2011 2011 2011 2011 2011 2011 
2011 2011 2011 2011 2011 2011 2011 2011 2011 
2011 2011 2011 2011 2011 2011 2011 2011 2011 
2011 2011 2011 2011 2011 2011 2011 2011 2011 
2011 2011 2011 2011 2011 2011 2011 2011 2011 
2011 2011 2011 2011 2011 2011 2011 2011 2011 
2011 2011 2011 2011 2011 2011 2011 2011 2011 
2011 2011 2011 2011 2011 2011 2011 2011 2011 
2011 2011 2011 2011 2011 2011 2011 2011 2011 
2011 2011 2011 2011 2011 2011 2011 2011 2011 
2011 2011 2011 2011 2011 2011 2011 2011 2011 
2011 2011 2011 2011 2011 2011 2011 2011 2011 
2011 2011 2011 2011 2011 2011 2011 2011 2011 
2011 2011 2011 2011 2011 2011 2011 2011 2011 
2011 2011 2011 2011 2011 2011 2011 2011 2011 
2011 2011 2011 2011 2011 2011 2011 2011 2011 
2011 2011 2011 2011 2011 2011 2011 2011 2011 
2011 2011 2011 2011 2011 2011 2011 2011 2011 
2011 2011 2011 2011 2011 2011 2011 2011 2011 
2011 2011 2011 2011 2011 2011 2011 2011 2011 
2011 2011 2011 2011 2011 2011 2011 2011 2011 
2011 2011 2011 2011 2011 2011 2011 2011 2011 
2011 2011 2011 2011 2011 2011 2011 2011 2011 
2011 2011 2011 2011 2011 2011 2011 2011 2011 
2011 2011 2011 2011 2011 2011 2011 2011 2011 
2011 2011 2011 2011 2011 2011 2011 2011 2011 
2011 2011 2011 2011 2011 2011 2011 2011 2011 
2011 2011 2011 2011 2011 2011 2011 2011 2011 
2011 2011 2011 2011 2011 2011 2011 2011 2011 
2011 2011 2011 2011 2011 2011 2011 2011 2011 
2011 2011 2011 2011 2011 2011 2011 2011 2011 
2011 2011 2011 2011 2011 2011 2011 2011 2011 
2011 2011 2011 2011 2011 2011 2011 2011 2011 
2011 2011 2011 2011 2011 2011 2011 2011 2011 
2011 2011 2011 2011 2011 2011 2011 2011 2011 
2011 2011 2011 2011 2011 2011 2011 2011 2011 
2011 2011 2011 2011 2011 2011 2011 2011 2011 
2011 2011 2011 2011 2011 2011 2011 2011 2011 
2011 2011 2011 2011 2011 2011 2011 2011 2011 
2011 2011 2011 2011 2011 2011 2011 2011 2011 
2011 2011 2011 2011 2011 2011 2011 2011 2011 
2011 2011 2011 2011 2011 2011 2011 2011 2011 
2011 2011 2011 2011 2011 2011 2011 2011 2011 
2011 2011 2011 2011 2011 2011 2011 2011 2011 
2011 2011 2011 2011 2011 2011 2011 2011 2011 
2011 2011 2011 2011 2011 2011 2011 2011 2011 
2011 2011 2011 2011 2011 2011 2011 2011 2011 
2011 2011 2011 2011 2011 2011 2011 2011 2011 
2011 2011 2011 2011 2011 2011 2011 2011 2011 
2011 2011 2011 2011 2011 2011 2011 2011 2011 
2011 2011 2011 2011 2011 2011 2011 2011 2011 
2011 2011 2011 2011 2011 2011 2011 2011 2011 
2011 2011 2011 2011 2011 2011 2011 2011 2011 
2011 2011 2011 2011 2011 2011 2011 2011 2011 
2011 2011 2011 2011 2011 2011 2011 2011 2011 
2011 2011 2011 2011 2011 2011 2011 2011 2011 
2011 2011 2011 2011 2011 2011 2011 2011 2011 
2011 2011 2011 2011 2011 2011 2011 2011 2011 
2011 2011 2011 2011 2011 2011 2011 2011 2011 
2011 2011 2011 2011 2011 2011 2011 2011 2011 
2011 2011 2011 2011 2011 2011 2011 2011 2011 
2011 2011 2011 2011 2011 2011 2011 2011 2011 
2011 2011 2011 2011 2011 2011 2011 2011 2011 
2011 2011 2011 2011 2011 2011 2011 2011 2011 
2011 2011 2011 2011 2011 2011 2011 2011 2011 
2011 2011 2011 2011 2011 2011 2011 2011 2011 
2011 2011 2011 2011 2011 2011 2011 2011 2011 
2011 2011 2011 2011 2011 2011 2011 2011 2011 
2011 2011 2011 2011 2011 2011 2011 2011 2011 
2011 2011 2011 2011 2011 2011 2011 2011 2011 
2011 2011 2011 2011 2011 2011 2011 2011 2011 
2011 2011 2011 2011 2011 2011 2011 2011 2011 
2011 2011 2011 2011 2011 2011 2011 2011 2011 
2011 2011 2011 2011 2011 2011 2011 2011 2011 
2011 2011 2011 2011 2011 2011 2011 2011 2011 
2011 2011 2011 2011 2011 2011 2011 2011 2011 
2011 2011 2011 2011 2011 2011 2011 2011 2011 
2011 2011 2011 2011 2011 2011 2011 2011 2011 
2011 2011 2011 2011 2011 2011 2011 2011 2011 
2011 2011 2011 2011 2011 2011 2011 2011 2011 
2011 2011 2011 2011 2011 2011 2011 2011 2011 
2011 2011 2011 2011 2011 2011 2011 2011 2011 
2011 2011 2011 2011 2011 2011 2011 2011 2011 
2011 2011 2011 2011 2011 2011 2011 2011 2011 
2011 2011 2011 2011 2011 2011 2011 2011 2011 
2011 2011 2011 2011 2011 2011 2011 2011 2011 
2011 2011 2011 2011 2011 2011 2011 2011 2011 
2011 2011 2011 2011 2011 2011 2011 2011 2011 
2011 2011 2011 2011 2011 2011 2011 2011 2011 
2011 2011 2011 2011 2011 2011 2011 2011 2011 
2011 2011 2011 2011 2011 2011 2011 2011 2011 
2011 2011 2011 2011 2011 2011 2011 2011 2011 
2011 2011 2011 2011 2011 2011 2011 2011 2011 
2011 2011 2011 2011 2011 2011 2011 2011 2011 
2011 2011 2011 2011 2011 2011 2011 2011 2011 
2011 2011 2011 2011 2011 2011 2011 2011 2011 
2011 2011 2011 2011 2011 2011 2011 2011 2011 
2011 2011 2011 2011 2011 2011 2011 2011 2011 
2011 2011 2011 2011 2011 2011 2011 2011 2011 
2011 2011 2011 2011 2011 2011 2011 2011 2011 
2011 2011 2011 2011 2011 2011 2011 2011 2011 
2011 2011 2011 2011 2011 2011 2011 2011 2011 
2011 2011 2011 2011 2011 2011 2011 2011 2011 
2011 2011 2011 2011 2011 2011 2011 2011 2011 
2011 2011 2011 2011 2011 2011 2011 2011 2011 
2011 2011 2011 2011 2011 2011 2011 2011 2011 
2011 2011 2011 2011 2011 2011 2011 2011 2011 
2011 2011 2011 2011 2011 2011 2011 2011 2011 
2011 2011 2011 2011 2011 2011 2011 2011 2011 
2011 2011 2011 2011 2011 2011 2011 2011 2011 
2011 2011 2011 2011 2011 2011 2011 2011 2011 
2011 2011 2011 2011 2011 2011 2011 2011 2011 
2011 2011 2011 2011 2011 2011 2011 2011 2011 
2011 2011 2011 2011 2011 2011 2011 2011 2011 
2011 2011 2011 2011 2011 2011 2011 2011 2011 
2011 2011 2011 2011 2011 2011 2011 2011 2011 
2011 2011 2011 2011 2011 2011 2011 2011 2011 
2011 2011 2011 2011 2011 2011 2011 2011 2011 
2011 2011 2011 2011 2011 2011 2011 2011 2011 
2011 2011 2011 2011 2011 2011 2011 2011 2011 
2011 2011 2011 2011 2011 2011 2011 2011 2011 
2011 2011 2011 2011 2011 2011 2011 2011 2011 
2011 2011 2011 2011 2011 2011 2011 2011 2011 
2011 2011 2011 2011 2011 2011 2011 2011 2011 
2011 2011 2011 2011 2011 2011 2011 2011 2011 
2011 2011 2011 2011 2011 2011 2011 2011 2011 
2011 2011 2011 2011 2011 2011 2011 2011 2011 
2011 2011 2011 2011 2011 2011 2011 2011 2011 
2011 2011 2011 2011 2011 2011 2011 2011 2011 
2011 2011 2011 2011 2011 2011 2011 2011 2011 
2011 2011 2011 2011 2011 2011 2011 2011 2011 
2011 2011 2011 2011 2011 2011 2011 2011 2011 
2011 2011 2011 2011 2011 2011 2011 2011 2011 
2011 2011 2011 2011 2011 2011 2011 2011 2011 
2011 2011 2011 2011 2011 2011 2011 2011 2011 
2011 2011 2011 2011 2011 2011 2011 2011 2011 
2011 2011 2011 2011 2011 2011 2011 2011 2011 
2011 2011 2011 2011 2011 2011 2011 2011 2011 
2011 2011 2011 2011 2011 2011 2011 2011 2011 
2011 2011 2011 2011 2011 2011 2011 2011 2011 
2011 2011 2011 2011 2011 2011 2011 2011 2011 
2011 2011 2011 2011 2011 2011 2011 2011 2011 
2011 2011 2011 2011 2011 2011 2011 2011 2011 
2011 2011 2011 2011 2011 2011 2011 2011 2011 
2011 2011 2011 2011 2011 2011 2011 2011 2011 
2011 2011 2011 2011 2011 2011 2011 2011 2011 
2011 2011 2011 2011 2011 2011 2011 2011 2011 
2011 2011 2011 2011 2011 2011 2011 2011 2011 
2011 2011 2011 2011 2011 2011 2011 2011 2011 
2011 2011 2011 2011 2011 2011 2011 2011 2011 
2011 2011 2011 2011 2011 2011 2011 2011 2011 
2011 2011 2011 2011 2011 2011 2011 2011 2011 
2011 2011 2011 2011 2011 2011 2011 2011 2011 
2011 2011 2011 2011 2011 2011 2011 2011 2011 
2011 2011 2011 2011 2011 2011 2011 2011 2011 
2011 2011 2011 2011 2011 2011 2011 2011 2011 
2011 2011 2011 2011 2011 2011 2011 2011 2011 
2011 2011 2011 2011 2011 2011 2011 2011 2011 
2011 2011 2011 2011 2011 2011 2011 2011 2011 
2011 2011 2011 2011 2011 2011 2011 2011 2011 
2011 2011 2011 2011 2011 2011 2011 2011 2011 
2011 2011 2011 2011 2011 2011 2011 2011 2011 
2011 2011 2011 2011 2011 2011 2011 2011 2011 
2011 2011 2011 2011 2011 2011 2011 2011 2011 
2011 2011 2011 2011 2011 2011 2011 2011 2011 
2011 2011 2011 2011 2011 2011 2011 2011 2011 
2011 2011 2011 2011 2011 2011 2011 2011 2011 
2011 2011 2011 2011 2011 2011 2011 2011 2011 
2011 2011 2011 2011 2011 2011 2011 2011 2011 
2011 2011 2011 2011 2011 2011 2011 2011 2011 
2011 2011 2011 2011 2011 2011 2011 2011 2011 
2011 2011 2011 2011 2011 2011 2011 2011 2011 
2011 2011 2011 2011 2011 2011 2011 2011 2011 
2011 2011 2011 2011 2011 2011 2011 2011 2011 
2011 2011 2011 2011 2011 2011 2011 2011 2011 
2011 2011 2011 2011 2011 2011 2011 2011 2011 
2011 2011 2011 2011 2011 2011 2011 2011 2011 
2011 2011 2011 2011 2011 2011 2011 2011 2011 
2011 2011 2011 2011 2011 2011 2011 2011 2011 
2011 2011 2011 2011 2011 2011 2011 2011 2011 
2011 2011 2011 2011 2011 2011 2011 2011 2011 
2011 2011 2011 2011 2011 2011 2011 2011 2011 
2011 2011 2011 2011 2011 2011 2011 2011 2011 
2011 2011 2011 2011 2011 2011 2011 2011 2011 
2011 2011 2011 2011 2011 2011 2011 2011 2011 
2011 2011 2011 2011 2011 2011 2011 2011 2011 
2011 2011 2011 2011 2011 2011 2011 2011 2011 
2011 2011 2011 2011 2011 2011 2011 2011 2011 
2011 2011 2011 2011 2011 2011 2011 2011 2011 
2011 2011 2011 2011 2011 2011 2011 2011 2011 
2011 2011 2011 2011 2011 2011 2011 2011 2011 
2011 2011 2011 2011 2011 2011 2011 2011 2011 
2011 2011 2011 2011 2011 2011 2011 2011 2011 
2011 2011 2011 2011 2011 2011 2011 2011 2011 
2011 2011 2011 2011 2011 2011 2011 2011 2011 
2011 2011 2011 2011 2011 2011 2011 2011 2011 
2011 2011 2011 2011 2011 2011 2011 2011 2011 
2011 2011 2011 2011 2011 2011 2011 2011 2011 
2011 2011 2011 2011 2011 2011 2011 2011 2011 
2011 2011 2011 2011 2011 2011 2011 2011 2011 
2011 2011 2011 2011 2011 2011 2011 2011 2011 
2011 2011 2011 2011 2011 2011 2011 2011 2011 
2011 2011 2011 2011 2011 2011 2011 2011 2011 
2011 2011 2011 2011 2011 2011 2011 2011 2011 
2011 2011 2011 2011 2011 2011 2011 2011 2011 
2011 2011 2011 2011 2011 2011 2011 2011 2011 
2011 2011 2011 2011 2011 2011 2011 2011 2011 
2011 2011 2011 2011 2011 2011 2011 2011 2011 
2011 2011 2011 2011 2011 2011 2011 2011 2011 
2011 2011 2011 2011 2011 2011 2011 2011 2011 
2011 2011 2011 2011 2011 2011 2011 2011 2011 
2011 2011 2011 2011 2011 2011 2011 2011 2011 
2011 2011 2011 2011 2011 2011 2011 2011 2011 
2011 2011 2011 2011 2011 2011 2011 2011 2011 
2011 2011 2011 2011 2011 2011 2011 2011 2011 
2011 2011 2011 2011 2011 2011 2011 2011 2011 
2011 2011 2011 2011 2011 2011 2011 2011 2011 
2011 2011 2011 2011 2011 2011 2011 2011 2011 
2011 2011 2011 2011 2011 2011 2011 2011 2011 
2011 2011 2011 2011 2011 2011 2011 2011 2011 
2011 2011 2011 2011 2011 2011 2011 2011 2011 
2011 2011 2011 2011 2011 2011 2011 2011 2011 
2011 2011 2011 2011 2011 2011 2011 2011 2011 
2011 2011 2011 2011 2011 2011 2011 2011 2011 
2011 2011 2011 2011 2011 2011 2011 2011 2011 
2011 2011 2011 2011 2011 2011 2011 2011 2011 
2011 2011 2011 2011 2011 2011 2011 2011 2011 
2011 2011 2011 2011 2011 2011 2011 2011 2011 
2011 2011 2011 2011 2011 2011 2011 2011 2011 
2011 2011 2011 2011 2011 2011 2011 2011 2011 
2011 2011 2011 2011 2011 2011 2011 2011 2011 
2011 2011 2011 2011 2011 2011 2011 2011 2011 
2011 2011 2011 2011 2011 2011 2011 2011 2011 
2011 2011 2011 2011 2011 2011 2011 2011 2011 
2011 2011 2011 2011 2011 2011 2011 2011 2011 
2011 2011 2011 2011 2011 2011 2011 2011 2011 
2011 2011 2011 2011 2011 2011 2011 2011 2011 
2011 2011 2011 2011 2011 2011 2011 2011 2011 
2011 2011 2011 2011 2011 2011 2011 2011 2011 
2011 2011 2011 2011 2011 2011 2011 2011 2011 
2011 2011 2011 2011 2011 2011 2011 2011 2011 
2011 2011 2011 2011 2011 2011 2011 2011 2011 
2011 2011 2011 2011 2011 2011 2011 2011 2011 
2011 2011 2011 2011 2011 2011 2011 2011 2011 
2011 2011 2011 2011 2011 2011 2011 2011 2011 
2011 2011 2011 2011 2011 2011 2011 2011 2011 
2011 2011 2011 2011 2011 2011 2011 2011 2011 
2011 2011 2011 2011 2011 2011 2011 2011 2011 
2011 2011 2011 2011 2011 2011 2011 2011 2011 
2011 2011 2011 2011 2011 2011 2011 2011 2011 
2011 2011 2011 2011 2011 2011 2011 2011 2011 
2011 2011 2011 2011 2011 2011 2011 2011 2011 
2011 2011 2011 2011 2011 2011 2011 2011 2011 
2011 2011 2011 2011 2011 2011 2011 2011 2011 
2011 2011 2011 2011 2011 2011 2011 2011 2011 
2011 2011 2011 2011 2011 2011 2011 2011 2011 
2011 2011 2011 2011 2011 2011 2011 2011 2011 
2011 2011 2011 2011 2011 2011 2011 2011 2011 
2011 2011 2011 2011 2011 2011 2011 2011 2011 
2011 2011 2011 2011 2011 2011 2011 2011 2011 
2011 2011 2011 2011 2011 2011 2011 2011 2011 
2011 2011 2011 2011 2011 2011 2011 2011 2011 
2011 2011 2011 2011 2011 2011 2011 2011 2011 
2011 2011 2011 2011 2011 2011 2011 2011 2011 
2011 2011 2011 2011 2011 2011 2011 2011 2011 
2011 2011 2011 2011 2011 2011 2011 2011 2011 
2011 2011 2011 2011 2011 2011 2011 2011 2011 
2011 2011 2011 2011 2011 2011 2011 2011 2011 
2011 2011 2011 2011 2011 2011 2011 2011 2011 
2011 2011 2011 2011 2011 2011 2011 2011 2011 
2011 2011 2011 2011 2011 2011 2011 2011 2011 
2011 2011 2011 2011 2011 2011 2011 2011 2011 
2011 2011 2011 2011 2011 2011 2011 2011 2011 
2011 2011 2011 2011 2011 2011 2011 2011 2011 
2011 2011 2011 2011 2011 2011 2011 2011 2011 
2011 2011 2011 2011 2011 2011 2011 2011 2011 
2011 2011 2011 2011 2011 2011 2011 2011 2011 
2011 2011 2011 2011 2011 2011 2011 2011 2011 
2011 2011 2011 2011 2011 2011 2011 2011 2011 
2011 2011 2011 2011 2011 2011 2011 2011 2011 
2011 2011 2011 2011 2011 2011 2011 2011 2011 
2011 2011 2011 2011 2011 2011 2011 2011 2011 
2011 2011 2011 2011 2011 2011 2011 2011 2011 
2011 2011 2011 2011 2011 2011 2011 2011 2011 
2011 2011 2011 2011 2011 2011 2011 2011 2011 
2011 2011 2011 2011 2011 2011 2011 2011 2011 
2011 2011 2011 2011 2011 2011 2011 2011 2011 
2011 2011 2011 2011 2011 2011 2011 2011 2011 
2011 2011 2011 2011 2011 2011 2011 2011 2011 
2011 2011 2011 2011 2011 2011 2011 2011 2011 
2011 2011 2011 2011 2011 2011 2011 2011 2011 
2011 2011 2011 2011 2011 2011 2011 2011 2011 
2011 2011 2011 2011 2011 2011 2011 2011 2011 
2011 2011 2011 2011 2011 2011 2011 2011 2011 
2011 2011 2011 2011 2011 2011 2011 2011 2011 
2011 2011 2011 2011 2011 2011 2011 2011 2011 
2011 2011 2011 2011 2011 2011 2011 2011 2011 
2011 2011 2011 2011 2011 2011 2011 2011 2011 
2011 2011 2011 2011 2011 2011 2011 2011 2011 
2011 2011 2011 2011 2011 2011 2011 2011 2011 
2011 2011 2011 2011 2011 2011 2011 2011 2011 
2011 2011 2011 2011 2011 2011 2011 2011 2011 
2011 2011 2011 2011 2011 2011 2011 2011 2011 
2011 2011 2011 2011 2011 2011 2011 2011 2011 
2011 2011 2011 2011 2011 2011 2011 2011 2011 
2011 2011 2011 2011 2011 2011 2011 2011 2011 
2011 2011 2011 2011 2011 2011 2011 2011 2011 
2011 2011 2011 2011 2011 2011 2011 2011 2011 
2011 2011 2011 2011 2011 2011 2011 2011 2011 
2011 2011 2011 2011 2011 2011 2011 2011 2011 
2011 2011 2011 2011 2011 2011 2011 2011 2011 
2011 2011 2011 2011 2011 2011 2011 2011 2011 
2011 2011 2011 2011 2011 2011 2011 2011 2011 
2011 2011 2011 2011 2011 2011 2011 2011 2011 
2011 2011 2011 2011 2011 2011 2011 2011 2011 
2011 2011 2011 2011 2011 2011 2011 2011 2011 
2011 2011 2011 2011 2011 2011 2011 2011 2011 
2011 2011 2011 2011 2011 2011 2011 2011 2011 
2011 2011 2011 2011 2011 2011 2011 2011 2011 
2011 2011 2011 2011 2011 2011 2011 2011 2011 
2011 2011 2011 2011 2011 2011 2011 2011 2011 
2011 2011 2011 2011 2011 2011 2011 2011 2011 
2011 2011 2011 2011 2011 2011 2011 2011 2011 
2011 2011 2011 2011 2011 2011 2011 2011 2011 
2011 2011 2011 2011 2011 2011 2011 2011 2011 
2011 2011 2011 2011 2011 2011 2011 2011 2011 
2011 2011 2011 2011 2011 2011 2011 2011 2011 
2011 2011 2011 2011 2011 2011 2011 2011 2011 
2011 2011 2011 2011 2011 2011 2011 2011 2011 
2011 2011 2011 2011 2011 2011 2011 2011 2011 
2011 2011 2011 2011 2011 2011 2011 2011 2011 
2011 2011 2011 2011 2011 2011 2011 2011 2011 
2011 2011 2011 2011 2011 2011 2011 2011 2011 
2011 2011 2011 2011 2011 2011 2011 2011 2011 
2011 2011 2011 2011 2011 2011 2011 2011 2011 
2011 2011 2011 2011 2011 2011 2011 2011 2011 
2011 2011 2011 2011 2011 2011 2011 2011 2011 
2011 2011 2011 2011 2011 2011 2011 2011 2011 
2011 2011 2011 2011 2011 2011 2011 2011 2011 
2011 2011 2011 2011 2011 2011 2011 2011 2011 
2011 2011 2011 2011 2011 2011 2011 2011 2011 
2011 2011 2011 2011 2011 2011 2011 2011 2011 
2011 2011 2011 2011 2011 2011 2011 2011 2011 
2011 2011 2011 2011 2011 2011 2011 2011 2011 
2011 2011 2011 2011 2011 2011 2011 2011 2011 
2011 2011 2011 2011 2011 2011 2011 2011 2011 
2011 2011 2011 2011 2011 2011 2011 2011 2011 
2011 2011 2011 2011 2011 2011 2011 2011 2011 
2011 2011 2011 2011 2011 2011 2011 2011 2011 
2011 2011 2011 2011 2011 2011 2011 2011 2011 
2011 2011 2011 2011 2011 2011 2011 2011 2011 
2011 2011 2011 2011 2011 2011 2011 2011 2011 
2011 2011 2011 2011 2011 2011 2011 2011 2011 