# vtk DataFile Version 4.2
vtk output
ASCII
DATASET POLYDATA
POINTS 20416 float
18.2926 -6.31491 73.4534 18.2752 -6.38924 73.7135 18.5373 -6.49418 73.5793 
18.0591 -6.49591 73.5594 18.412 -6.67059 73.1951 17.2539 -6.3039 71.4301 
17.4175 -6.4823 71.7075 17.5147 -6.4548 71.2871 16.9787 -6.76981 71.5519 
17.1741 -6.55311 71.0189 18.1037 -7.23839 76.2686 18.4725 -7.72299 76.7282 
18.6228 -7.47453 76.2882 17.8672 -7.68506 76.7218 18.168 -7.08586 75.5095 
18.7254 -7.57592 75.5193 17.4015 -7.36488 76.1752 17.2986 -7.0872 75.6283 
16.3233 -7.18383 75.3246 16.5586 -7.41335 75.9913 15.4928 -7.30313 75.4015 
15.5912 -7.43904 75.8984 14.829 -7.74165 75.4053 18.306 -6.86556 74.2318 
19.0047 -7.53045 74.558 17.2812 -7.07016 74.6022 16.6663 -7.50236 74.6092 
16.1057 -7.60445 75.0209 15.3736 -7.72534 75.0202 19.0543 -7.06382 73.633 
19.4494 -7.62153 74.0537 19.5934 -7.80569 73.5185 17.552 -6.94544 73.3071 
16.907 -7.63624 73.7516 15.2641 -7.26147 73.4326 15.379 -7.55493 73.8965 
15.5501 -7.72013 73.3051 15.0084 -7.72366 73.5538 19.0683 -7.35393 72.9824 
18.2338 -7.0224 72.595 18.8229 -7.62071 72.3596 17.4083 -6.85791 72.2453 
16.8761 -7.50577 72.5495 15.2022 -7.52482 72.9669 18.0277 -6.93431 71.6229 
18.6768 -7.63977 71.4949 16.7323 -7.65627 71.5956 18.1401 -7.05718 70.4743 
18.6658 -7.59757 70.4791 17.4213 -6.87757 70.4853 16.8559 -7.37758 70.6973 
18.1869 -7.03112 69.455 18.6875 -7.58057 69.4855 17.435 -7.0319 69.3814 
16.8835 -7.54491 69.6301 18.3147 -7.14022 68.7027 18.6294 -7.7877 68.4584 
17.6198 -7.08307 68.5212 16.9191 -7.66143 68.5363 17.9657 -7.40165 67.9676 
17.2629 -7.55614 67.8673 17.2167 -7.27803 64.4358 17.4066 -7.4496 64.7004 
17.4955 -7.42635 64.2858 16.9762 -7.74169 64.5481 17.166 -7.54179 64.0282 
17.2126 -8.14363 77.3225 17.2244 -8.8217 77.8955 17.7781 -8.57246 77.5669 
15.9776 -8.08697 77.4444 16.3189 -8.60072 77.9706 14.9911 -8.18236 77.2986 
15.4873 -8.486 77.8713 14.7918 -8.82046 77.3861 18.2533 -8.5335 77.0805 
18.7418 -8.19965 76.4151 17.0919 -7.70096 76.5294 16.2583 -7.78637 76.6416 
15.1258 -7.84824 76.4523 14.34 -8.44576 76.9319 14.3082 -8.19119 76.4079 
14.0238 -8.57306 76.2277 18.9717 -8.43807 75.4965 14.3256 -8.05601 75.6868 
14.0078 -8.42896 75.6606 19.3092 -8.05242 74.6397 19.3419 -8.82354 74.963 
19.6607 -8.29648 74.2072 16.6093 -8.35673 74.3304 16.0277 -8.21229 74.79 
15.3604 -7.91597 74.4509 15.8801 -8.47011 74.1983 14.6707 -8.51555 74.547 
14.2609 -8.31659 75.174 19.7516 -8.79768 73.4396 16.7753 -8.39857 73.3466 
15.8123 -8.45743 73.4706 14.7671 -8.42952 73.4002 19.3744 -8.19351 72.8926 
19.0612 -8.37684 72.1495 16.7576 -8.5659 72.4653 15.3319 -7.99882 72.5068 
15.6156 -8.66271 72.6389 14.966 -8.37637 72.6806 18.9583 -8.38605 71.2373 
16.7519 -8.53761 71.4235 15.2387 -8.71623 72.1398 18.9291 -8.52447 70.199 
16.741 -8.47764 70.3912 18.829 -8.34258 69.3276 16.7242 -8.48026 69.3733 
18.8243 -8.65576 68.6522 16.724 -8.62408 68.5442 18.1457 -7.87122 67.3659 
18.6985 -8.50415 67.5996 17.3839 -7.91852 67.2595 16.8482 -8.40948 67.6694 
18.1835 -8.08184 66.4792 18.6904 -8.63048 66.5049 17.4228 -8.06732 66.4091 
16.8822 -8.60052 66.6724 18.3 -8.10954 65.66 18.6603 -8.61422 65.5244 
17.5227 -7.85554 65.3885 16.8594 -8.4573 65.5341 18.0481 -7.8846 64.5969 
18.6448 -8.59277 64.4771 16.7223 -8.59844 64.5666 18.4589 -8.03213 63.4504 
18.8783 -8.55464 63.5007 17.607 -7.93314 63.4167 16.8935 -8.47459 63.6104 
20.1374 -8.24559 62.5422 20.1987 -8.75357 62.7533 20.5789 -8.52589 62.4918 
19.2838 -8.13321 62.6302 19.4702 -8.55125 62.9319 18.3745 -8.12472 62.5674 
17.6399 -8.62825 62.3402 17.1786 -8.57411 62.8002 20.211 -8.54921 62.0322 
19.019 -8.42949 61.9445 18.2354 -8.6065 61.9213 31.9598 -8.1473 60.373 
32.434 -8.54091 60.8705 32.7777 -8.46114 60.1777 30.9909 -8.08661 60.3534 
31.5917 -8.45793 61.0492 30.2257 -8.20436 60.249 30.607 -8.45582 60.9718 
29.9007 -8.52662 60.566 32.2136 -8.07477 59.4869 32.861 -8.45157 59.209 
31.294 -7.93652 59.4776 30.3693 -8.07284 59.472 29.7172 -8.45062 59.7111 
32.3525 -8.20799 58.7192 32.6798 -8.54407 58.3858 31.6044 -8.08332 58.6126 
30.6444 -8.14696 58.5922 29.8337 -8.46342 58.7648 32.0033 -8.47293 58.0237 
31.0283 -8.46192 57.9306 30.1904 -8.55487 58.0899 29.1019 -8.17779 43.5202 
29.3314 -8.53716 43.9712 29.6297 -8.7409 43.4843 28.5199 -8.18211 43.3588 
28.6378 -8.35685 43.9056 27.9929 -8.72617 43.5672 29.0357 -8.48826 42.9267 
28.2389 -8.54218 42.9194 29.2897 -8.30678 40.5195 29.4286 -8.44086 40.7499 
29.6002 -8.37088 40.5141 28.9401 -8.77222 40.5406 29.4387 -8.69687 40.1217 
17.1864 -9.75056 77.9599 17.8774 -9.24287 77.5977 16.4659 -9.31366 78.1183 
15.5334 -9.29242 77.9329 14.9658 -9.70076 77.2628 18.3528 -9.75169 77.0665 
18.7133 -9.22521 76.4349 14.2798 -8.83155 76.5788 14.6015 -9.38383 76.4886 
18.9677 -9.53794 75.6746 14.2539 -8.86124 75.6184 14.5344 -9.62657 75.5718 
19.3232 -9.80783 75.0374 19.7117 -9.25904 74.3748 16.4028 -8.98691 74.4308 
14.171 -9.62121 74.9909 14.3319 -9.24626 74.3185 13.8593 -9.63504 74.5686 
19.865 -9.70164 73.6652 16.7069 -9.35062 73.6165 16.356 -9.68637 74.0388 
15.9615 -9.45877 73.5351 14.6684 -9.26549 73.4078 14.1003 -9.55433 74.0557 
19.4389 -8.8691 72.5734 19.747 -9.58484 72.6163 16.8118 -9.62509 72.5024 
15.6235 -9.75344 72.6974 15.0779 -9.42552 72.3894 19.3269 -9.02098 71.757 
19.6926 -9.69958 71.4727 16.8144 -9.5968 71.4508 15.3722 -9.33268 72.1503 
19.2936 -9.1029 70.802 19.6525 -9.87986 70.4034 16.7875 -9.54411 70.4304 
19.2248 -9.36207 70.034 18.9905 -9.26368 69.2976 16.7669 -9.51964 69.4207 
18.9562 -9.38799 68.2367 16.7566 -9.50868 68.4255 18.9292 -9.55069 67.196 
16.749 -9.51024 67.4292 18.8264 -9.36709 66.3305 16.7382 -9.50057 66.4214 
18.7799 -9.51746 65.5039 16.7254 -9.47299 65.4026 18.7356 -9.50675 64.4936 
16.7293 -9.47282 64.3948 22.051 -9.26688 63.5259 22.3812 -9.51322 63.7782 
22.6556 -9.6492 63.2552 21.4833 -9.28327 63.4509 21.3654 -9.63608 63.9602 
20.8417 -9.61339 63.5491 18.889 -9.46586 63.5951 16.7447 -9.61881 63.5598 
32.1471 -9.1715 62.2716 32.453 -9.55353 62.8243 32.9475 -9.42229 62.3292 
30.985 -9.14047 62.392 31.6052 -9.50384 63.0213 30.0185 -9.19007 62.2164 
30.6113 -9.49656 62.9809 29.8218 -9.52751 62.6453 22.0419 -9.46334 63.2129 
21.3397 -9.67237 63.1158 20.7648 -9.21494 62.4799 20.0396 -9.53172 62.9387 
19.4008 -9.46496 63.0774 17.2123 -8.97359 62.3789 16.9079 -9.40542 62.7402 
33.0774 -9.19342 61.688 33.4349 -9.63664 62.0814 33.6286 -9.63336 61.446 
32.3422 -8.84675 61.4281 31.2959 -8.82992 61.6781 30.1685 -8.85381 61.4371 
29.374 -9.39979 62.0277 29.3614 -9.1703 61.3624 28.9625 -9.72758 61.6287 
21.1204 -9.05172 61.3802 21.293 -9.48874 62.0173 21.7675 -9.53177 61.4871 
20.1636 -8.85794 61.2185 19.2784 -8.80346 61.2735 18.3765 -8.95331 61.2817 
17.7928 -9.262 61.536 17.2847 -9.6349 62.0134 33.1718 -8.98692 60.8016 
33.8316 -9.60848 60.407 29.3464 -8.95841 60.3441 28.897 -9.6476 60.7094 
22.1868 -9.11929 60.4696 22.4491 -9.55943 60.8475 22.8908 -9.35646 60.2305 
21.5247 -9.08051 60.2184 20.5532 -9.11676 60.5511 19.5095 -9.09683 60.5363 
18.5765 -9.2038 60.5221 17.9887 -9.55698 60.7323 33.4494 -8.96144 59.5938 
33.9885 -9.40693 59.4021 29.2382 -8.95935 59.1878 28.7447 -9.64488 59.7195 
23.027 -9.18876 59.6492 23.3038 -9.41168 59.878 23.5465 -9.52253 59.5546 
22.3788 -9.13456 59.5297 21.8243 -9.43264 59.5392 21.092 -9.70054 59.9144 
20.0107 -9.62783 60.0565 19.0676 -9.51698 60.0464 18.4752 -9.77845 60.1494 
34.0008 -9.14937 58.5183 34.3055 -9.46923 58.9385 34.7166 -9.54286 58.2726 
33.2332 -8.83593 58.4611 29.4247 -8.98417 58.1614 28.7438 -9.47608 58.6848 
23.1912 -9.70039 58.971 22.3368 -9.6607 59.1219 34.3419 -9.25001 57.68 
34.7937 -9.6598 57.3231 33.6129 -9.13071 57.6257 32.4944 -8.9954 57.5166 
31.2859 -8.83968 57.3242 30.1541 -8.87171 57.4001 29.2837 -9.16103 57.2989 
28.7604 -9.48049 57.7095 34.1326 -9.49295 57.206 33.2272 -9.60575 56.9832 
32.225 -9.46382 56.8234 31.6823 -9.59217 56.3462 31.3324 -9.18805 56.5954 
30.2825 -8.98885 56.4565 29.3998 -9.12201 56.4646 28.77 -9.48358 56.7158 
42.3498 -9.36329 55.5083 42.4637 -9.51296 55.7488 42.6036 -9.44615 55.5023 
42.0892 -9.56417 55.6326 38.089 -9.12487 55.262 38.3562 -9.54234 55.8884 
38.8381 -9.39985 55.3469 37.2653 -9.22512 55.3019 37.5718 -9.48169 55.963 
36.8935 -9.53921 55.6289 31.0804 -9.43751 55.9074 30.8146 -9.45212 55.123 
30.3024 -9.10382 55.4953 29.418 -9.11031 55.4649 28.7697 -9.46503 55.7215 
43.3825 -9.33289 54.4987 43.4411 -9.58833 54.8918 43.585 -9.74504 54.5456 
42.2997 -9.59049 55.2685 43.0233 -9.64343 54.4068 39.0862 -9.10228 54.4286 
39.4534 -9.55044 54.9152 39.8695 -9.42497 54.3068 38.2783 -8.94591 54.5068 
37.5899 -9.13583 54.4596 36.7991 -9.48177 54.8453 30.253 -9.12405 54.5356 
30.7606 -9.43965 54.1563 29.5901 -9.14542 54.3938 28.8369 -9.47884 54.7725 
43.3518 -9.50171 54.2822 40.0484 -9.17213 53.602 40.4562 -9.5637 53.8294 
40.7289 -9.47019 53.0704 39.504 -9.08925 53.282 38.491 -9.12641 53.7109 
37.7108 -9.40967 53.6442 37.0873 -9.53961 54.0579 30.218 -9.21933 53.7183 
30.7021 -9.45996 53.5074 29.7159 -9.40982 53.5644 29.1262 -9.54611 54.0002 
40.2579 -9.21236 52.7432 40.7219 -9.46463 52.487 39.7543 -9.35765 52.5599 
38.9849 -9.44051 52.8537 38.1835 -9.55056 53.1312 30.4346 -9.69338 53.1529 
27.9684 -9.24101 52.4674 28.3815 -9.56532 52.899 28.585 -9.50094 52.5556 
27.2638 -9.22491 52.2817 27.6337 -9.47962 52.9837 26.9538 -9.5405 52.5915 
40.4326 -9.67603 52.1598 28.3969 -9.56197 52.0368 28.0616 -9.35857 51.3961 
27.3365 -9.11305 51.379 26.6101 -9.67977 51.4511 27.9271 -9.13845 50.6173 
28.3676 -9.63614 51.1089 28.543 -9.81262 50.4289 27.2491 -8.90184 50.4591 
26.3846 -9.36987 50.8399 26.5778 -9.16323 50.3073 26.1079 -9.45692 50.4266 
28.1296 -9.32906 49.8784 27.9 -9.37697 49.0739 27.3149 -9.08751 49.566 
26.6638 -9.59737 49.6061 26.2776 -9.63261 50.1616 27.3546 -9.21996 48.6137 
27.7195 -9.62593 48.2613 26.9499 -9.55475 48.7495 27.1967 -9.65724 48.2234 
28.3082 -9.19731 45.126 28.4598 -9.53242 45.7186 28.8583 -9.39007 45.3361 
28.0095 -9.74474 45.6592 28.9741 -8.95748 44.6352 29.3802 -9.60716 45.1087 
[...]
CELL_DATA 40948
SCALARS scalars float
LOOKUP_TABLE default
2029 2029 2029 2029 2029 2029 2029 2029 2029 
2029 2029 2029 2029 2029 2029 2029 2029 2029 
2029 2029 2029 2029 2029 2029 2029 2029 2029 
2029 2029 2029 2029 2029 2029 2029 2029 2029 
2029 2029 2029 2029 2029 2029 2029 2029 2029 
2029 2029 2029 2029 2029 2029 2029 2029 2029 
2029 2029 2029 2029 2029 2029 2029 2029 2029 
2029 2029 2029 2029 2029 2029 2029 2029 2029 
2029 2029 2029 2029 2029 2029 2029 2029 2029 
2029 2029 2029 2029 2029 2029 2029 2029 2029 
2029 2029 2029 2029 2029 2029 2029 2029 2029 
2029 2029 2029 2029 2029 2029 2029 2029 2029 
2029 2029 2029 2029 2029 2029 2029 2029 2029 
2029 2029 2029 2029 2029 2029 2029 2029 2029 
2029 2029 2029 2029 2029 2029 2029 2029 2029 
2029 2029 2029 2029 2029 2029 2029 2029 2029 
2029 2029 2029 2029 2029 2029 2029 2029 2029 
2029 2029 2029 2029 2029 2029 2029 2029 2029 
2029 2029 2029 2029 2029 2029 2029 2029 2029 
2029 2029 2029 2029 2029 2029 2029 2029 2029 
2029 2029 2029 2029 2029 2029 2029 2029 2029 
2029 2029 2029 2029 2029 2029 2029 2029 2029 
2029 2029 2029 2029 2029 2029 2029 2029 2029 
2029 2029 2029 2029 2029 2029 2029 2029 2029 
2029 2029 2029 2029 2029 2029 2029 2029 2029 
2029 2029 2029 2029 2029 2029 2029 2029 2029 
2029 2029 2029 2029 2029 2029 2029 2029 2029 
2029 2029 2029 2029 2029 2029 2029 2029 2029 
2029 2029 2029 2029 2029 2029 2029 2029 2029 
2029 2029 2029 2029 2029 2029 2029 2029 2029 
2029 2029 2029 2029 2029 2029 2029 2029 2029 
2029 2029 2029 2029 2029 2029 2029 2029 2029 
2029 2029 2029 2029 2029 2029 2029 2029 2029 
2029 2029 2029 2029 2029 2029 2029 2029 2029 
2029 2029 2029 2029 2029 2029 2029 2029 2029 
2029 2029 2029 2029 2029 2029 2029 2029 2029 
2029 2029 2029 2029 2029 2029 2029 2029 2029 
2029 2029 2029 2029 2029 2029 2029 2029 2029 
2029 2029 2029 2029 2029 2029 2029 2029 2029 
2029 2029 2029 2029 2029 2029 2029 2029 2029 
2029 2029 2029 2029 2029 2029 2029 2029 2029 
2029 2029 2029 2029 2029 2029 2029 2029 2029 
2029 2029 2029 2029 2029 2029 2029 2029 2029 
2029 2029 2029 2029 2029 2029 2029 2029 2029 
2029 2029 2029 2029 2029 2029 2029 2029 2029 
2029 2029 2029 2029 2029 2029 2029 2029 2029 
2029 2029 2029 2029 2029 2029 2029 2029 2029 
2029 2029 2029 2029 2029 2029 2029 2029 2029 
2029 2029 2029 2029 2029 2029 2029 2029 2029 
2029 2029 2029 2029 2029 2029 2029 2029 2029 
2029 2029 2029 2029 2029 2029 2029 2029 2029 
2029 2029 2029 2029 2029 2029 2029 2029 2029 
2029 2029 2029 2029 2029 2029 2029 2029 2029 
2029 2029 2029 2029 2029 2029 2029 2029 2029 
2029 2029 2029 2029 2029 2029 2029 2029 2029 
2029 2029 2029 2029 2029 2029 2029 2029 2029 
2029 2029 2029 2029 2029 2029 2029 2029 2029 
2029 2029 2029 2029 2029 2029 2029 2029 2029 
2029 2029 2029 2029 2029 2029 2029 2029 2029 
2029 2029 2029 2029 2029 2029 2029 2029 2029 
2029 2029 2029 2029 2029 2029 2029 2029 2029 
2029 2029 2029 2029 2029 2029 2029 2029 2029 
2029 2029 2029 2029 2029 2029 2029 2029 2029 
2029 2029 2029 2029 2029 2029 2029 2029 2029 
2029 2029 2029 2029 2029 2029 2029 2029 2029 
2029 2029 2029 2029 2029 2029 2029 2029 2029 
2029 2029 2029 2029 2029 2029 2029 2029 2029 
2029 2029 2029 2029 2029 2029 2029 2029 2029 
2029 2029 2029 2029 2029 2029 2029 2029 2029 
2029 2029 2029 2029 2029 2029 2029 2029 2029 
2029 2029 2029 2029 2029 2029 2029 2029 2029 
2029 2029 2029 2029 2029 2029 2029 2029 2029 
2029 2029 2029 2029 2029 2029 2029 2029 2029 
2029 2029 2029 2029 2029 2029 2029 2029 2029 
2029 2029 2029 2029 2029 2029 2029 2029 2029 
2029 2029 2029 2029 2029 2029 2029 2029 2029 
2029 2029 2029 2029 2029 2029 2029 2029 2029 
2029 2029 2029 2029 2029 2029 2029 2029 2029 
2029 2029 2029 2029 2029 2029 2029 2029 2029 
2029 2029 2029 2029 2029 2029 2029 2029 2029 
2029 2029 2029 2029 2029 2029 2029 2029 2029 
2029 2029 2029 2029 2029 2029 2029 2029 2029 
2029 2029 2029 2029 2029 2029 2029 2029 2029 
2029 2029 2029 2029 2029 2029 2029 2029 2029 
2029 2029 2029 2029 2029 2029 2029 2029 2029 
2029 2029 2029 2029 2029 2029 2029 2029 2029 
2029 2029 2029 2029 2029 2029 2029 2029 2029 
2029 2029 2029 2029 2029 2029 2029 2029 2029 
2029 2029 2029 2029 2029 2029 2029 2029 2029 
2029 2029 2029 2029 2029 2029 2029 2029 2029 
2029 2029 2029 2029 2029 2029 2029 2029 2029 
2029 2029 2029 2029 2029 2029 2029 2029 2029 
2029 2029 2029 2029 2029 2029 2029 2029 2029 
2029 2029 2029 2029 2029 2029 2029 2029 2029 
2029 2029 2029 2029 2029 2029 2029 2029 2029 
2029 2029 2029 2029 2029 2029 2029 2029 2029 
2029 2029 2029 2029 2029 2029 2029 2029 2029 
2029 2029 2029 2029 2029 2029 2029 2029 2029 
2029 2029 2029 2029 2029 2029 2029 2029 2029 
2029 2029 2029 2029 2029 2029 2029 2029 2029 
2029 2029 2029 2029 2029 2029 2029 2029 2029 
2029 2029 2029 2029 2029 2029 2029 2029 2029 
2029 2029 2029 2029 2029 2029 2029 2029 2029 
2029 2029 2029 2029 2029 2029 2029 2029 2029 
2029 2029 2029 2029 2029 2029 2029 2029 2029 
2029 2029 2029 2029 2029 2029 2029 2029 2029 
2029 2029 2029 2029 2029 2029 2029 2029 2029 
2029 2029 2029 2029 2029 2029 2029 2029 2029 
2029 2029 2029 2029 2029 2029 2029 2029 2029 
2029 2029 2029 2029 2029 2029 2029 2029 2029 
2029 2029 2029 2029 2029 2029 2029 2029 2029 
2029 2029 2029 2029 2029 2029 2029 2029 2029 
2029 2029 2029 2029 2029 2029 2029 2029 2029 
2029 2029 2029 2029 2029 2029 2029 2029 2029 
2029 2029 2029 2029 2029 2029 2029 2029 2029 
2029 2029 2029 2029 2029 2029 2029 2029 2029 
2029 2029 2029 2029 2029 2029 2029 2029 2029 
2029 2029 2029 2029 2029 2029 2029 2029 2029 
2029 2029 2029 2029 2029 2029 2029 2029 2029 
2029 2029 2029 2029 2029 2029 2029 2029 2029 
2029 2029 2029 2029 2029 2029 2029 2029 2029 
2029 2029 2029 2029 2029 2029 2029 2029 2029 
2029 2029 2029 2029 2029 2029 2029 2029 2029 
2029 2029 2029 2029 2029 2029 2029 2029 2029 
2029 2029 2029 2029 2029 2029 2029 2029 2029 
2029 2029 2029 2029 2029 2029 2029 2029 2029 
2029 2029 2029 2029 2029 2029 2029 2029 2029 
2029 2029 2029 2029 2029 2029 2029 2029 2029 
2029 2029 2029 2029 2029 2029 2029 2029 2029 
2029 2029 2029 2029 2029 2029 2029 2029 2029 
2029 2029 2029 2029 2029 2029 2029 2029 2029 
2029 2029 2029 2029 2029 2029 2029 2029 2029 
2029 2029 2029 2029 2029 2029 2029 2029 2029 
2029 2029 2029 2029 2029 2029 2029 2029 2029 
2029 2029 2029 2029 2029 2029 2029 2029 2029 
2029 2029 2029 2029 2029 2029 2029 2029 2029 
2029 2029 2029 2029 2029 2029 2029 2029 2029 
2029 2029 2029 2029 2029 2029 2029 2029 2029 
2029 2029 2029 2029 2029 2029 2029 2029 2029 
2029 2029 2029 2029 2029 2029 2029 2029 2029 
2029 2029 2029 2029 2029 2029 2029 2029 2029 
2029 2029 2029 2029 2029 2029 2029 2029 2029 
2029 2029 2029 2029 2029 2029 2029 2029 2029 
2029 2029 2029 2029 2029 2029 2029 2029 2029 
2029 2029 2029 2029 2029 2029 2029 2029 2029 
2029 2029 2029 2029 2029 2029 2029 2029 2029 
2029 2029 2029 2029 2029 2029 2029 2029 2029 
2029 2029 2029 2029 2029 2029 2029 2029 2029 
2029 2029 2029 2029 2029 2029 2029 2029 2029 
2029 2029 2029 2029 2029 2029 2029 2029 2029 
2029 2029 2029 2029 2029 2029 2029 2029 2029 
2029 2029 2029 2029 2029 2029 2029 2029 2029 
2029 2029 2029 2029 2029 2029 2029 2029 2029 
2029 2029 2029 2029 2029 2029 2029 2029 2029 
2029 2029 2029 2029 2029 2029 2029 2029 2029 
2029 2029 2029 2029 2029 2029 2029 2029 2029 
2029 2029 2029 2029 2029 2029 2029 2029 2029 
2029 2029 2029 2029 2029 2029 2029 2029 2029 
2029 2029 2029 2029 2029 2029 2029 2029 2029 
2029 2029 2029 2029 2029 2029 2029 2029 2029 
2029 2029 2029 2029 2029 2029 2029 2029 2029 
2029 2029 2029 2029 2029 2029 2029 2029 2029 
2029 2029 2029 2029 2029 2029 2029 2029 2029 
2029 2029 2029 2029 2029 2029 2029 2029 2029 
2029 2029 2029 2029 2029 2029 2029 2029 2029 
2029 2029 2029 2029 2029 2029 2029 2029 2029 
2029 2029 2029 2029 2029 2029 2029 2029 2029 
2029 2029 2029 2029 2029 2029 2029 2029 2029 
2029 2029 2029 2029 2029 2029 2029 2029 2029 
2029 2029 2029 2029 2029 2029 2029 2029 2029 
2029 2029 2029 2029 2029 2029 2029 2029 2029 
2029 2029 2029 2029 2029 2029 2029 2029 2029 
2029 2029 2029 2029 2029 2029 2029 2029 2029 
2029 2029 2029 2029 2029 2029 2029 2029 2029 
2029 2029 2029 2029 2029 2029 2029 2029 2029 
2029 2029 2029 2029 2029 2029 2029 2029 2029 
2029 2029 2029 2029 2029 2029 2029 2029 2029 
2029 2029 2029 2029 2029 2029 2029 2029 2029 
2029 2029 2029 2029 2029 2029 2029 2029 2029 
2029 2029 2029 2029 2029 2029 2029 2029 2029 
2029 2029 2029 2029 2029 2029 2029 2029 2029 
2029 2029 2029 2029 2029 2029 2029 2029 2029 
2029 2029 2029 2029 2029 2029 2029 2029 2029 
2029 2029 2029 2029 2029 2029 2029 2029 2029 
2029 2029 2029 2029 2029 2029 2029 2029 2029 
2029 2029 2029 2029 2029 2029 2029 2029 2029 
2029 2029 2029 2029 2029 2029 2029 2029 2029 
2029 2029 2029 2029 2029 2029 2029 2029 2029 
2029 2029 2029 2029 2029 2029 2029 2029 2029 
2029 2029 2029 2029 2029 2029 2029 2029 2029 
2029 2029 2029 2029 2029 2029 2029 2029 2029 
2029 2029 2029 2029 2029 2029 2029 2029 2029 
2029 2029 2029 2029 2029 2029 2029 2029 2029 
2029 2029 2029 2029 2029 2029 2029 2029 2029 
2029 2029 2029 2029 2029 2029 2029 2029 2029 
2029 2029 2029 2029 2029 2029 2029 2029 2029 
2029 2029 2029 2029 2029 2029 2029 2029 2029 
2029 2029 2029 2029 2029 2029 2029 2029 2029 
2029 2029 2029 2029 2029 2029 2029 2029 2029 
2029 2029 2029 2029 2029 2029 2029 2029 2029 
2029 2029 2029 2029 2029 2029 2029 2029 2029 
2029 2029 2029 2029 2029 2029 2029 2029 2029 
2029 2029 2029 2029 2029 2029 2029 2029 2029 
2029 2029 2029 2029 2029 2029 2029 2029 2029 
2029 2029 2029 2029 2029 2029 2029 2029 2029 
2029 2029 2029 2029 2029 2029 2029 2029 2029 
2029 2029 2029 2029 2029 2029 2029 2029 2029 
2029 2029 2029 2029 2029 2029 2029 2029 2029 
2029 2029 2029 2029 2029 2029 2029 2029 2029 
2029 2029 2029 2029 2029 2029 2029 2029 2029 
2029 2029 2029 2029 2029 2029 2029 2029 2029 
2029 2029 2029 2029 2029 2029 2029 2029 2029 
2029 2029 2029 2029 2029 2029 2029 2029 2029 
2029 2029 2029 2029 2029 2029 2029 2029 2029 
2029 2029 2029 2029 2029 2029 2029 2029 2029 
2029 2029 2029 2029 2029 2029 2029 2029 2029 
2029 2029 2029 2029 2029 2029 2029 2029 2029 
2029 2029 2029 2029 2029 2029 2029 2029 2029 
2029 2029 2029 2029 2029 2029 2029 2029 2029 
2029 2029 2029 2029 2029 2029 2029 2029 2029 
2029 2029 2029 2029 2029 2029 2029 2029 2029 
2029 2029 2029 2029 2029 2029 2029 2029 2029 
2029 2029 2029 2029 2029 2029 2029 2029 2029 
2029 2029 2029 2029 2029 2029 2029 2029 2029 
2029 2029 2029 2029 2029 2029 2029 2029 2029 
2029 2029 2029 2029 2029 2029 2029 2029 2029 
2029 2029 2029 2029 2029 2029 2029 2029 2029 
2029 2029 2029 2029 2029 2029 2029 2029 2029 
2029 2029 2029 2029 2029 2029 2029 2029 2029 
2029 2029 2029 2029 2029 2029 2029 2029 2029 
2029 2029 2029 2029 2029 2029 2029 2029 2029 
2029 2029 2029 2029 2029 2029 2029 2029 2029 
2029 2029 2029 2029 2029 2029 2029 2029 2029 
2029 2029 2029 2029 2029 2029 2029 2029 2029 
2029 2029 2029 2029 2029 2029 2029 2029 2029 
2029 2029 2029 2029 2029 2029 2029 2029 2029 
2029 2029 2029 2029 2029 2029 2029 2029 2029 
2029 2029 2029 2029 2029 2029 2029 2029 2029 
2029 2029 2029 2029 2029 2029 2029 2029 2029 
2029 2029 2029 2029 2029 2029 2029 2029 2029 
2029 2029 2029 2029 2029 2029 2029 2029 2029 
2029 2029 2029 2029 2029 2029 2029 2029 2029 
2029 2029 2029 2029 2029 2029 2029 2029 2029 
2029 2029 2029 2029 2029 2029 2029 2029 2029 
2029 2029 2029 2029 2029 2029 2029 2029 2029 
2029 2029 2029 2029 2029 2029 2029 2029 2029 
2029 2029 2029 2029 2029 2029 2029 2029 2029 
2029 2029 2029 2029 2029 2029 2029 2029 2029 
2029 2029 2029 2029 2029 2029 2029 2029 2029 
2029 2029 2029 2029 2029 2029 2029 2029 2029 
2029 2029 2029 2029 2029 2029 2029 2029 2029 
2029 2029 2029 2029 2029 2029 2029 2029 2029 
2029 2029 2029 2029 2029 2029 2029 2029 2029 
2029 2029 2029 2029 2029 2029 2029 2029 2029 
2029 2029 2029 2029 2029 2029 2029 2029 2029 
2029 2029 2029 2029 2029 2029 2029 2029 2029 
2029 2029 2029 2029 2029 2029 2029 2029 2029 
2029 2029 2029 2029 2029 2029 2029 2029 2029 
2029 2029 2029 2029 2029 2029 2029 2029 2029 
2029 2029 2029 2029 2029 2029 2029 2029 2029 
2029 2029 2029 2029 2029 2029 2029 2029 2029 
2029 2029 2029 2029 2029 2029 2029 2029 2029 
2029 2029 2029 2029 2029 2029 2029 2029 2029 
2029 2029 2029 2029 2029 2029 2029 2029 2029 
2029 2029 2029 2029 2029 2029 2029 2029 2029 
2029 2029 2029 2029 2029 2029 2029 2029 2029 
2029 2029 2029 2029 2029 2029 2029 2029 2029 
2029 2029 2029 2029 2029 2029 2029 2029 2029 
2029 2029 2029 2029 2029 2029 2029 2029 2029 
2029 2029 2029 2029 2029 2029 2029 2029 2029 
2029 2029 2029 2029 2029 2029 2029 2029 2029 
2029 2029 2029 2029 2029 2029 2029 2029 2029 
2029 2029 2029 2029 2029 2029 2029 2029 2029 
2029 2029 2029 2029 2029 2029 2029 2029 2029 
2029 2029 2029 2029 2029 2029 2029 2029 2029 
2029 2029 2029 2029 2029 2029 2029 2029 2029 
2029 2029 2029 2029 2029 2029 2029 2029 2029 
2029 2029 2029 2029 2029 2029 2029 2029 2029 
2029 2029 2029 2029 2029 2029 2029 2029 2029 
2029 2029 2029 2029 2029 2029 2029 2029 2029 
2029 2029 2029 2029 2029 2029 2029 2029 2029 
2029 2029 2029 2029 2029 2029 2029 2029 2029 
2029 2029 2029 2029 2029 2029 2029 2029 2029 
2029 2029 2029 2029 2029 2029 2029 2029 2029 
2029 2029 2029 2029 2029 2029 2029 2029 2029 
2029 2029 2029 2029 2029 2029 2029 2029 2029 
2029 2029 2029 2029 2029 2029 2029 2029 2029 
2029 2029 2029 2029 2029 2029 2029 2029 2029 
2029 2029 2029 2029 2029 2029 2029 2029 2029 
2029 2029 2029 2029 2029 2029 2029 2029 2029 
2029 2029 2029 2029 2029 2029 2029 2029 2029 
2029 2029 2029 2029 2029 2029 2029 2029 2029 
2029 2029 2029 2029 2029 2029 2029 2029 2029 
2029 2029 2029 2029 2029 2029 2029 2029 2029 
2029 2029 2029 2029 2029 2029 2029 2029 2029 
2029 2029 2029 2029 2029 2029 2029 2029 2029 
2029 2029 2029 2029 2029 2029 2029 2029 2029 
2029 2029 2029 2029 2029 2029 2029 2029 2029 
2029 2029 2029 2029 2029 2029 2029 2029 2029 
2029 2029 2029 2029 2029 2029 2029 2029 2029 
2029 2029 2029 2029 2029 2029 2029 2029 2029 
2029 2029 2029 2029 2029 2029 2029 2029 2029 
2029 2029 2029 2029 2029 2029 2029 2029 2029 
2029 2029 2029 2029 2029 2029 2029 2029 2029 
2029 2029 2029 2029 2029 2029 2029 2029 2029 
2029 2029 2029 2029 2029 2029 2029 2029 2029 
2029 2029 2029 2029 2029 2029 2029 2029 2029 
2029 2029 2029 2029 2029 2029 2029 2029 2029 
2029 2029 2029 2029 2029 2029 2029 2029 2029 
2029 2029 2029 2029 2029 2029 2029 2029 2029 
2029 2029 2029 2029 2029 2029 2029 2029 2029 
2029 2029 2029 2029 2029 2029 2029 2029 2029 
2029 2029 2029 2029 2029 2029 2029 2029 2029 
2029 2029 2029 2029 2029 2029 2029 2029 2029 
2029 2029 2029 2029 2029 2029 2029 2029 2029 
2029 2029 2029 2029 2029 2029 2029 2029 2029 
2029 2029 2029 2029 2029 2029 2029 2029 2029 
2029 2029 2029 2029 2029 2029 2029 2029 2029 
2029 2029 2029 2029 2029 2029 2029 2029 2029 
2029 2029 2029 2029 2029 2029 2029 2029 2029 
2029 2029 2029 2029 2029 2029 2029 2029 2029 
2029 2029 2029 2029 2029 2029 2029 2029 2029 
2029 2029 2029 2029 2029 2029 2029 2029 2029 
2029 2029 2029 2029 2029 2029 2029 2029 2029 
2029 2029 2029 2029 2029 2029 2029 2029 2029 
2029 2029 2029 2029 2029 2029 2029 2029 2029 
2029 2029 2029 2029 2029 2029 2029 2029 2029 
2029 2029 2029 2029 2029 2029 2029 2029 2029 
2029 2029 2029 2029 2029 2029 2029 2029 2029 
2029 2029 2029 2029 2029 2029 2029 2029 2029 
2029 2029 2029 2029 2029 2029 2029 2029 2029 
2029 2029 2029 2029 2029 2029 2029 2029 2029 
2029 2029 2029 2029 2029 2029 2029 2029 2029 
2029 2029 2029 2029 2029 2029 2029 2029 2029 
2029 2029 2029 2029 2029 2029 2029 2029 2029 
2029 2029 2029 2029 2029 2029 2029 2029 2029 
2029 2029 2029 2029 2029 2029 2029 2029 2029 
2029 2029 2029 2029 2029 2029 2029 2029 2029 
2029 2029 2029 2029 2029 2029 2029 2029 2029 
2029 2029 2029 2029 2029 2029 2029 2029 2029 
2029 2029 2029 2029 2029 2029 2029 2029 2029 
2029 2029 2029 2029 2029 2029 2029 2029 2029 
2029 2029 2029 2029 2029 2029 2029 2029 2029 
2029 2029 2029 2029 2029 2029 2029 2029 2029 
2029 2029 2029 2029 2029 2029 2029 2029 2029 
2029 2029 2029 2029 2029 2029 2029 2029 2029 
2029 2029 2029 2029 2029 2029 2029 2029 2029 
2029 2029 2029 2029 2029 2029 2029 2029 2029 
2029 2029 2029 2029 2029 2029 2029 2029 2029 
2029 2029 2029 2029 2029 2029 2029 2029 2029 
2029 2029 2029 2029 2029 2029 2029 2029 2029 
2029 2029 2029 2029 2029 2029 2029 2029 2029 
2029 2029 2029 2029 2029 2029 2029 2029 2029 
2029 2029 2029 2029 2029 2029 2029 2029 2029 
2029 2029 2029 2029 2029 2029 2029 2029 2029 
2029 2029 2029 2029 2029 2029 2029 2029 2029 
2029 2029 2029 2029 2029 2029 2029 2029 2029 
2029 2029 2029 2029 2029 2029 2029 2029 2029 
2029 2029 2029 2029 2029 2029 2029 2029 2029 
2029 2029 2029 2029 2029 2029 2029 2029 2029 
2029 2029 2029 2029 2029 2029 2029 2029 2029 
2029 2029 2029 2029 2029 2029 2029 2029 2029 
2029 2029 2029 2029 2029 2029 2029 2029 2029 
2029 2029 2029 2029 2029 2029 2029 2029 2029 
2029 2029 2029 2029 2029 2029 2029 2029 2029 
2029 2029 2029 2029 2029 2029 2029 2029 2029 
2029 2029 2029 2029 2029 2029 2029 2029 2029 
2029 2029 2029 2029 2029 2029 2029 2029 2029 
2029 2029 2029 2029 2029 2029 2029 2029 2029 
2029 2029 2029 2029 2029 2029 2029 2029 2029 
2029 2029 2029 2029 2029 2029 2029 2029 2029 
2029 2029 2029 2029 2029 2029 2029 2029 2029 
2029 2029 2029 2029 2029 2029 2029 2029 2029 
2029 2029 2029 2029 2029 2029 2029 2029 2029 
2029 2029 2029 2029 2029 2029 2029 2029 2029 
2029 2029 2029 2029 2029 2029 2029 2029 2029 
2029 2029 2029 2029 2029 2029 2029 2029 2029 
2029 2029 2029 2029 2029 2029 2029 2029 2029 
2029 2029 2029 2029 2029 2029 2029 2029 2029 
2029 2029 2029 2029 2029 2029 2029 2029 2029 
2029 2029 2029 2029 2029 2029 2029 2029 2029 
2029 2029 2029 2029 2029 2029 2029 2029 2029 
2029 2029 2029 2029 2029 2029 2029 2029 2029 
2029 2029 2029 2029 2029 2029 2029 2029 2029 
2029 2029 2029 2029 2029 2029 2029 2029 2029 
2029 2029 2029 2029 2029 2029 2029 2029 2029 
2029 2029 2029 2029 2029 2029 2029 2029 2029 
2029 2029 2029 2029 2029 2029 2029 2029 2029 
2029 2029 2029 2029 2029 2029 2029 2029 2029 
2029 2029 2029 2029 2029 2029 2029 2029 2029 
2029 2029 2029 2029 2029 2029 2029 2029 2029 
2029 2029 2029 2029 2029 2029 2029 2029 2029 
2029 2029 2029 2029 2029 2029 2029 2029 2029 
2029 2029 2029 2029 2029 2029 2029 2029 2029 
2029 2029 2029 2029 2029 2029 2029 2029 2029 
2029 2029 2029 2029 2029 2029 2029 2029 2029 
2029 2029 2029 2029 2029 2029 2029 2029 2029 
2029 2029 2029 2029 2029 2029 2029 2029 2029 
2029 2029 2029 2029 2029 2029 2029 2029 2029 
2029 2029 2029 2029 2029 2029 2029 2029 2029 
2029 2029 2029 2029 2029 2029 2029 2029 2029 
2029 2029 2029 2029 2029 2029 2029 2029 2029 
2029 2029 2029 2029 2029 2029 2029 2029 2029 
2029 2029 2029 2029 2029 2029 2029 2029 2029 
2029 2029 2029 2029 2029 2029 2029 2029 2029 
2029 2029 2029 2029 2029 2029 2029 2029 2029 
2029 2029 2029 2029 2029 2029 2029 2029 2029 
2029 2029 2029 2029 2029 2029 2029 2029 2029 
2029 2029 2029 2029 2029 2029 2029 2029 2029 
2029 2029 2029 2029 2029 2029 2029 2029 2029 
2029 2029 2029 2029 2029 2029 2029 2029 2029 
2029 2029 2029 2029 2029 2029 2029 2029 2029 
2029 2029 2029 2029 2029 2029 2029 2029 2029 
2029 2029 2029 2029 2029 2029 2029 2029 2029 
2029 2029 2029 2029 2029 2029 2029 2029 2029 
2029 2029 2029 2029 2029 2029 2029 2029 2029 
2029 2029 2029 2029 2029 2029 2029 2029 2029 
2029 2029 2029 2029 2029 2029 2029 2029 2029 
2029 2029 2029 2029 2029 2029 2029 2029 2029 
2029 2029 2029 2029 2029 2029 2029 2029 2029 
2029 2029 2029 2029 2029 2029 2029 2029 2029 
2029 2029 2029 2029 2029 2029 2029 2029 2029 
2029 2029 2029 2029 2029 2029 2029 2029 2029 
2029 2029 2029 2029 2029 2029 2029 2029 2029 
2029 2029 2029 2029 2029 2029 2029 2029 2029 
2029 2029 2029 2029 2029 2029 2029 2029 2029 
2029 2029 2029 2029 2029 2029 2029 2029 2029 
2029 2029 2029 2029 2029 2029 2029 2029 2029 
2029 2029 2029 2029 2029 2029 2029 2029 2029 
2029 2029 2029 2029 2029 2029 2029 2029 2029 
2029 2029 2029 2029 2029 2029 2029 2029 2029 
2029 2029 2029 2029 2029 2029 2029 2029 2029 
2029 2029 2029 2029 2029 2029 2029 2029 2029 