# vtk DataFile Version 4.2
vtk output
ASCII
DATASET POLYDATA
POINTS 18238 float
-27.7239 -44.2981 18.4698 -27.7075 -44.5306 18.6678 -27.375 -44.6364 18.552 
-27.8543 -44.6936 18.3735 -27.6919 -44.4117 18.1989 -28.5521 -44.5489 17.568 
-28.3381 -44.3579 17.1119 -28.7578 -44.2481 17.1442 -29.1526 -44.6229 17.5127 
-28.6105 -44.2704 16.6123 -28.3928 -44.6242 16.5993 -28.9695 -44.5465 16.7039 
-28.6649 -44.4631 16.2629 -33.6936 -44.2805 0.414649 -33.7352 -44.7127 0.647792 
-33.4719 -44.6439 0.36613 -34.0973 -44.5561 0.485153 -33.9508 -44.6653 0.200668 
-26.8571 -45.2281 19.258 -26.6608 -45.5882 19.6702 -26.4588 -45.5551 19.2538 
-26.8777 -45.6662 19.5149 -26.6866 -45.045 18.464 -26.2043 -45.5316 18.4056 
-27.456 -45.3386 18.94 -28.1149 -45.6831 18.3177 -29.6574 -45.6574 18.9612 
-29.3165 -45.7285 18.6234 -29.6223 -45.1741 18.1464 -30.0106 -45.7282 18.7558 
-26.5663 -45.1946 17.6859 -26.2728 -45.6917 17.69 -27.7518 -44.9178 17.6015 
-28.8061 -45.377 18.0276 -29.5442 -45.0128 17.2865 -30.0509 -45.6122 17.7848 
-26.9483 -45.58 17.2056 -27.816 -45.7612 16.9879 -28.7784 -45.3584 16.8235 
-28.6946 -44.7446 16.3388 -29.7153 -45.7113 17.1405 -27.9775 -45.2397 12.3755 
-27.5432 -45.5457 12.8043 -27.354 -45.4866 12.445 -28.9583 -45.075 12.3299 
-28.3517 -45.46 12.9681 -29.9748 -45.0846 12.3032 -29.4174 -45.4529 12.9941 
-30.7213 -45.2185 12.2463 -30.6187 -45.6853 12.9712 -31.223 -45.6262 12.4541 
-27.546 -45.584 11.9559 -28.1413 -45.4592 11.4657 -28.631 -45.1212 11.5758 
-29.7058 -44.9261 11.4325 -30.5631 -45.0621 11.4604 -31.2187 -45.4574 11.7275 
-28.5756 -45.5765 10.9689 -29.2988 -45.521 10.2754 -29.6348 -45.1328 10.5421 
-30.5364 -45.0943 10.4498 -31.2338 -45.4355 10.7191 -29.8848 -45.3911 9.80007 
-30.3169 -45.5542 9.22317 -30.477 -45.2644 9.6481 -31.1761 -45.4675 9.73489 
-30.891 -45.5733 9.11759 -33.7504 -45.4217 0.866141 -33.2537 -45.4483 0.720405 
-34.561 -45.0063 0.366707 -34.3451 -45.4351 0.890026 -34.9779 -45.5224 0.582907 
-33.5726 -45.4845 0.0335995 -34.6533 -45.3793 0.0715095 -25.7861 -46.3143 19.2992 
-25.6876 -46.7623 19.8432 -25.1917 -46.6936 19.1143 -26.6169 -45.8271 19.5951 
-26.2415 -46.6675 19.583 -29.7702 -46.0728 19.4347 -29.74 -46.5031 19.6773 
-29.5089 -46.4202 19.2731 -29.984 -46.3498 19.3605 -25.7974 -46.1511 18.5147 
-25.4197 -46.7578 18.486 -26.5469 -46.0971 19.1998 -27.5676 -46.4044 18.9675 
-28.2236 -46.5922 18.5879 -29.0772 -46.4511 18.5771 -30.3067 -46.61 18.4756 
-25.7387 -46.6146 18.2016 -26.2947 -46.471 17.8022 -26.7662 -46.0984 17.3498 
-27.0546 -46.6448 17.295 -28.6286 -46.3148 18.2547 -30.1155 -46.5633 17.3288 
-27.5994 -46.4147 16.9352 -28.65 -46.4296 16.7775 -29.4522 -46.29 16.9031 
-26.9725 -46.223 14.3447 -26.5611 -46.5747 14.8286 -26.1788 -46.5087 14.1596 
-27.9674 -46.1579 14.3558 -27.4072 -46.5305 14.9895 -29.0073 -46.1679 14.3216 
-28.4273 -46.5606 14.9962 -29.931 -46.2553 14.1934 -29.385 -46.5919 14.8942 
-30.152 -46.6488 14.5977 -26.626 -46.1611 13.6153 -26.0852 -46.5024 13.2064 
-27.5246 -45.8811 13.5038 -28.6699 -45.8338 13.6312 -29.7304 -45.8785 13.6119 
-30.5987 -46.4802 14.0296 -30.5045 -46.1154 13.622 -31.1161 -46.4345 13.5167 
-26.8402 -45.9877 12.6961 -26.1985 -46.5059 12.5308 -31.7308 -46.0549 12.1265 
-31.544 -46.2397 12.8704 -32.027 -46.7892 12.638 -26.6127 -46.4913 11.9445 
-27.641 -45.977 11.4456 -27.1228 -46.4933 11.4418 -31.9277 -45.9582 11.1591 
-32.2356 -46.7456 11.6831 -27.6457 -46.4914 10.9539 -28.6803 -45.9715 10.3157 
-28.0879 -46.6642 10.1361 -31.8859 -45.8053 10.1385 -32.5777 -46.4633 10.9495 
-32.6087 -46.165 10.3611 -32.9901 -46.6968 10.4812 -28.7908 -46.1856 9.50124 
-28.351 -46.7579 9.23238 -29.5904 -45.7956 9.48439 -31.541 -45.8199 9.2084 
-32.3975 -46.1254 9.36325 -33.0705 -46.7189 9.66031 -28.7999 -46.4019 8.85417 
-29.1237 -46.4712 8.42611 -29.4462 -46.184 8.72277 -30.5785 -45.9785 8.65504 
-31.671 -46.1588 8.5539 -32.3358 -46.6515 8.3702 -32.7989 -46.6083 8.8701 
-29.7165 -46.6223 8.00881 -30.9817 -46.4673 7.92651 -31.7534 -46.6383 7.92621 
-35.6316 -46.3368 4.48461 -35.6844 -46.7374 4.74944 -35.405 -46.4913 4.50381 
-36.1431 -46.7773 4.38962 -35.5124 -46.7031 4.0623 -34.9916 -46.1793 2.3269 
-34.6293 -46.6658 2.99538 -34.3398 -46.6277 2.41064 -35.6722 -46.219 2.24931 
-35.5257 -46.6843 2.98078 -36.1469 -46.6767 2.45228 -32.8065 -46.2125 1.30815 
-32.6403 -46.5363 1.62334 -32.393 -46.6091 1.18381 -32.9114 -46.5281 1.55384 
-34.8815 -45.9524 1.40799 -34.1484 -46.4919 1.63679 -35.7446 -46.0583 1.40091 
-36.2638 -46.4755 1.77875 -32.6872 -46.0709 0.656405 -32.2975 -46.7714 0.298238 
-33.4221 -46.4538 1.22657 -35.448 -45.8469 0.380643 -36.7383 -46.6492 1.0661 
-36.3622 -46.2268 0.330523 -37.1852 -46.8438 0.33693 -32.8539 -46.2907 -0.0993455 
-33.7393 -46.0293 -0.723242 -33.0556 -46.4915 -0.886981 -34.809 -45.8526 -0.598087 
-35.8485 -46.1168 -0.554055 -36.3922 -46.4317 -0.452513 -36.7701 -46.6604 -0.135648 
-33.1425 -46.6476 -1.5674 -33.7815 -46.1852 -1.53582 -34.5221 -45.9777 -1.43808 
-35.369 -46.144 -1.64378 -36.1608 -46.5149 -1.26585 -33.6564 -46.5977 -2.10413 
-34.2021 -46.8053 -2.62446 -34.5557 -46.191 -2.2688 -35.2746 -46.3672 -2.47411 
-35.8409 -46.5438 -2.06383 -34.96 -46.7047 -2.84152 -25.6345 -47.1934 21.1529 
-25.7433 -47.4523 21.7721 -25.2049 -47.417 21.4635 -26.0678 -47.7333 21.6328 
-34.8761 -47.2396 21.5118 -34.7207 -47.6015 21.8292 -34.4004 -47.4315 21.4761 
-35.4431 -47.2379 21.3747 -35.4106 -47.411 21.7114 -36.0801 -47.6102 21.6301 
-23.9576 -47.2096 20.3657 -23.5741 -47.6276 20.9404 -23.3198 -47.8431 20.326 
-24.8627 -47.0395 20.6454 -24.3006 -47.4298 21.0465 -25.4306 -46.9276 20.3926 
-26.0966 -47.5988 20.6205 -33.6836 -47.3623 20.4357 -33.5334 -47.4947 20.6808 
-33.3851 -47.4544 20.4128 -34.9066 -47.6424 21.0301 -33.9188 -47.5299 20.5675 
-35.9448 -47.7327 21.1429 -23.7865 -47.3745 19.8401 -24.0766 -47.4392 19.4776 
-24.6359 -46.9898 19.7898 -27.0134 -46.9639 19.5111 -26.6589 -47.4569 19.9379 
-28.0275 -47.1006 19.2904 -27.5453 -47.5417 19.8015 -28.8241 -47.3299 19.3273 
-28.3985 -47.643 19.7076 -29.9259 -46.8878 19.342 -28.9927 -47.7471 19.4491 
-33.5699 -47.6792 20.1375 -24.4538 -47.5523 19.0805 -25.1608 -47.4047 18.4894 
-28.7289 -46.9527 18.7393 -29.4445 -47.4267 19.0986 -30.4197 -47.4909 18.7983 
-30.7145 -47.2886 18.3308 -30.851 -47.5574 18.4413 -25.8484 -47.2016 17.9494 
-26.7012 -47.0889 17.3296 -26.1503 -47.5602 17.1556 -30.5061 -47.5805 17.8865 
-30.7929 -47.5428 18.1914 -26.7485 -47.2064 16.3767 -26.0454 -47.5016 16.3809 
-27.6598 -46.9916 16.5636 -28.6942 -46.9521 16.3457 -29.8228 -46.9429 16.4878 
-30.6899 -47.5604 17.0406 -30.895 -47.2233 16.2511 -31.2676 -47.6668 16.6123 
-25.9634 -47.2338 15.6657 -25.5182 -47.5864 15.8766 -25.2263 -47.5089 15.1368 
-26.6863 -46.9 15.4052 -27.6893 -46.9225 15.655 -28.6897 -46.9496 15.6391 
-29.7695 -46.9578 15.4269 -30.7228 -47.0333 15.4492 -31.8078 -47.6924 16.1256 
-31.5856 -47.22 15.4256 -32.288 -47.7735 15.3545 -25.8124 -46.9975 14.7608 
-25.1033 -47.6376 14.1562 -30.8652 -46.8685 14.4002 -31.5962 -47.1367 14.4647 
-32.0767 -47.5136 14.628 -25.5954 -46.9909 13.7218 -25.2481 -47.5317 13.2873 
-31.6911 -46.8839 13.5075 -32.127 -47.5297 13.5596 -25.7115 -47.0112 12.675 
-25.304 -47.826 12.5633 -32.2385 -47.6038 12.4787 -25.8444 -47.3735 11.9399 
-26.6279 -47.0139 11.4326 -26.1671 -47.8518 11.4324 -29.7487 -47.2157 11.3059 
-29.4275 -47.6942 11.7643 -29.7712 -47.6826 11.8782 -30.2474 -47.5195 11.3817 
-32.4562 -47.7623 11.7381 -26.9801 -47.5487 10.9692 -27.5121 -47.092 10.562 
-27.4206 -47.6771 10.5549 -29.7592 -47.4576 11.0714 -30.3619 -47.2666 10.7251 
-30.2309 -47.7618 10.307 -30.8714 -47.7375 11.0446 -31.1229 -47.592 10.5126 
-32.7462 -47.1725 11.0571 -33.1391 -47.5588 10.5246 -27.7408 -47.3566 10.2339 
-28.0614 -47.5771 9.74421 -30.8266 -47.4961 10.1411 -33.3759 -47.6831 9.67001 
-28.7299 -46.8256 8.44321 -28.2786 -47.6954 8.48127 -32.7312 -46.9602 8.41318 
-33.2325 -47.5089 8.57138 -28.8753 -47.297 7.80521 -29.5622 -47.1799 7.45969 
-29.0365 -47.6661 7.3095 -30.4393 -46.99 7.41365 -31.4042 -47.0392 7.3989 
-32.207 -47.532 7.40418 -32.6945 -47.5127 7.91103 -29.7303 -47.6402 7.0935 
-30.7895 -47.5955 6.90019 -31.6838 -47.6372 6.90047 -35.0529 -47.2877 4.49873 
-35.7112 -47.7549 4.99453 -36.9096 -47.1213 4.57726 -36.6214 -47.42 4.93704 
-37.4682 -47.3091 4.46438 -37.6351 -47.5969 4.84983 -38.1102 -47.6378 4.59356 
-34.9089 -47.0081 3.62726 -34.4852 -47.7044 4.13502 -34.2478 -47.4975 3.40246 
-35.5233 -46.8759 3.49979 -36.1351 -47.135 3.57831 -36.9176 -47.3664 4.01127 
-37.7605 -47.572 4.19587 -34.023 -47.5965 2.36371 -36.6742 -47.101 2.12635 
-36.4579 -47.2887 2.87478 -37.0166 -47.6852 2.49119 -32.6867 -46.8788 1.35927 
-33.7274 -47.1264 1.62779 -33.7434 -47.694 1.6749 -33.3366 -47.5682 1.20929 
-36.7128 -46.8826 1.54766 -37.1805 -47.4478 1.6384 -32.8128 -47.3906 1.08515 
-32.1301 -47.4895 0.671314 -37.7012 -47.2067 0.445056 -37.6864 -47.541 0.93444 
-38.1107 -47.672 0.516108 -32.5064 -46.8416 -0.476315 -32.0918 -47.5885 -0.690836 
-36.7048 -46.9344 -0.864178 -37.2143 -47.2321 -0.386955 -37.7683 -47.4162 0.0946582 
-32.602 -47.0795 -1.23163 -32.3913 -47.7561 -1.55889 -36.5006 -47.0194 -1.88858 
-37.196 -47.511 -1.30937 -32.9108 -47.2772 -1.87748 -33.4878 -47.3801 -2.31815 
-33.9659 -47.571 -2.68 -35.7612 -46.8265 -2.59648 -36.4332 -47.2499 -2.63244 
-37.1056 -47.5694 -2.28529 -34.6786 -47.6096 -2.97414 -35.8044 -47.4915 -3.0082 
-36.8875 -47.7922 -2.91832 -33.8394 -48.124 23.3133 -33.9478 -48.7478 23.788 
-33.2526 -48.3868 23.3777 -34.669 -48.2149 23.3103 -34.482 -48.4989 23.811 
-34.9535 -48.7447 23.5511 -23.8542 -48.3009 22.2398 -23.5091 -48.7673 22.7071 
-23.3278 -48.5001 22.262 -24.0945 -48.7084 22.7284 -25.8543 -48.031 22.2427 
-25.7795 -48.6727 22.8382 -25.1176 -48.3852 22.3161 -26.6249 -48.3177 22.5433 
-26.6292 -48.6206 22.8377 -27.1299 -48.7637 22.4281 -31.9656 -48.2617 22.4354 
-31.6023 -48.8275 22.7983 -31.404 -48.5304 22.3456 -32.9109 -48.0572 22.5851 
-32.671 -48.6502 23.0174 -33.6392 -47.9256 22.5316 -34.499 -48.0095 22.5084 
[...]
CELL_DATA 36732
SCALARS scalars float
LOOKUP_TABLE default
1011 1011 1011 1011 1011 1011 1011 1011 1011 
1011 1011 1011 1011 1011 1011 1011 1011 1011 
1011 1011 1011 1011 1011 1011 1011 1011 1011 
1011 1011 1011 1011 1011 1011 1011 1011 1011 
1011 1011 1011 1011 1011 1011 1011 1011 1011 
1011 1011 1011 1011 1011 1011 1011 1011 1011 
1011 1011 1011 1011 1011 1011 1011 1011 1011 
1011 1011 1011 1011 1011 1011 1011 1011 1011 
1011 1011 1011 1011 1011 1011 1011 1011 1011 
1011 1011 1011 1011 1011 1011 1011 1011 1011 
1011 1011 1011 1011 1011 1011 1011 1011 1011 
1011 1011 1011 1011 1011 1011 1011 1011 1011 
1011 1011 1011 1011 1011 1011 1011 1011 1011 
1011 1011 1011 1011 1011 1011 1011 1011 1011 
1011 1011 1011 1011 1011 1011 1011 1011 1011 
1011 1011 1011 1011 1011 1011 1011 1011 1011 
1011 1011 1011 1011 1011 1011 1011 1011 1011 
1011 1011 1011 1011 1011 1011 1011 1011 1011 
1011 1011 1011 1011 1011 1011 1011 1011 1011 
1011 1011 1011 1011 1011 1011 1011 1011 1011 
1011 1011 1011 1011 1011 1011 1011 1011 1011 
1011 1011 1011 1011 1011 1011 1011 1011 1011 
1011 1011 1011 1011 1011 1011 1011 1011 1011 
1011 1011 1011 1011 1011 1011 1011 1011 1011 
1011 1011 1011 1011 1011 1011 1011 1011 1011 
1011 1011 1011 1011 1011 1011 1011 1011 1011 
1011 1011 1011 1011 1011 1011 1011 1011 1011 
1011 1011 1011 1011 1011 1011 1011 1011 1011 
1011 1011 1011 1011 1011 1011 1011 1011 1011 
1011 1011 1011 1011 1011 1011 1011 1011 1011 
1011 1011 1011 1011 1011 1011 1011 1011 1011 
1011 1011 1011 1011 1011 1011 1011 1011 1011 
1011 1011 1011 1011 1011 1011 1011 1011 1011 
1011 1011 1011 1011 1011 1011 1011 1011 1011 
1011 1011 1011 1011 1011 1011 1011 1011 1011 
1011 1011 1011 1011 1011 1011 1011 1011 1011 
1011 1011 1011 1011 1011 1011 1011 1011 1011 
1011 1011 1011 1011 1011 1011 1011 1011 1011 
1011 1011 1011 1011 1011 1011 1011 1011 1011 
1011 1011 1011 1011 1011 1011 1011 1011 1011 
1011 1011 1011 1011 1011 1011 1011 1011 1011 
1011 1011 1011 1011 1011 1011 1011 1011 1011 
1011 1011 1011 1011 1011 1011 1011 1011 1011 
1011 1011 1011 1011 1011 1011 1011 1011 1011 
1011 1011 1011 1011 1011 1011 1011 1011 1011 
1011 1011 1011 1011 1011 1011 1011 1011 1011 
1011 1011 1011 1011 1011 1011 1011 1011 1011 
1011 1011 1011 1011 1011 1011 1011 1011 1011 
1011 1011 1011 1011 1011 1011 1011 1011 1011 
1011 1011 1011 1011 1011 1011 1011 1011 1011 
1011 1011 1011 1011 1011 1011 1011 1011 1011 
1011 1011 1011 1011 1011 1011 1011 1011 1011 
1011 1011 1011 1011 1011 1011 1011 1011 1011 
1011 1011 1011 1011 1011 1011 1011 1011 1011 
1011 1011 1011 1011 1011 1011 1011 1011 1011 
1011 1011 1011 1011 1011 1011 1011 1011 1011 
1011 1011 1011 1011 1011 1011 1011 1011 1011 
1011 1011 1011 1011 1011 1011 1011 1011 1011 
1011 1011 1011 1011 1011 1011 1011 1011 1011 
1011 1011 1011 1011 1011 1011 1011 1011 1011 
1011 1011 1011 1011 1011 1011 1011 1011 1011 
1011 1011 1011 1011 1011 1011 1011 1011 1011 
1011 1011 1011 1011 1011 1011 1011 1011 1011 
1011 1011 1011 1011 1011 1011 1011 1011 1011 
1011 1011 1011 1011 1011 1011 1011 1011 1011 
1011 1011 1011 1011 1011 1011 1011 1011 1011 
1011 1011 1011 1011 1011 1011 1011 1011 1011 
1011 1011 1011 1011 1011 1011 1011 1011 1011 
1011 1011 1011 1011 1011 1011 1011 1011 1011 
1011 1011 1011 1011 1011 1011 1011 1011 1011 
1011 1011 1011 1011 1011 1011 1011 1011 1011 
1011 1011 1011 1011 1011 1011 1011 1011 1011 
1011 1011 1011 1011 1011 1011 1011 1011 1011 
1011 1011 1011 1011 1011 1011 1011 1011 1011 
1011 1011 1011 1011 1011 1011 1011 1011 1011 
1011 1011 1011 1011 1011 1011 1011 1011 1011 
1011 1011 1011 1011 1011 1011 1011 1011 1011 
1011 1011 1011 1011 1011 1011 1011 1011 1011 
1011 1011 1011 1011 1011 1011 1011 1011 1011 
1011 1011 1011 1011 1011 1011 1011 1011 1011 
1011 1011 1011 1011 1011 1011 1011 1011 1011 
1011 1011 1011 1011 1011 1011 1011 1011 1011 
1011 1011 1011 1011 1011 1011 1011 1011 1011 
1011 1011 1011 1011 1011 1011 1011 1011 1011 
1011 1011 1011 1011 1011 1011 1011 1011 1011 
1011 1011 1011 1011 1011 1011 1011 1011 1011 
1011 1011 1011 1011 1011 1011 1011 1011 1011 
1011 1011 1011 1011 1011 1011 1011 1011 1011 
1011 1011 1011 1011 1011 1011 1011 1011 1011 
1011 1011 1011 1011 1011 1011 1011 1011 1011 
1011 1011 1011 1011 1011 1011 1011 1011 1011 
1011 1011 1011 1011 1011 1011 1011 1011 1011 
1011 1011 1011 1011 1011 1011 1011 1011 1011 
1011 1011 1011 1011 1011 1011 1011 1011 1011 
1011 1011 1011 1011 1011 1011 1011 1011 1011 
1011 1011 1011 1011 1011 1011 1011 1011 1011 
1011 1011 1011 1011 1011 1011 1011 1011 1011 
1011 1011 1011 1011 1011 1011 1011 1011 1011 
1011 1011 1011 1011 1011 1011 1011 1011 1011 
1011 1011 1011 1011 1011 1011 1011 1011 1011 
1011 1011 1011 1011 1011 1011 1011 1011 1011 
1011 1011 1011 1011 1011 1011 1011 1011 1011 
1011 1011 1011 1011 1011 1011 1011 1011 1011 
1011 1011 1011 1011 1011 1011 1011 1011 1011 
1011 1011 1011 1011 1011 1011 1011 1011 1011 
1011 1011 1011 1011 1011 1011 1011 1011 1011 
1011 1011 1011 1011 1011 1011 1011 1011 1011 
1011 1011 1011 1011 1011 1011 1011 1011 1011 
1011 1011 1011 1011 1011 1011 1011 1011 1011 
1011 1011 1011 1011 1011 1011 1011 1011 1011 
1011 1011 1011 1011 1011 1011 1011 1011 1011 
1011 1011 1011 1011 1011 1011 1011 1011 1011 
1011 1011 1011 1011 1011 1011 1011 1011 1011 
1011 1011 1011 1011 1011 1011 1011 1011 1011 
1011 1011 1011 1011 1011 1011 1011 1011 1011 
1011 1011 1011 1011 1011 1011 1011 1011 1011 
1011 1011 1011 1011 1011 1011 1011 1011 1011 
1011 1011 1011 1011 1011 1011 1011 1011 1011 
1011 1011 1011 1011 1011 1011 1011 1011 1011 
1011 1011 1011 1011 1011 1011 1011 1011 1011 
1011 1011 1011 1011 1011 1011 1011 1011 1011 
1011 1011 1011 1011 1011 1011 1011 1011 1011 
1011 1011 1011 1011 1011 1011 1011 1011 1011 
1011 1011 1011 1011 1011 1011 1011 1011 1011 
1011 1011 1011 1011 1011 1011 1011 1011 1011 
1011 1011 1011 1011 1011 1011 1011 1011 1011 
1011 1011 1011 1011 1011 1011 1011 1011 1011 
1011 1011 1011 1011 1011 1011 1011 1011 1011 
1011 1011 1011 1011 1011 1011 1011 1011 1011 
1011 1011 1011 1011 1011 1011 1011 1011 1011 
1011 1011 1011 1011 1011 1011 1011 1011 1011 
1011 1011 1011 1011 1011 1011 1011 1011 1011 
1011 1011 1011 1011 1011 1011 1011 1011 1011 
1011 1011 1011 1011 1011 1011 1011 1011 1011 
1011 1011 1011 1011 1011 1011 1011 1011 1011 
1011 1011 1011 1011 1011 1011 1011 1011 1011 
1011 1011 1011 1011 1011 1011 1011 1011 1011 
1011 1011 1011 1011 1011 1011 1011 1011 1011 
1011 1011 1011 1011 1011 1011 1011 1011 1011 
1011 1011 1011 1011 1011 1011 1011 1011 1011 
1011 1011 1011 1011 1011 1011 1011 1011 1011 
1011 1011 1011 1011 1011 1011 1011 1011 1011 
1011 1011 1011 1011 1011 1011 1011 1011 1011 
1011 1011 1011 1011 1011 1011 1011 1011 1011 
1011 1011 1011 1011 1011 1011 1011 1011 1011 
1011 1011 1011 1011 1011 1011 1011 1011 1011 
1011 1011 1011 1011 1011 1011 1011 1011 1011 
1011 1011 1011 1011 1011 1011 1011 1011 1011 
1011 1011 1011 1011 1011 1011 1011 1011 1011 
1011 1011 1011 1011 1011 1011 1011 1011 1011 
1011 1011 1011 1011 1011 1011 1011 1011 1011 
1011 1011 1011 1011 1011 1011 1011 1011 1011 
1011 1011 1011 1011 1011 1011 1011 1011 1011 
1011 1011 1011 1011 1011 1011 1011 1011 1011 
1011 1011 1011 1011 1011 1011 1011 1011 1011 
1011 1011 1011 1011 1011 1011 1011 1011 1011 
1011 1011 1011 1011 1011 1011 1011 1011 1011 
1011 1011 1011 1011 1011 1011 1011 1011 1011 
1011 1011 1011 1011 1011 1011 1011 1011 1011 
1011 1011 1011 1011 1011 1011 1011 1011 1011 
1011 1011 1011 1011 1011 1011 1011 1011 1011 
1011 1011 1011 1011 1011 1011 1011 1011 1011 
1011 1011 1011 1011 1011 1011 1011 1011 1011 
1011 1011 1011 1011 1011 1011 1011 1011 1011 
1011 1011 1011 1011 1011 1011 1011 1011 1011 
1011 1011 1011 1011 1011 1011 1011 1011 1011 
1011 1011 1011 1011 1011 1011 1011 1011 1011 
1011 1011 1011 1011 1011 1011 1011 1011 1011 
1011 1011 1011 1011 1011 1011 1011 1011 1011 
1011 1011 1011 1011 1011 1011 1011 1011 1011 
1011 1011 1011 1011 1011 1011 1011 1011 1011 
1011 1011 1011 1011 1011 1011 1011 1011 1011 
1011 1011 1011 1011 1011 1011 1011 1011 1011 
1011 1011 1011 1011 1011 1011 1011 1011 1011 
1011 1011 1011 1011 1011 1011 1011 1011 1011 
1011 1011 1011 1011 1011 1011 1011 1011 1011 
1011 1011 1011 1011 1011 1011 1011 1011 1011 
1011 1011 1011 1011 1011 1011 1011 1011 1011 
1011 1011 1011 1011 1011 1011 1011 1011 1011 
1011 1011 1011 1011 1011 1011 1011 1011 1011 
1011 1011 1011 1011 1011 1011 1011 1011 1011 
1011 1011 1011 1011 1011 1011 1011 1011 1011 
1011 1011 1011 1011 1011 1011 1011 1011 1011 
1011 1011 1011 1011 1011 1011 1011 1011 1011 
1011 1011 1011 1011 1011 1011 1011 1011 1011 
1011 1011 1011 1011 1011 1011 1011 1011 1011 
1011 1011 1011 1011 1011 1011 1011 1011 1011 
1011 1011 1011 1011 1011 1011 1011 1011 1011 
1011 1011 1011 1011 1011 1011 1011 1011 1011 
1011 1011 1011 1011 1011 1011 1011 1011 1011 
1011 1011 1011 1011 1011 1011 1011 1011 1011 
1011 1011 1011 1011 1011 1011 1011 1011 1011 
1011 1011 1011 1011 1011 1011 1011 1011 1011 
1011 1011 1011 1011 1011 1011 1011 1011 1011 
1011 1011 1011 1011 1011 1011 1011 1011 1011 
1011 1011 1011 1011 1011 1011 1011 1011 1011 
1011 1011 1011 1011 1011 1011 1011 1011 1011 
1011 1011 1011 1011 1011 1011 1011 1011 1011 
1011 1011 1011 1011 1011 1011 1011 1011 1011 
1011 1011 1011 1011 1011 1011 1011 1011 1011 
1011 1011 1011 1011 1011 1011 1011 1011 1011 
1011 1011 1011 1011 1011 1011 1011 1011 1011 
1011 1011 1011 1011 1011 1011 1011 1011 1011 
1011 1011 1011 1011 1011 1011 1011 1011 1011 
1011 1011 1011 1011 1011 1011 1011 1011 1011 
1011 1011 1011 1011 1011 1011 1011 1011 1011 
1011 1011 1011 1011 1011 1011 1011 1011 1011 
1011 1011 1011 1011 1011 1011 1011 1011 1011 
1011 1011 1011 1011 1011 1011 1011 1011 1011 
1011 1011 1011 1011 1011 1011 1011 1011 1011 
1011 1011 1011 1011 1011 1011 1011 1011 1011 
1011 1011 1011 1011 1011 1011 1011 1011 1011 
1011 1011 1011 1011 1011 1011 1011 1011 1011 
1011 1011 1011 1011 1011 1011 1011 1011 1011 
1011 1011 1011 1011 1011 1011 1011 1011 1011 
1011 1011 1011 1011 1011 1011 1011 1011 1011 
1011 1011 1011 1011 1011 1011 1011 1011 1011 
1011 1011 1011 1011 1011 1011 1011 1011 1011 
1011 1011 1011 1011 1011 1011 1011 1011 1011 
1011 1011 1011 1011 1011 1011 1011 1011 1011 
1011 1011 1011 1011 1011 1011 1011 1011 1011 
1011 1011 1011 1011 1011 1011 1011 1011 1011 
1011 1011 1011 1011 1011 1011 1011 1011 1011 
1011 1011 1011 1011 1011 1011 1011 1011 1011 
1011 1011 1011 1011 1011 1011 1011 1011 1011 
1011 1011 1011 1011 1011 1011 1011 1011 1011 
1011 1011 1011 1011 1011 1011 1011 1011 1011 
1011 1011 1011 1011 1011 1011 1011 1011 1011 
1011 1011 1011 1011 1011 1011 1011 1011 1011 
1011 1011 1011 1011 1011 1011 1011 1011 1011 
1011 1011 1011 1011 1011 1011 1011 1011 1011 
1011 1011 1011 1011 1011 1011 1011 1011 1011 
1011 1011 1011 1011 1011 1011 1011 1011 1011 
1011 1011 1011 1011 1011 1011 1011 1011 1011 
1011 1011 1011 1011 1011 1011 1011 1011 1011 
1011 1011 1011 1011 1011 1011 1011 1011 1011 
1011 1011 1011 1011 1011 1011 1011 1011 1011 
1011 1011 1011 1011 1011 1011 1011 1011 1011 
1011 1011 1011 1011 1011 1011 1011 1011 1011 
1011 1011 1011 1011 1011 1011 1011 1011 1011 
1011 1011 1011 1011 1011 1011 1011 1011 1011 
1011 1011 1011 1011 1011 1011 1011 1011 1011 
1011 1011 1011 1011 1011 1011 1011 1011 1011 
1011 1011 1011 1011 1011 1011 1011 1011 1011 
1011 1011 1011 1011 1011 1011 1011 1011 1011 
1011 1011 1011 1011 1011 1011 1011 1011 1011 
1011 1011 1011 1011 1011 1011 1011 1011 1011 
1011 1011 1011 1011 1011 1011 1011 1011 1011 
1011 1011 1011 1011 1011 1011 1011 1011 1011 
1011 1011 1011 1011 1011 1011 1011 1011 1011 
1011 1011 1011 1011 1011 1011 1011 1011 1011 
1011 1011 1011 1011 1011 1011 1011 1011 1011 
1011 1011 1011 1011 1011 1011 1011 1011 1011 
1011 1011 1011 1011 1011 1011 1011 1011 1011 
1011 1011 1011 1011 1011 1011 1011 1011 1011 
1011 1011 1011 1011 1011 1011 1011 1011 1011 
1011 1011 1011 1011 1011 1011 1011 1011 1011 
1011 1011 1011 1011 1011 1011 1011 1011 1011 
1011 1011 1011 1011 1011 1011 1011 1011 1011 
1011 1011 1011 1011 1011 1011 1011 1011 1011 
1011 1011 1011 1011 1011 1011 1011 1011 1011 
1011 1011 1011 1011 1011 1011 1011 1011 1011 
1011 1011 1011 1011 1011 1011 1011 1011 1011 
1011 1011 1011 1011 1011 1011 1011 1011 1011 
1011 1011 1011 1011 1011 1011 1011 1011 1011 
1011 1011 1011 1011 1011 1011 1011 1011 1011 
1011 1011 1011 1011 1011 1011 1011 1011 1011 
1011 1011 1011 1011 1011 1011 1011 1011 1011 
1011 1011 1011 1011 1011 1011 1011 1011 1011 
1011 1011 1011 1011 1011 1011 1011 1011 1011 
1011 1011 1011 1011 1011 1011 1011 1011 1011 
1011 1011 1011 1011 1011 1011 1011 1011 1011 
1011 1011 1011 1011 1011 1011 1011 1011 1011 
1011 1011 1011 1011 1011 1011 1011 1011 1011 
1011 1011 1011 1011 1011 1011 1011 1011 1011 
1011 1011 1011 1011 1011 1011 1011 1011 1011 
1011 1011 1011 1011 1011 1011 1011 1011 1011 
1011 1011 1011 1011 1011 1011 1011 1011 1011 
1011 1011 1011 1011 1011 1011 1011 1011 1011 
1011 1011 1011 1011 1011 1011 1011 1011 1011 
1011 1011 1011 1011 1011 1011 1011 1011 1011 
1011 1011 1011 1011 1011 1011 1011 1011 1011 
1011 1011 1011 1011 1011 1011 1011 1011 1011 
1011 1011 1011 1011 1011 1011 1011 1011 1011 
1011 1011 1011 1011 1011 1011 1011 1011 1011 
1011 1011 1011 1011 1011 1011 1011 1011 1011 
1011 1011 1011 1011 1011 1011 1011 1011 1011 
1011 1011 1011 1011 1011 1011 1011 1011 1011 
1011 1011 1011 1011 1011 1011 1011 1011 1011 
1011 1011 1011 1011 1011 1011 1011 1011 1011 
1011 1011 1011 1011 1011 1011 1011 1011 1011 
1011 1011 1011 1011 1011 1011 1011 1011 1011 
1011 1011 1011 1011 1011 1011 1011 1011 1011 
1011 1011 1011 1011 1011 1011 1011 1011 1011 
1011 1011 1011 1011 1011 1011 1011 1011 1011 
1011 1011 1011 1011 1011 1011 1011 1011 1011 
1011 1011 1011 1011 1011 1011 1011 1011 1011 
1011 1011 1011 1011 1011 1011 1011 1011 1011 
1011 1011 1011 1011 1011 1011 1011 1011 1011 
1011 1011 1011 1011 1011 1011 1011 1011 1011 
1011 1011 1011 1011 1011 1011 1011 1011 1011 
1011 1011 1011 1011 1011 1011 1011 1011 1011 
1011 1011 1011 1011 1011 1011 1011 1011 1011 
1011 1011 1011 1011 1011 1011 1011 1011 1011 
1011 1011 1011 1011 1011 1011 1011 1011 1011 
1011 1011 1011 1011 1011 1011 1011 1011 1011 
1011 1011 1011 1011 1011 1011 1011 1011 1011 
1011 1011 1011 1011 1011 1011 1011 1011 1011 
1011 1011 1011 1011 1011 1011 1011 1011 1011 
1011 1011 1011 1011 1011 1011 1011 1011 1011 
1011 1011 1011 1011 1011 1011 1011 1011 1011 
1011 1011 1011 1011 1011 1011 1011 1011 1011 
1011 1011 1011 1011 1011 1011 1011 1011 1011 
1011 1011 1011 1011 1011 1011 1011 1011 1011 
1011 1011 1011 1011 1011 1011 1011 1011 1011 
1011 1011 1011 1011 1011 1011 1011 1011 1011 
1011 1011 1011 1011 1011 1011 1011 1011 1011 
1011 1011 1011 1011 1011 1011 1011 1011 1011 
1011 1011 1011 1011 1011 1011 1011 1011 1011 
1011 1011 1011 1011 1011 1011 1011 1011 1011 
1011 1011 1011 1011 1011 1011 1011 1011 1011 
1011 1011 1011 1011 1011 1011 1011 1011 1011 
1011 1011 1011 1011 1011 1011 1011 1011 1011 
1011 1011 1011 1011 1011 1011 1011 1011 1011 
1011 1011 1011 1011 1011 1011 1011 1011 1011 
1011 1011 1011 1011 1011 1011 1011 1011 1011 
1011 1011 1011 1011 1011 1011 1011 1011 1011 
1011 1011 1011 1011 1011 1011 1011 1011 1011 
1011 1011 1011 1011 1011 1011 1011 1011 1011 
1011 1011 1011 1011 1011 1011 1011 1011 1011 
1011 1011 1011 1011 1011 1011 1011 1011 1011 
1011 1011 1011 1011 1011 1011 1011 1011 1011 
1011 1011 1011 1011 1011 1011 1011 1011 1011 
1011 1011 1011 1011 1011 1011 1011 1011 1011 
1011 1011 1011 1011 1011 1011 1011 1011 1011 
1011 1011 1011 1011 1011 1011 1011 1011 1011 
1011 1011 1011 1011 1011 1011 1011 1011 1011 
1011 1011 1011 1011 1011 1011 1011 1011 1011 
1011 1011 1011 1011 1011 1011 1011 1011 1011 
1011 1011 1011 1011 1011 1011 1011 1011 1011 
1011 1011 1011 1011 1011 1011 1011 1011 1011 
1011 1011 1011 1011 1011 1011 1011 1011 1011 
1011 1011 1011 1011 1011 1011 1011 1011 1011 
1011 1011 1011 1011 1011 1011 1011 1011 1011 
1011 1011 1011 1011 1011 1011 1011 1011 1011 
1011 1011 1011 1011 1011 1011 1011 1011 1011 
1011 1011 1011 1011 1011 1011 1011 1011 1011 
1011 1011 1011 1011 1011 1011 1011 1011 1011 
1011 1011 1011 1011 1011 1011 1011 1011 1011 
1011 1011 1011 1011 1011 1011 1011 1011 1011 
1011 1011 1011 1011 1011 1011 1011 1011 1011 
1011 1011 1011 1011 1011 1011 1011 1011 1011 
1011 1011 1011 1011 1011 1011 1011 1011 1011 
1011 1011 1011 1011 1011 1011 1011 1011 1011 
1011 1011 1011 1011 1011 1011 1011 1011 1011 
1011 1011 1011 1011 1011 1011 1011 1011 1011 
1011 1011 1011 1011 1011 1011 1011 1011 1011 
1011 1011 1011 1011 1011 1011 1011 1011 1011 
1011 1011 1011 1011 1011 1011 1011 1011 1011 
1011 1011 1011 1011 1011 1011 1011 1011 1011 
1011 1011 1011 1011 1011 1011 1011 1011 1011 
1011 1011 1011 1011 1011 1011 1011 1011 1011 
1011 1011 1011 1011 1011 1011 1011 1011 1011 
1011 1011 1011 1011 1011 1011 1011 1011 1011 
1011 1011 1011 1011 1011 1011 1011 1011 1011 
1011 1011 1011 1011 1011 1011 1011 1011 1011 
1011 1011 1011 1011 1011 1011 1011 1011 1011 
1011 1011 1011 1011 1011 1011 1011 1011 1011 
1011 1011 1011 1011 1011 1011 1011 1011 1011 
1011 1011 1011 1011 1011 1011 1011 1011 1011 
1011 1011 1011 1011 1011 1011 1011 1011 1011 
1011 1011 1011 1011 1011 1011 1011 1011 1011 
1011 1011 1011 1011 1011 1011 1011 1011 1011 
1011 1011 1011 1011 1011 1011 1011 1011 1011 
1011 1011 1011 1011 1011 1011 1011 1011 1011 
1011 1011 1011 1011 1011 1011 1011 1011 1011 
1011 1011 1011 1011 1011 1011 1011 1011 1011 
1011 1011 1011 1011 1011 1011 1011 1011 1011 
1011 1011 1011 1011 1011 1011 1011 1011 1011 
1011 1011 1011 1011 1011 1011 1011 1011 1011 
1011 1011 1011 1011 1011 1011 1011 1011 1011 
1011 1011 1011 1011 1011 1011 1011 1011 1011 
1011 1011 1011 1011 1011 1011 1011 1011 1011 
1011 1011 1011 1011 1011 1011 1011 1011 1011 
1011 1011 1011 1011 1011 1011 1011 1011 1011 
1011 1011 1011 1011 1011 1011 1011 1011 1011 
1011 1011 1011 1011 1011 1011 1011 1011 1011 
1011 1011 1011 1011 1011 1011 1011 1011 1011 
1011 1011 1011 1011 1011 1011 1011 1011 1011 
1011 1011 1011 1011 1011 1011 1011 1011 1011 
1011 1011 1011 1011 1011 1011 1011 1011 1011 
1011 1011 1011 1011 1011 1011 1011 1011 1011 
1011 1011 1011 1011 1011 1011 1011 1011 1011 
1011 1011 1011 1011 1011 1011 1011 1011 1011 
1011 1011 1011 1011 1011 1011 1011 1011 1011 
1011 1011 1011 1011 1011 1011 1011 1011 1011 
1011 1011 1011 1011 1011 1011 1011 1011 1011 
1011 1011 1011 1011 1011 1011 1011 1011 1011 
1011 1011 1011 1011 1011 1011 1011 1011 1011 
1011 1011 1011 1011 1011 1011 1011 1011 1011 
1011 1011 1011 1011 1011 1011 1011 1011 1011 
1011 1011 1011 1011 1011 1011 1011 1011 1011 
1011 1011 1011 1011 1011 1011 1011 1011 1011 
1011 1011 1011 1011 1011 1011 1011 1011 1011 
1011 1011 1011 1011 1011 1011 1011 1011 1011 
1011 1011 1011 1011 1011 1011 1011 1011 1011 
1011 1011 1011 1011 1011 1011 1011 1011 1011 
1011 1011 1011 1011 1011 1011 1011 1011 1011 
1011 1011 1011 1011 1011 1011 1011 1011 1011 
1011 1011 1011 1011 1011 1011 1011 1011 1011 
1011 1011 1011 1011 1011 1011 1011 1011 1011 
1011 1011 1011 1011 1011 1011 1011 1011 1011 
1011 1011 1011 1011 1011 1011 1011 1011 1011 
1011 1011 1011 1011 1011 1011 1011 1011 1011 
1011 1011 1011 1011 1011 1011 1011 1011 1011 
1011 1011 1011 1011 1011 1011 1011 1011 1011 
1011 1011 1011 1011 1011 1011 1011 1011 1011 
1011 1011 1011 1011 1011 1011 1011 1011 1011 
1011 1011 1011 1011 1011 1011 1011 1011 1011 
1011 1011 1011 1011 1011 1011 1011 1011 1011 
1011 1011 1011 1011 1011 1011 1011 1011 1011 
1011 1011 1011 1011 1011 1011 1011 1011 1011 
1011 1011 1011 1011 1011 1011 1011 1011 1011 
1011 1011 1011 1011 1011 1011 1011 1011 1011 
1011 1011 1011 1011 1011 1011 1011 1011 1011 
1011 1011 1011 1011 1011 1011 1011 1011 1011 
1011 1011 1011 1011 1011 1011 1011 1011 1011 
1011 1011 1011 1011 1011 1011 1011 1011 1011 
1011 1011 1011 1011 1011 1011 1011 1011 1011 
1011 1011 1011 1011 1011 1011 1011 1011 1011 
1011 1011 1011 1011 1011 1011 1011 1011 1011 
1011 1011 1011 1011 1011 1011 1011 1011 1011 
1011 1011 1011 1011 1011 1011 1011 1011 1011 