# vtk DataFile Version 4.2
vtk output
ASCII
DATASET POLYDATA
POINTS 3870 float
41.7515 -15.6453 65.8898 41.7408 -15.0043 65.3678 41.2108 -15.5339 65.3715 
42.4403 -15.8073 65.8354 42.4096 -15.0792 65.5785 43.0018 -15.3995 65.5117 
40.9852 -16.2584 65.7836 40.692 -16.1262 65.1548 40.5152 -16.5688 65.4373 
41.6561 -16.4114 65.9039 42.2368 -16.5563 65.4533 42.9446 -16.0119 65.2122 
40.8064 -17.0018 65.4202 41.6917 -17.0327 65.4186 28.659 -18.473 65.78 
28.5715 -18.3499 65.4052 28.5055 -18.6252 65.4195 28.8254 -18.4077 65.3829 
30.9681 -18.6456 65.9562 30.7678 -18.2004 65.2715 30.3584 -18.7646 65.5843 
31.9302 -18.6842 65.9936 31.5483 -18.1422 65.614 32.7196 -18.7784 65.8169 
32.5901 -18.0161 65.2596 33.2442 -18.5349 65.3574 28.7594 -18.683 65.3971 
30.5998 -19.2965 65.8694 30.2922 -19.425 65.2212 31.3869 -19.4212 65.9706 
32.36 -19.4249 65.863 33.1672 -19.2186 65.5221 34.7202 -19.512 65.6138 
34.5859 -19.2764 65.4607 34.4342 -19.522 65.552 35.0936 -19.582 65.2206 
30.936 -19.8666 65.3957 31.9334 -19.9551 65.3703 32.8005 -19.8037 65.3666 
33.7139 -20.2748 65.5494 33.5056 -20.7024 65.2811 33.7084 -20.5629 65.6558 
34.6725 -19.8978 65.3365 34.0795 -20.6197 65.2677 33.7908 -20.9947 65.3905 
43.0603 -12.6749 64.8351 42.6176 -12.1529 64.459 42.278 -12.8234 64.4718 
43.7245 -12.7662 64.8354 43.3787 -12.0841 64.5625 44.1072 -12.392 64.2926 
39.7676 -13.7886 64.699 39.7032 -13.281 64.5391 39.3045 -13.7408 64.4707 
40.0489 -13.4791 64.4417 42.7933 -13.6438 64.8956 42.0538 -13.5709 64.4936 
43.6486 -13.5496 64.9155 44.1308 -13.3076 64.3997 39.6278 -14.3754 64.6624 
39.3385 -14.6753 64.3893 40.153 -14.2434 64.4648 42.0947 -14.3368 64.9196 
41.5782 -14.1149 64.3255 41.3026 -14.8901 64.6016 42.9719 -14.7201 65.1969 
43.6577 -14.5742 64.908 44.1574 -14.3563 64.3959 37.6574 -15.8417 64.7529 
37.5608 -15.2754 64.4671 37.1301 -15.6551 64.6521 38.0679 -15.4563 64.3899 
39.8734 -14.8618 64.3614 40.956 -15.5879 64.6484 43.5411 -15.4266 65.0365 
44.1018 -15.3135 64.3821 36.0288 -16.6367 64.8166 35.4853 -16.2078 64.2394 
35.2616 -16.816 64.4824 36.9077 -16.3337 64.9192 36.3556 -15.9173 64.376 
37.4583 -16.7163 64.7823 38.148 -16.2021 64.4305 40.5428 -16.0667 64.4046 
40.1998 -16.6674 64.8033 42.4567 -16.6857 64.6191 43.0019 -16.2701 64.3102 
43.6574 -15.8987 64.4371 32.7037 -17.5294 64.7947 32.6238 -17.3368 64.2669 
32.3378 -17.7216 64.4559 33.1377 -17.4095 64.4357 35.7389 -17.6788 64.8987 
35.0187 -17.5565 64.5362 36.7131 -17.4354 64.891 37.3377 -17.498 64.5257 
37.8531 -16.9847 64.3658 38.7959 -17.1637 64.3924 38.3317 -17.7784 64.3838 
39.0333 -17.6545 64.7359 39.8778 -17.4173 64.9397 39.3785 -16.9592 64.4434 
40.5185 -17.7901 64.954 41.4121 -17.5617 64.9406 42.0602 -17.4071 64.6104 
28.7269 -18.2344 64.409 28.3711 -18.7593 64.4918 29.1819 -18.6461 64.4075 
30.4833 -18.1081 64.3201 30.1448 -18.7515 64.5518 31.5737 -18.0575 64.5913 
33.8776 -18.6614 65.0002 33.5945 -18.0155 64.7368 34.8974 -18.6326 65.0013 
34.3916 -17.9258 64.4594 35.8747 -18.7281 65.0323 36.741 -18.651 64.8787 
37.2551 -18.2575 64.4704 38.5688 -18.5857 64.8446 38.0319 -18.6875 64.5489 
39.4986 -18.4882 64.8539 40.2876 -18.3873 64.6049 41.0645 -18.1445 64.5018 
41.7429 -18.032 64.3376 28.6764 -19.0325 64.6364 30.2801 -19.5444 64.3268 
33.8356 -19.7693 65.2196 35.6355 -19.3108 65.0094 36.4567 -19.4463 64.8904 
37.5361 -18.8735 64.5463 37.6626 -19.3647 64.8167 38.638 -19.4633 64.8234 
39.3203 -19.6249 64.3655 39.8397 -18.9588 64.4484 30.6367 -19.9253 64.6526 
31.579 -20.2222 64.4885 32.6512 -20.1592 64.7403 33.0675 -20.6603 64.5709 
34.55 -20.4043 65.0209 35.0157 -20.3518 64.7524 35.7029 -20.0102 64.3599 
36.8981 -19.937 64.5315 37.8437 -20.1109 64.4372 38.6923 -20.12 64.4125 
33.6537 -21.4556 64.9587 33.214 -21.5049 64.5079 34.0894 -21.3354 64.5853 
34.5897 -20.829 64.5174 33.6137 -21.8809 64.1881 39.8982 -10.7546 63.7657 
39.5236 -10.292 63.3203 39.3901 -10.6708 63.5598 40.0434 -10.5137 63.1945 
42.8184 -10.8072 63.748 42.7113 -10.3777 63.5037 42.3055 -10.67 63.5474 
42.989 -10.4668 63.4549 46.6929 -10.5048 63.6341 46.5651 -10.2772 63.5027 
46.4295 -10.4987 63.5681 47.0997 -10.6061 63.2574 39.8131 -11.479 63.8845 
39.3142 -11.4563 63.4073 40.689 -10.9989 63.3735 40.7902 -11.4958 63.8654 
41.8962 -11.2888 63.8476 41.7195 -11.0333 63.3116 42.6864 -11.6037 64.1642 
43.493 -10.8623 63.2043 43.8723 -11.5007 63.9606 44.9231 -11.4476 63.7718 
44.5999 -11.3119 63.3047 45.5312 -11.6057 63.6612 45.4771 -11.2522 63.4356 
46.6751 -10.8627 63.3409 46.1502 -11.59 63.2232 39.701 -12.7141 64.0554 
39.1435 -12.4187 63.3496 40.6695 -12.5036 63.9894 41.7345 -12.199 64.1037 
44.8215 -11.8767 63.6065 44.4432 -12.4646 63.3647 45.6782 -11.9655 63.2291 
37.8376 -13.7276 63.8265 37.5869 -13.1119 63.1343 37.0005 -13.615 63.5457 
38.8406 -13.2861 63.9495 38.5607 -12.9664 63.3379 40.5688 -13.5502 64.1117 
41.4608 -13.3667 64.1013 44.1598 -13.633 63.4229 36.8896 -14.3029 63.8013 
36.4655 -13.879 63.3259 36.3043 -14.519 63.3107 37.7606 -14.8081 64.1156 
38.7009 -14.4645 64.108 40.7308 -14.5924 64.1112 44.1833 -14.8983 63.6192 
36.8377 -15.1666 64.0768 36.2718 -15.529 63.2729 38.712 -15.6314 64.0545 
39.6782 -15.3037 64.0187 40.6039 -15.5125 64.0846 44.0474 -15.6346 63.7301 
33.7913 -16.7391 63.8185 33.8703 -16.1105 63.3185 33.2099 -16.3384 63.4015 
34.7553 -16.5062 64.0309 34.7867 -16.1404 63.5068 35.7206 -15.9593 63.677 
38.6059 -16.787 64.1468 39.7498 -16.2225 64.0633 42.6357 -16.7169 63.9363 
43.0749 -16.5006 63.3051 43.5476 -15.9506 63.553 32.7692 -16.8923 63.5988 
32.3185 -17.4381 63.4977 33.9303 -17.4939 64.1943 34.5634 -17.1569 64.1433 
37.7826 -17.6575 64.1904 42.3789 -17.4802 63.6515 42.7341 -17.1246 63.3379 
28.6481 -18.1229 63.256 28.2873 -18.5017 63.5886 29.8335 -18.4113 64.0855 
29.6832 -18.1437 63.4381 30.9888 -18.1568 63.5337 31.5659 -18.5099 63.7593 
31.4933 -18.5697 63.2976 31.9691 -18.2329 63.6097 37.7667 -18.3731 64.259 
40.5233 -18.8102 64.2113 41.3902 -18.7285 63.922 42.0354 -18.2624 63.6878 
28.5503 -19.4865 63.8894 28.3717 -19.25 63.2732 29.0504 -19.3521 63.6323 
29.6808 -18.9062 63.7451 30.1802 -19.2817 63.3032 31.7191 -18.7333 63.4501 
39.946 -19.4159 64.0791 40.6175 -19.4218 63.8026 41.2021 -19.3935 63.4556 
41.7314 -19.0119 63.1547 28.6668 -19.7367 63.3787 30.8396 -20.0879 63.7611 
31.7283 -20.7377 63.8872 31.2018 -20.7406 63.3696 32.4154 -20.6042 64.1821 
34.9013 -20.5205 64.0485 34.4199 -20.8792 63.6849 34.9386 -20.2259 63.2643 
35.6847 -20.0599 63.4753 36.6421 -20.2253 63.7121 37.6116 -20.5312 63.8559 
37.1067 -20.6299 63.3382 38.3908 -20.5778 63.9591 39.1343 -20.4017 63.8029 
39.9556 -20.0765 63.4502 40.7176 -19.8217 63.2541 31.69 -21.3693 63.7174 
31.3549 -21.4725 63.1746 32.4615 -21.3851 63.9931 33.9783 -21.4856 63.5457 
37.8955 -20.9053 63.2656 38.9219 -20.878 63.2617 32.0181 -21.9315 63.3967 
32.9001 -22.029 63.703 33.4406 -21.9426 63.2914 47.7087 -6.76894 62.7879 
47.4841 -6.17751 62.2563 47.1419 -6.60537 62.6242 48.0376 -6.4179 62.2873 
46.9304 -7.55889 62.9147 46.6801 -6.94391 62.5699 46.168 -7.43188 62.5196 
47.7652 -7.66013 62.9113 48.1613 -7.21639 62.439 46.0096 -8.44169 62.8685 
45.5856 -7.90353 62.3741 45.3551 -8.584 62.3989 46.8858 -8.72041 63.0751 
47.5975 -8.55814 62.9371 48.1309 -8.23299 62.4421 45.5723 -9.4849 62.8894 
45.1284 -9.42523 62.3694 46.6523 -9.69839 63.1782 47.5767 -9.57058 62.9356 
48.1031 -9.27339 62.3948 39.5577 -10.1423 62.3269 39.1209 -10.6623 62.7759 
40.299 -10.4078 62.4079 42.6768 -10.6044 63.2412 44.0008 -10.5788 62.746 
43.7122 -10.1929 62.1608 43.286 -10.5975 62.6204 44.8644 -10.5017 62.7156 
44.6177 -9.99901 62.3504 45.9874 -10.6367 63.2137 47.5756 -10.3433 62.9712 
48.071 -10.4021 62.2913 39.0402 -11.7316 62.625 40.6364 -10.8004 62.7494 
41.3948 -10.9416 62.6166 42.4992 -10.8117 62.6542 44.3928 -11.37 62.7313 
44.6569 -11.721 63.0746 44.7015 -11.2316 62.4064 45.0674 -11.5715 62.8365 
46.6046 -11.3578 63.0163 47.2642 -11.5624 62.5118 47.7591 -11.0828 62.5119 
38.9788 -12.7514 62.402 42.7703 -12.5545 62.6744 42.4779 -12.6988 62.2053 
42.6129 -12.2971 62.4943 43.0253 -12.558 62.5908 44.638 -11.9704 62.5849 
44.6829 -12.6526 62.8092 45.5038 -12.4851 62.7641 46.2151 -12.3627 62.7353 
46.7712 -12.0578 62.5224 36.7067 -13.3607 63.0446 36.9426 -13.1864 62.4812 
36.3157 -13.7057 62.6961 37.8561 -13.0719 62.4432 38.4752 -12.9647 62.7017 
42.7994 -13.0018 62.5461 43.3894 -13.2377 62.8207 43.1668 -13.82 62.4179 
43.7545 -13.051 62.4463 44.9996 -13.0634 62.443 45.8554 -12.9057 62.4192 
36.2982 -14.4329 62.5559 43.7566 -14.319 62.9512 43.4096 -14.7203 62.4408 
33.5701 -15.7501 62.896 33.7234 -15.2482 62.2079 33.1183 -15.6265 62.5141 
34.2375 -15.411 62.3547 36.573 -15.1182 62.5805 36.7233 -15.8133 62.7977 
37.0256 -15.4981 62.3902 43.7885 -15.2849 63.0363 43.3473 -15.6157 62.4908 
32.8139 -16.2152 62.9382 32.6448 -16.0361 62.1572 32.3729 -16.779 62.6704 
34.6111 -15.8401 62.6407 35.6648 -16.1143 62.8064 36.4943 -16.3622 62.7721 
36.2468 -16.6006 62.1659 37.1376 -16.2837 62.4936 43.3528 -16.5212 62.2046 
32.0723 -17.6498 62.5226 36.9476 -16.861 62.2578 42.6464 -17.7483 62.9043 
43.0299 -17.4457 62.55 28.9037 -18.2805 62.5933 28.3942 -18.5493 62.6761 
29.4746 -18.7977 62.9358 28.9139 -18.7336 62.3738 30.1265 -18.4702 62.4805 
30.711 -17.9167 62.4527 31.7867 -18.4654 63.04 31.5522 -18.0976 62.5214 
42.3302 -18.5862 62.558 42.7898 -18.1981 62.3262 28.564 -18.9638 62.4539 
28.8465 -19.3533 62.8874 30.3482 -19.3465 62.1476 41.3147 -19.7125 62.5094 
41.8153 -19.2453 62.3913 30.7177 -20.0529 62.7463 31.0488 -20.7256 62.5319 
34.1974 -20.6867 62.4954 34.8048 -19.9275 62.2899 35.6996 -20.1267 62.7394 
36.4999 -20.4745 62.901 36.2296 -20.535 62.1516 39.5836 -20.6629 63.0759 
40.226 -20.7161 62.3426 40.6507 -20.215 62.5406 31.0746 -21.4273 62.3614 
33.7682 -21.4539 62.8784 33.4469 -21.7257 62.6209 33.7927 -21.3357 62.3087 
36.958 -20.8549 62.6683 37.6855 -21.2199 62.4244 38.7188 -21.2388 62.6257 
39.6031 -21.1055 62.4915 31.6595 -22.0001 62.4266 32.8449 -22.0732 62.573 
46.6335 -6.59182 62.131 46.8831 -6.14924 61.4331 46.188 -6.60106 61.4673 
[...]
CELL_DATA 7756
SCALARS scalars float
LOOKUP_TABLE default
1019 1019 1019 1019 1019 1019 1019 1019 1019 
1019 1019 1019 1019 1019 1019 1019 1019 1019 
1019 1019 1019 1019 1019 1019 1019 1019 1019 
1019 1019 1019 1019 1019 1019 1019 1019 1019 
1019 1019 1019 1019 1019 1019 1019 1019 1019 
1019 1019 1019 1019 1019 1019 1019 1019 1019 
1019 1019 1019 1019 1019 1019 1019 1019 1019 
1019 1019 1019 1019 1019 1019 1019 1019 1019 
1019 1019 1019 1019 1019 1019 1019 1019 1019 
1019 1019 1019 1019 1019 1019 1019 1019 1019 
1019 1019 1019 1019 1019 1019 1019 1019 1019 
1019 1019 1019 1019 1019 1019 1019 1019 1019 
1019 1019 1019 1019 1019 1019 1019 1019 1019 
1019 1019 1019 1019 1019 1019 1019 1019 1019 
1019 1019 1019 1019 1019 1019 1019 1019 1019 
1019 1019 1019 1019 1019 1019 1019 1019 1019 
1019 1019 1019 1019 1019 1019 1019 1019 1019 
1019 1019 1019 1019 1019 1019 1019 1019 1019 
1019 1019 1019 1019 1019 1019 1019 1019 1019 
1019 1019 1019 1019 1019 1019 1019 1019 1019 
1019 1019 1019 1019 1019 1019 1019 1019 1019 
1019 1019 1019 1019 1019 1019 1019 1019 1019 
1019 1019 1019 1019 1019 1019 1019 1019 1019 
1019 1019 1019 1019 1019 1019 1019 1019 1019 
1019 1019 1019 1019 1019 1019 1019 1019 1019 
1019 1019 1019 1019 1019 1019 1019 1019 1019 
1019 1019 1019 1019 1019 1019 1019 1019 1019 
1019 1019 1019 1019 1019 1019 1019 1019 1019 
1019 1019 1019 1019 1019 1019 1019 1019 1019 
1019 1019 1019 1019 1019 1019 1019 1019 1019 
1019 1019 1019 1019 1019 1019 1019 1019 1019 
1019 1019 1019 1019 1019 1019 1019 1019 1019 
1019 1019 1019 1019 1019 1019 1019 1019 1019 
1019 1019 1019 1019 1019 1019 1019 1019 1019 
1019 1019 1019 1019 1019 1019 1019 1019 1019 
1019 1019 1019 1019 1019 1019 1019 1019 1019 
1019 1019 1019 1019 1019 1019 1019 1019 1019 
1019 1019 1019 1019 1019 1019 1019 1019 1019 
1019 1019 1019 1019 1019 1019 1019 1019 1019 
1019 1019 1019 1019 1019 1019 1019 1019 1019 
1019 1019 1019 1019 1019 1019 1019 1019 1019 
1019 1019 1019 1019 1019 1019 1019 1019 1019 
1019 1019 1019 1019 1019 1019 1019 1019 1019 
1019 1019 1019 1019 1019 1019 1019 1019 1019 
1019 1019 1019 1019 1019 1019 1019 1019 1019 
1019 1019 1019 1019 1019 1019 1019 1019 1019 
1019 1019 1019 1019 1019 1019 1019 1019 1019 
1019 1019 1019 1019 1019 1019 1019 1019 1019 
1019 1019 1019 1019 1019 1019 1019 1019 1019 
1019 1019 1019 1019 1019 1019 1019 1019 1019 
1019 1019 1019 1019 1019 1019 1019 1019 1019 
1019 1019 1019 1019 1019 1019 1019 1019 1019 
1019 1019 1019 1019 1019 1019 1019 1019 1019 
1019 1019 1019 1019 1019 1019 1019 1019 1019 
1019 1019 1019 1019 1019 1019 1019 1019 1019 
1019 1019 1019 1019 1019 1019 1019 1019 1019 
1019 1019 1019 1019 1019 1019 1019 1019 1019 
1019 1019 1019 1019 1019 1019 1019 1019 1019 
1019 1019 1019 1019 1019 1019 1019 1019 1019 
1019 1019 1019 1019 1019 1019 1019 1019 1019 
1019 1019 1019 1019 1019 1019 1019 1019 1019 
1019 1019 1019 1019 1019 1019 1019 1019 1019 
1019 1019 1019 1019 1019 1019 1019 1019 1019 
1019 1019 1019 1019 1019 1019 1019 1019 1019 
1019 1019 1019 1019 1019 1019 1019 1019 1019 
1019 1019 1019 1019 1019 1019 1019 1019 1019 
1019 1019 1019 1019 1019 1019 1019 1019 1019 
1019 1019 1019 1019 1019 1019 1019 1019 1019 
1019 1019 1019 1019 1019 1019 1019 1019 1019 
1019 1019 1019 1019 1019 1019 1019 1019 1019 
1019 1019 1019 1019 1019 1019 1019 1019 1019 
1019 1019 1019 1019 1019 1019 1019 1019 1019 
1019 1019 1019 1019 1019 1019 1019 1019 1019 
1019 1019 1019 1019 1019 1019 1019 1019 1019 
1019 1019 1019 1019 1019 1019 1019 1019 1019 
1019 1019 1019 1019 1019 1019 1019 1019 1019 
1019 1019 1019 1019 1019 1019 1019 1019 1019 
1019 1019 1019 1019 1019 1019 1019 1019 1019 
1019 1019 1019 1019 1019 1019 1019 1019 1019 
1019 1019 1019 1019 1019 1019 1019 1019 1019 
1019 1019 1019 1019 1019 1019 1019 1019 1019 
1019 1019 1019 1019 1019 1019 1019 1019 1019 
1019 1019 1019 1019 1019 1019 1019 1019 1019 
1019 1019 1019 1019 1019 1019 1019 1019 1019 
1019 1019 1019 1019 1019 1019 1019 1019 1019 
1019 1019 1019 1019 1019 1019 1019 1019 1019 
1019 1019 1019 1019 1019 1019 1019 1019 1019 
1019 1019 1019 1019 1019 1019 1019 1019 1019 
1019 1019 1019 1019 1019 1019 1019 1019 1019 
1019 1019 1019 1019 1019 1019 1019 1019 1019 
1019 1019 1019 1019 1019 1019 1019 1019 1019 
1019 1019 1019 1019 1019 1019 1019 1019 1019 
1019 1019 1019 1019 1019 1019 1019 1019 1019 
1019 1019 1019 1019 1019 1019 1019 1019 1019 
1019 1019 1019 1019 1019 1019 1019 1019 1019 
1019 1019 1019 1019 1019 1019 1019 1019 1019 
1019 1019 1019 1019 1019 1019 1019 1019 1019 
1019 1019 1019 1019 1019 1019 1019 1019 1019 
1019 1019 1019 1019 1019 1019 1019 1019 1019 
1019 1019 1019 1019 1019 1019 1019 1019 1019 
1019 1019 1019 1019 1019 1019 1019 1019 1019 
1019 1019 1019 1019 1019 1019 1019 1019 1019 
1019 1019 1019 1019 1019 1019 1019 1019 1019 
1019 1019 1019 1019 1019 1019 1019 1019 1019 
1019 1019 1019 1019 1019 1019 1019 1019 1019 
1019 1019 1019 1019 1019 1019 1019 1019 1019 
1019 1019 1019 1019 1019 1019 1019 1019 1019 
1019 1019 1019 1019 1019 1019 1019 1019 1019 
1019 1019 1019 1019 1019 1019 1019 1019 1019 
1019 1019 1019 1019 1019 1019 1019 1019 1019 
1019 1019 1019 1019 1019 1019 1019 1019 1019 
1019 1019 1019 1019 1019 1019 1019 1019 1019 
1019 1019 1019 1019 1019 1019 1019 1019 1019 
1019 1019 1019 1019 1019 1019 1019 1019 1019 
1019 1019 1019 1019 1019 1019 1019 1019 1019 
1019 1019 1019 1019 1019 1019 1019 1019 1019 
1019 1019 1019 1019 1019 1019 1019 1019 1019 
1019 1019 1019 1019 1019 1019 1019 1019 1019 
1019 1019 1019 1019 1019 1019 1019 1019 1019 
1019 1019 1019 1019 1019 1019 1019 1019 1019 
1019 1019 1019 1019 1019 1019 1019 1019 1019 
1019 1019 1019 1019 1019 1019 1019 1019 1019 
1019 1019 1019 1019 1019 1019 1019 1019 1019 
1019 1019 1019 1019 1019 1019 1019 1019 1019 
1019 1019 1019 1019 1019 1019 1019 1019 1019 
1019 1019 1019 1019 1019 1019 1019 1019 1019 
1019 1019 1019 1019 1019 1019 1019 1019 1019 
1019 1019 1019 1019 1019 1019 1019 1019 1019 
1019 1019 1019 1019 1019 1019 1019 1019 1019 
1019 1019 1019 1019 1019 1019 1019 1019 1019 
1019 1019 1019 1019 1019 1019 1019 1019 1019 
1019 1019 1019 1019 1019 1019 1019 1019 1019 
1019 1019 1019 1019 1019 1019 1019 1019 1019 
1019 1019 1019 1019 1019 1019 1019 1019 1019 
1019 1019 1019 1019 1019 1019 1019 1019 1019 
1019 1019 1019 1019 1019 1019 1019 1019 1019 
1019 1019 1019 1019 1019 1019 1019 1019 1019 
1019 1019 1019 1019 1019 1019 1019 1019 1019 
1019 1019 1019 1019 1019 1019 1019 1019 1019 
1019 1019 1019 1019 1019 1019 1019 1019 1019 
1019 1019 1019 1019 1019 1019 1019 1019 1019 
1019 1019 1019 1019 1019 1019 1019 1019 1019 
1019 1019 1019 1019 1019 1019 1019 1019 1019 
1019 1019 1019 1019 1019 1019 1019 1019 1019 
1019 1019 1019 1019 1019 1019 1019 1019 1019 
1019 1019 1019 1019 1019 1019 1019 1019 1019 
1019 1019 1019 1019 1019 1019 1019 1019 1019 
1019 1019 1019 1019 1019 1019 1019 1019 1019 
1019 1019 1019 1019 1019 1019 1019 1019 1019 
1019 1019 1019 1019 1019 1019 1019 1019 1019 
1019 1019 1019 1019 1019 1019 1019 1019 1019 
1019 1019 1019 1019 1019 1019 1019 1019 1019 
1019 1019 1019 1019 1019 1019 1019 1019 1019 
1019 1019 1019 1019 1019 1019 1019 1019 1019 
1019 1019 1019 1019 1019 1019 1019 1019 1019 
1019 1019 1019 1019 1019 1019 1019 1019 1019 
1019 1019 1019 1019 1019 1019 1019 1019 1019 
1019 1019 1019 1019 1019 1019 1019 1019 1019 
1019 1019 1019 1019 1019 1019 1019 1019 1019 
1019 1019 1019 1019 1019 1019 1019 1019 1019 
1019 1019 1019 1019 1019 1019 1019 1019 1019 
1019 1019 1019 1019 1019 1019 1019 1019 1019 
1019 1019 1019 1019 1019 1019 1019 1019 1019 
1019 1019 1019 1019 1019 1019 1019 1019 1019 
1019 1019 1019 1019 1019 1019 1019 1019 1019 
1019 1019 1019 1019 1019 1019 1019 1019 1019 
1019 1019 1019 1019 1019 1019 1019 1019 1019 
1019 1019 1019 1019 1019 1019 1019 1019 1019 
1019 1019 1019 1019 1019 1019 1019 1019 1019 
1019 1019 1019 1019 1019 1019 1019 1019 1019 
1019 1019 1019 1019 1019 1019 1019 1019 1019 
1019 1019 1019 1019 1019 1019 1019 1019 1019 
1019 1019 1019 1019 1019 1019 1019 1019 1019 
1019 1019 1019 1019 1019 1019 1019 1019 1019 
1019 1019 1019 1019 1019 1019 1019 1019 1019 
1019 1019 1019 1019 1019 1019 1019 1019 1019 
1019 1019 1019 1019 1019 1019 1019 1019 1019 
1019 1019 1019 1019 1019 1019 1019 1019 1019 
1019 1019 1019 1019 1019 1019 1019 1019 1019 
1019 1019 1019 1019 1019 1019 1019 1019 1019 
1019 1019 1019 1019 1019 1019 1019 1019 1019 
1019 1019 1019 1019 1019 1019 1019 1019 1019 
1019 1019 1019 1019 1019 1019 1019 1019 1019 
1019 1019 1019 1019 1019 1019 1019 1019 1019 
1019 1019 1019 1019 1019 1019 1019 1019 1019 
1019 1019 1019 1019 1019 1019 1019 1019 1019 
1019 1019 1019 1019 1019 1019 1019 1019 1019 
1019 1019 1019 1019 1019 1019 1019 1019 1019 
1019 1019 1019 1019 1019 1019 1019 1019 1019 
1019 1019 1019 1019 1019 1019 1019 1019 1019 
1019 1019 1019 1019 1019 1019 1019 1019 1019 
1019 1019 1019 1019 1019 1019 1019 1019 1019 
1019 1019 1019 1019 1019 1019 1019 1019 1019 
1019 1019 1019 1019 1019 1019 1019 1019 1019 
1019 1019 1019 1019 1019 1019 1019 1019 1019 
1019 1019 1019 1019 1019 1019 1019 1019 1019 
1019 1019 1019 1019 1019 1019 1019 1019 1019 
1019 1019 1019 1019 1019 1019 1019 1019 1019 
1019 1019 1019 1019 1019 1019 1019 1019 1019 
1019 1019 1019 1019 1019 1019 1019 1019 1019 
1019 1019 1019 1019 1019 1019 1019 1019 1019 
1019 1019 1019 1019 1019 1019 1019 1019 1019 
1019 1019 1019 1019 1019 1019 1019 1019 1019 
1019 1019 1019 1019 1019 1019 1019 1019 1019 
1019 1019 1019 1019 1019 1019 1019 1019 1019 
1019 1019 1019 1019 1019 1019 1019 1019 1019 
1019 1019 1019 1019 1019 1019 1019 1019 1019 
1019 1019 1019 1019 1019 1019 1019 1019 1019 
1019 1019 1019 1019 1019 1019 1019 1019 1019 
1019 1019 1019 1019 1019 1019 1019 1019 1019 
1019 1019 1019 1019 1019 1019 1019 1019 1019 
1019 1019 1019 1019 1019 1019 1019 1019 1019 
1019 1019 1019 1019 1019 1019 1019 1019 1019 
1019 1019 1019 1019 1019 1019 1019 1019 1019 
1019 1019 1019 1019 1019 1019 1019 1019 1019 
1019 1019 1019 1019 1019 1019 1019 1019 1019 
1019 1019 1019 1019 1019 1019 1019 1019 1019 
1019 1019 1019 1019 1019 1019 1019 1019 1019 
1019 1019 1019 1019 1019 1019 1019 1019 1019 
1019 1019 1019 1019 1019 1019 1019 1019 1019 
1019 1019 1019 1019 1019 1019 1019 1019 1019 
1019 1019 1019 1019 1019 1019 1019 1019 1019 
1019 1019 1019 1019 1019 1019 1019 1019 1019 
1019 1019 1019 1019 1019 1019 1019 1019 1019 
1019 1019 1019 1019 1019 1019 1019 1019 1019 
1019 1019 1019 1019 1019 1019 1019 1019 1019 
1019 1019 1019 1019 1019 1019 1019 1019 1019 
1019 1019 1019 1019 1019 1019 1019 1019 1019 
1019 1019 1019 1019 1019 1019 1019 1019 1019 
1019 1019 1019 1019 1019 1019 1019 1019 1019 
1019 1019 1019 1019 1019 1019 1019 1019 1019 
1019 1019 1019 1019 1019 1019 1019 1019 1019 
1019 1019 1019 1019 1019 1019 1019 1019 1019 
1019 1019 1019 1019 1019 1019 1019 1019 1019 
1019 1019 1019 1019 1019 1019 1019 1019 1019 
1019 1019 1019 1019 1019 1019 1019 1019 1019 
1019 1019 1019 1019 1019 1019 1019 1019 1019 
1019 1019 1019 1019 1019 1019 1019 1019 1019 
1019 1019 1019 1019 1019 1019 1019 1019 1019 
1019 1019 1019 1019 1019 1019 1019 1019 1019 
1019 1019 1019 1019 1019 1019 1019 1019 1019 
1019 1019 1019 1019 1019 1019 1019 1019 1019 
1019 1019 1019 1019 1019 1019 1019 1019 1019 
1019 1019 1019 1019 1019 1019 1019 1019 1019 
1019 1019 1019 1019 1019 1019 1019 1019 1019 
1019 1019 1019 1019 1019 1019 1019 1019 1019 
1019 1019 1019 1019 1019 1019 1019 1019 1019 
1019 1019 1019 1019 1019 1019 1019 1019 1019 
1019 1019 1019 1019 1019 1019 1019 1019 1019 
1019 1019 1019 1019 1019 1019 1019 1019 1019 
1019 1019 1019 1019 1019 1019 1019 1019 1019 
1019 1019 1019 1019 1019 1019 1019 1019 1019 
1019 1019 1019 1019 1019 1019 1019 1019 1019 
1019 1019 1019 1019 1019 1019 1019 1019 1019 
1019 1019 1019 1019 1019 1019 1019 1019 1019 
1019 1019 1019 1019 1019 1019 1019 1019 1019 
1019 1019 1019 1019 1019 1019 1019 1019 1019 
1019 1019 1019 1019 1019 1019 1019 1019 1019 
1019 1019 1019 1019 1019 1019 1019 1019 1019 
1019 1019 1019 1019 1019 1019 1019 1019 1019 
1019 1019 1019 1019 1019 1019 1019 1019 1019 
1019 1019 1019 1019 1019 1019 1019 1019 1019 
1019 1019 1019 1019 1019 1019 1019 1019 1019 
1019 1019 1019 1019 1019 1019 1019 1019 1019 
1019 1019 1019 1019 1019 1019 1019 1019 1019 
1019 1019 1019 1019 1019 1019 1019 1019 1019 
1019 1019 1019 1019 1019 1019 1019 1019 1019 
1019 1019 1019 1019 1019 1019 1019 1019 1019 
1019 1019 1019 1019 1019 1019 1019 1019 1019 
1019 1019 1019 1019 1019 1019 1019 1019 1019 
1019 1019 1019 1019 1019 1019 1019 1019 1019 
1019 1019 1019 1019 1019 1019 1019 1019 1019 
1019 1019 1019 1019 1019 1019 1019 1019 1019 
1019 1019 1019 1019 1019 1019 1019 1019 1019 
1019 1019 1019 1019 1019 1019 1019 1019 1019 
1019 1019 1019 1019 1019 1019 1019 1019 1019 
1019 1019 1019 1019 1019 1019 1019 1019 1019 
1019 1019 1019 1019 1019 1019 1019 1019 1019 
1019 1019 1019 1019 1019 1019 1019 1019 1019 
1019 1019 1019 1019 1019 1019 1019 1019 1019 
1019 1019 1019 1019 1019 1019 1019 1019 1019 
1019 1019 1019 1019 1019 1019 1019 1019 1019 
1019 1019 1019 1019 1019 1019 1019 1019 1019 
1019 1019 1019 1019 1019 1019 1019 1019 1019 
1019 1019 1019 1019 1019 1019 1019 1019 1019 
1019 1019 1019 1019 1019 1019 1019 1019 1019 
1019 1019 1019 1019 1019 1019 1019 1019 1019 
1019 1019 1019 1019 1019 1019 1019 1019 1019 
1019 1019 1019 1019 1019 1019 1019 1019 1019 
1019 1019 1019 1019 1019 1019 1019 1019 1019 
1019 1019 1019 1019 1019 1019 1019 1019 1019 
1019 1019 1019 1019 1019 1019 1019 1019 1019 
1019 1019 1019 1019 1019 1019 1019 1019 1019 
1019 1019 1019 1019 1019 1019 1019 1019 1019 
1019 1019 1019 1019 1019 1019 1019 1019 1019 
1019 1019 1019 1019 1019 1019 1019 1019 1019 
1019 1019 1019 1019 1019 1019 1019 1019 1019 
1019 1019 1019 1019 1019 1019 1019 1019 1019 
1019 1019 1019 1019 1019 1019 1019 1019 1019 
1019 1019 1019 1019 1019 1019 1019 1019 1019 
1019 1019 1019 1019 1019 1019 1019 1019 1019 
1019 1019 1019 1019 1019 1019 1019 1019 1019 
1019 1019 1019 1019 1019 1019 1019 1019 1019 
1019 1019 1019 1019 1019 1019 1019 1019 1019 
1019 1019 1019 1019 1019 1019 1019 1019 1019 
1019 1019 1019 1019 1019 1019 1019 1019 1019 
1019 1019 1019 1019 1019 1019 1019 1019 1019 
1019 1019 1019 1019 1019 1019 1019 1019 1019 
1019 1019 1019 1019 1019 1019 1019 1019 1019 
1019 1019 1019 1019 1019 1019 1019 1019 1019 
1019 1019 1019 1019 1019 1019 1019 1019 1019 
1019 1019 1019 1019 1019 1019 1019 1019 1019 
1019 1019 1019 1019 1019 1019 1019 1019 1019 
1019 1019 1019 1019 1019 1019 1019 1019 1019 
1019 1019 1019 1019 1019 1019 1019 1019 1019 
1019 1019 1019 1019 1019 1019 1019 1019 1019 
1019 1019 1019 1019 1019 1019 1019 1019 1019 
1019 1019 1019 1019 1019 1019 1019 1019 1019 
1019 1019 1019 1019 1019 1019 1019 1019 1019 
1019 1019 1019 1019 1019 1019 1019 1019 1019 
1019 1019 1019 1019 1019 1019 1019 1019 1019 
1019 1019 1019 1019 1019 1019 1019 1019 1019 
1019 1019 1019 1019 1019 1019 1019 1019 1019 
1019 1019 1019 1019 1019 1019 1019 1019 1019 
1019 1019 1019 1019 1019 1019 1019 1019 1019 
1019 1019 1019 1019 1019 1019 1019 1019 1019 
1019 1019 1019 1019 1019 1019 1019 1019 1019 
1019 1019 1019 1019 1019 1019 1019 1019 1019 
1019 1019 1019 1019 1019 1019 1019 1019 1019 
1019 1019 1019 1019 1019 1019 1019 1019 1019 
1019 1019 1019 1019 1019 1019 1019 1019 1019 
1019 1019 1019 1019 1019 1019 1019 1019 1019 
1019 1019 1019 1019 1019 1019 1019 1019 1019 
1019 1019 1019 1019 1019 1019 1019 1019 1019 
1019 1019 1019 1019 1019 1019 1019 1019 1019 
1019 1019 1019 1019 1019 1019 1019 1019 1019 
1019 1019 1019 1019 1019 1019 1019 1019 1019 
1019 1019 1019 1019 1019 1019 1019 1019 1019 
1019 1019 1019 1019 1019 1019 1019 1019 1019 
1019 1019 1019 1019 1019 1019 1019 1019 1019 
1019 1019 1019 1019 1019 1019 1019 1019 1019 
1019 1019 1019 1019 1019 1019 1019 1019 1019 
1019 1019 1019 1019 1019 1019 1019 1019 1019 
1019 1019 1019 1019 1019 1019 1019 1019 1019 
1019 1019 1019 1019 1019 1019 1019 1019 1019 
1019 1019 1019 1019 1019 1019 1019 1019 1019 
1019 1019 1019 1019 1019 1019 1019 1019 1019 
1019 1019 1019 1019 1019 1019 1019 1019 1019 
1019 1019 1019 1019 1019 1019 1019 1019 1019 
1019 1019 1019 1019 1019 1019 1019 1019 1019 
1019 1019 1019 1019 1019 1019 1019 1019 1019 
1019 1019 1019 1019 1019 1019 1019 1019 1019 
1019 1019 1019 1019 1019 1019 1019 1019 1019 
1019 1019 1019 1019 1019 1019 1019 1019 1019 
1019 1019 1019 1019 1019 1019 1019 1019 1019 
1019 1019 1019 1019 1019 1019 1019 1019 1019 
1019 1019 1019 1019 1019 1019 1019 1019 1019 
1019 1019 1019 1019 1019 1019 1019 1019 1019 
1019 1019 1019 1019 1019 1019 1019 1019 1019 
1019 1019 1019 1019 1019 1019 1019 1019 1019 
1019 1019 1019 1019 1019 1019 1019 1019 1019 
1019 1019 1019 1019 1019 1019 1019 1019 1019 
1019 1019 1019 1019 1019 1019 1019 1019 1019 
1019 1019 1019 1019 1019 1019 1019 1019 1019 
1019 1019 1019 1019 1019 1019 1019 1019 1019 
1019 1019 1019 1019 1019 1019 1019 1019 1019 
1019 1019 1019 1019 1019 1019 1019 1019 1019 
1019 1019 1019 1019 1019 1019 1019 1019 1019 
1019 1019 1019 1019 1019 1019 1019 1019 1019 
1019 1019 1019 1019 1019 1019 1019 1019 1019 
1019 1019 1019 1019 1019 1019 1019 1019 1019 
1019 1019 1019 1019 1019 1019 1019 1019 1019 
1019 1019 1019 1019 1019 1019 1019 1019 1019 
1019 1019 1019 1019 1019 1019 1019 1019 1019 
1019 1019 1019 1019 1019 1019 1019 1019 1019 
1019 1019 1019 1019 1019 1019 1019 1019 1019 
1019 1019 1019 1019 1019 1019 1019 1019 1019 
1019 1019 1019 1019 1019 1019 1019 1019 1019 
1019 1019 1019 1019 1019 1019 1019 1019 1019 
1019 1019 1019 1019 1019 1019 1019 1019 1019 
1019 1019 1019 1019 1019 1019 1019 1019 1019 
1019 1019 1019 1019 1019 1019 1019 1019 1019 
1019 1019 1019 1019 1019 1019 1019 1019 1019 
1019 1019 1019 1019 1019 1019 1019 1019 1019 
1019 1019 1019 1019 1019 1019 1019 1019 1019 
1019 1019 1019 1019 1019 1019 1019 1019 1019 
1019 1019 1019 1019 1019 1019 1019 1019 1019 
1019 1019 1019 1019 1019 1019 1019 1019 1019 
1019 1019 1019 1019 1019 1019 1019 1019 1019 
1019 1019 1019 1019 1019 1019 1019 1019 1019 
1019 1019 1019 1019 1019 1019 1019 1019 1019 
1019 1019 1019 1019 1019 1019 1019 1019 1019 
1019 1019 1019 1019 1019 1019 1019 1019 1019 
1019 1019 1019 1019 1019 1019 1019 1019 1019 
1019 1019 1019 1019 1019 1019 1019 1019 1019 
1019 1019 1019 1019 1019 1019 1019 1019 1019 
1019 1019 1019 1019 1019 1019 1019 1019 1019 
1019 1019 1019 1019 1019 1019 1019 1019 1019 
1019 1019 1019 1019 1019 1019 1019 1019 1019 
1019 1019 1019 1019 1019 1019 1019 1019 1019 
1019 1019 1019 1019 1019 1019 1019 1019 1019 
1019 1019 1019 1019 1019 1019 1019 1019 1019 
1019 1019 1019 1019 1019 1019 1019 1019 1019 
1019 1019 1019 1019 1019 1019 1019 1019 1019 
1019 1019 1019 1019 1019 1019 1019 1019 1019 
1019 1019 1019 1019 1019 1019 1019 1019 1019 
1019 1019 1019 1019 1019 1019 1019 1019 1019 
1019 1019 1019 1019 1019 1019 1019 1019 1019 
1019 1019 1019 1019 1019 1019 1019 1019 1019 
1019 1019 1019 1019 1019 1019 1019 1019 1019 
1019 1019 1019 1019 1019 1019 1019 1019 1019 
1019 1019 1019 1019 1019 1019 1019 1019 1019 
1019 1019 1019 1019 1019 1019 1019 1019 1019 
1019 1019 1019 1019 1019 1019 1019 1019 1019 
1019 1019 1019 1019 1019 1019 1019 1019 1019 
1019 1019 1019 1019 1019 1019 1019 1019 1019 
1019 1019 1019 1019 1019 1019 1019 1019 1019 
1019 1019 1019 1019 1019 1019 1019 1019 1019 
1019 1019 1019 1019 1019 1019 1019 1019 1019 
1019 1019 1019 1019 1019 1019 1019 1019 1019 
1019 1019 1019 1019 1019 1019 1019 1019 1019 
1019 1019 1019 1019 1019 1019 1019 1019 1019 
1019 1019 1019 1019 1019 1019 1019 1019 1019 
1019 1019 1019 1019 1019 1019 1019 1019 1019 
1019 1019 1019 1019 1019 1019 1019 1019 1019 
1019 1019 1019 1019 1019 1019 1019 1019 1019 
1019 1019 1019 1019 1019 1019 1019 1019 1019 
1019 1019 1019 1019 1019 1019 1019 1019 1019 
1019 1019 1019 1019 1019 1019 1019 1019 1019 
1019 1019 1019 1019 1019 1019 1019 1019 1019 
1019 1019 1019 1019 1019 1019 1019 1019 1019 
1019 1019 1019 1019 1019 1019 1019 1019 1019 
1019 1019 1019 1019 1019 1019 1019 1019 1019 