# vtk DataFile Version 4.2
vtk output
ASCII
DATASET POLYDATA
POINTS 4894 float
-8.38034 33.1437 25.7845 -8.25132 33.6096 25.5297 -8.64816 33.3253 25.5227 
-8.07462 33.3797 25.4101 -10.2274 32.5547 25.7544 -10.1923 32.7579 25.3478 
-10.5712 32.4293 25.5594 -9.32248 32.6397 25.8395 -9.45428 32.9921 25.5035 
-8.53218 32.4552 25.8227 -7.98665 32.7554 25.503 -10.0919 32.2126 25.5118 
-9.03908 32.0479 25.4379 -8.05532 32.1164 25.3025 -4.12932 34.2922 24.9293 
-4.15377 34.7983 24.2275 -4.76119 34.3659 24.5819 -3.009 34.384 25.0005 
-3.40521 34.8731 24.5798 -2.22745 34.2434 24.8518 -2.37641 35.0311 24.2296 
-1.70766 34.333 24.2454 -9.38537 33.2868 24.8269 -9.34894 33.6629 24.2409 
-9.5955 33.4257 24.3944 -8.2334 33.5514 25.2657 -8.82498 33.4643 24.138 
-7.17959 33.4163 24.7871 -6.99976 33.6865 24.2362 -7.52499 33.4761 24.5365 
-6.35874 33.3216 24.8173 -6.29581 33.8367 24.3554 -5.26032 33.6886 24.8489 
-5.44578 34.03 24.4375 -4.48641 33.5273 24.9065 -3.5394 33.6282 24.9626 
-2.58081 33.6048 24.9155 -1.91557 33.4686 24.4165 -12.3782 32.4513 24.7196 
-12.3188 32.6619 24.2534 -12.5522 32.3807 24.4053 -11.9241 32.3242 24.3283 
-10.2732 32.3663 25.1446 -9.83591 32.665 24.5119 -8.14678 33.1968 24.7658 
-7.37993 32.6457 24.9991 -6.66972 32.3909 24.3734 -5.97314 32.9122 24.5567 
-5.06216 32.9885 24.5669 -4.06642 32.9546 24.557 -3.02284 32.9602 24.5581 
-2.35265 33.0656 24.5738 -12.3775 32.2665 24.5606 -9.40696 31.9053 24.7145 
-8.23869 31.7025 24.6518 -7.36814 31.8835 24.5278 -2.23834 35.5443 23.7512 
-2.23085 35.6486 23.4507 -2.48195 35.4476 23.4875 -2.06208 35.4235 23.4792 
-4.47817 34.8604 23.2583 -4.83831 34.5058 23.8381 -3.38255 35.1683 23.4539 
-1.2814 34.3205 23.7277 -1.57766 34.7656 23.4844 -1.14115 34.4194 23.4704 
-9.32628 33.8 23.5994 -9.8125 33.3454 23.8302 -8.75906 33.591 23.1749 
-7.43683 33.389 24.085 -7.04039 33.5029 23.5951 -6.55609 33.8419 23.3989 
-5.63453 34.1681 23.4324 -1.42416 33.8374 23.4596 -1.18986 34.1732 23.4685 
-12.4058 33.0195 23.499 -12.6551 32.5478 23.4708 -10.9909 32.268 23.9388 
-11.6372 32.9322 23.7113 -10.1506 32.3629 23.9105 -10.6006 33.0322 23.5145 
-8.26875 33.1016 23.6225 -7.63654 33.1409 23.3729 -6.18571 32.4451 24.1204 
-5.36791 32.2576 23.9755 -4.50581 32.4411 24.1817 -3.56924 32.2777 23.9912 
-2.29579 32.5746 24.0223 -1.45091 32.9394 23.7298 -1.47675 32.3698 23.6679 
-0.944159 32.5451 23.1465 -12.1937 31.9875 23.7544 -11.4568 31.6627 23.9108 
-11.6275 31.4578 23.3689 -10.5343 31.508 23.8389 -9.57352 31.5536 23.9619 
-8.53021 31.3363 23.9692 -7.58969 31.3646 23.9072 -6.95223 31.6115 23.7518 
-6.29718 31.9787 23.3872 -5.41838 31.9086 23.4224 -4.35865 31.7791 23.7787 
-4.79162 31.4 23.2464 -3.75641 31.6016 23.5158 -2.96278 31.8652 23.4589 
-1.93852 31.9615 23.464 -1.1914 31.9636 23.3094 -11.0217 31.1431 23.4189 
-10.0556 31.0007 23.3495 -9.09927 31.018 23.4338 -8.29984 31.104 23.2634 
-7.45766 31.2311 23.3769 -4.1548 31.1917 23.3762 -2.06457 30.2179 23.8823 
-2.36073 30.8811 23.4103 -2.87024 30.3755 23.5684 -1.18995 30.2112 23.7824 
-1.54228 30.915 23.4774 -0.876384 30.6699 23.2567 -2.993 29.5023 23.9218 
-3.54196 29.9703 23.3288 -3.64714 29.1835 23.5355 -2.27137 29.4202 24.1266 
-1.57933 29.3472 23.9379 -0.950483 29.7458 23.4724 -3.32103 28.6629 23.8533 
-3.63902 28.5452 23.2158 -2.48086 28.645 23.9561 -1.78162 28.6217 23.4571 
-1.29592 29.128 23.4318 -2.99806 28.1011 23.4405 -2.28911 28.0973 23.3566 
-10.189 35.1803 22.7666 -10.3818 35.6965 22.251 -10.8282 35.3501 22.5103 
-9.71703 35.3942 22.1315 -3.16267 35.4262 22.6986 -3.42764 35.7481 22.0944 
-3.73108 35.4109 22.6247 -2.25969 35.5391 23.1933 -2.7041 35.5574 22.2768 
-1.29251 35.5151 22.5875 -1.49371 35.7117 22.2458 -1.55395 35.4966 22.5259 
-1.03578 35.3652 22.1204 -12.0088 34.3331 22.7747 -12.259 34.9595 22.2373 
-12.6989 34.3779 22.3986 -11.0043 34.5766 22.8742 -11.497 35.0015 22.3861 
-10.2576 34.5557 22.9884 -9.4727 34.8813 22.5939 -9.51257 34.3909 23.0101 
-9.0291 34.2071 22.6294 -5.11822 34.5296 23.0236 -5.20768 34.8204 22.4791 
-5.6963 34.4052 22.5802 -4.3792 35.181 22.6025 -2.36012 35.2453 22.8745 
-1.30008 34.3103 23.2081 -1.6199 34.5225 22.6619 -1.40351 35.253 22.4393 
-12.2541 33.5822 23.0496 -12.8094 33.409 22.6023 -11.3249 33.6399 23.135 
-10.2298 33.8737 23.1831 -8.67188 33.6473 22.2926 -7.13748 33.4788 22.9946 
-7.02831 33.8218 22.5676 -7.62959 33.4367 22.4711 -6.37172 34.1651 22.5575 
-1.20619 33.9553 22.4755 -1.14179 33.2616 23.0822 -0.838431 33.3558 22.3938 
-12.7034 32.6953 22.3353 -8.20152 33.1528 22.7384 -0.696076 32.5893 22.3062 
-12.2734 32.1183 22.616 -11.4952 31.7151 22.5336 -11.2154 31.294 22.8739 
-10.7833 31.4523 22.2512 -7.89767 31.3843 22.8686 -8.69692 31.3208 22.5857 
-8.36285 31.7283 22.1 -7.27984 31.7743 22.5875 -7.14238 31.4979 23.1574 
-6.49683 32.0887 22.3075 -5.49633 31.9555 22.727 -4.87879 31.6698 22.3279 
-3.48849 31.2136 23.163 -2.38106 31.3838 23.196 -1.3263 31.4361 23.1917 
-0.784219 31.5841 22.6413 -10.5159 31.0851 22.7102 -9.44892 31.0637 22.6915 
-4.08582 30.486 22.9775 -4.63859 30.491 22.2877 -3.15849 30.7747 23.1689 
-0.878108 30.3825 22.6111 -4.3415 29.8917 22.5144 -3.99908 29.2741 22.5954 
-1.13333 29.552 22.964 -1.57366 29.2542 22.5938 -1.30174 29.9664 22.3357 
-3.75454 28.5238 22.5011 -1.88895 28.3699 22.4327 -3.29933 27.8854 22.5036 
-2.40726 27.7888 22.6347 -9.38676 36.2283 21.7683 -9.23885 36.6534 21.5453 
-9.50794 36.5328 21.5146 -9.06509 36.4379 21.527 -12.2123 35.408 21.7429 
-12.2356 36.0029 21.1699 -12.7263 35.3823 21.5812 -11.7546 35.5404 21.3399 
-10.1464 35.987 21.3665 -10.9178 35.5205 21.8689 -9.31993 35.6223 21.8921 
-8.92768 35.8506 21.3876 -6.25588 35.3557 21.7199 -6.38906 35.8578 21.393 
-6.90484 35.317 21.4927 -5.20651 35.3858 21.9572 -5.56085 35.9965 21.4637 
-4.2456 35.55 22.1472 -4.41329 35.9901 21.5845 -3.28716 36.1114 21.3188 
-1.91785 35.3082 22.2639 -2.21526 35.8922 21.6098 -1.22661 35.8524 21.6139 
-0.822336 35.5252 21.2634 -12.9492 34.4711 21.5365 -11.634 35.2507 21.7738 
-9.23851 34.3657 22.0059 -9.50273 34.5657 21.6097 -9.23666 35.095 21.5567 
-7.17354 34.373 21.889 -7.48594 34.8605 21.3372 -7.95111 34.2192 21.4441 
-6.08342 34.7175 22.0975 -1.31919 34.7431 22.1753 -0.817692 34.526 21.5839 
-12.7472 33.555 21.461 -9.27908 34.1581 21.4295 -8.69332 33.9832 21.4978 
-8.12596 33.6138 21.956 -0.833717 33.3304 21.4825 -12.2611 32.9421 21.3901 
-12.231 32.3518 21.9179 -11.7648 32.4811 21.3125 -5.93583 32.4788 21.9322 
-6.62238 32.5719 21.5415 -6.13079 32.9051 21.4786 -5.52814 32.9665 21.4828 
-5.24361 32.3568 22.0224 -4.88035 32.5865 21.4041 -0.856182 32.174 21.6319 
-11.4362 32.0691 21.587 -10.4044 31.8006 21.4826 -9.99687 31.4214 21.9973 
-9.31553 31.7855 21.5187 -9.21896 31.4792 22.0935 -8.53098 32.0568 21.2261 
-7.49179 32.1226 21.6712 -4.75911 31.4648 21.5119 -0.945026 31.219 21.7433 
-4.80536 30.5619 21.3451 -1.19669 30.5651 21.8661 -1.62863 30.3062 21.5196 
-1.36361 31.0279 21.286 -4.42201 29.5596 22.0616 -4.63556 29.6641 21.2994 
-1.81336 29.3954 21.5009 -6.23003 28.1523 21.8799 -6.62012 28.7991 21.307 
-6.96458 28.4186 21.6796 -5.86249 28.5251 21.232 -4.26511 29.0628 21.5841 
-3.94566 28.4207 21.6567 -1.81185 28.5953 21.3232 -7.02256 27.6256 21.8784 
-7.44979 28.1539 21.4406 -7.67487 27.3524 21.217 -6.322 27.4994 22.1109 
-5.20097 28.0205 21.4346 -5.32579 27.3233 21.9009 -3.9926 27.4278 22.0012 
-4.38358 27.9336 21.3906 -3.09547 27.128 22.1545 -2.3962 27.2302 22.0653 
-1.8779 27.6779 21.5676 -7.19907 26.8686 21.675 -6.90009 26.4179 21.5972 
-6.4533 26.7974 21.8501 -5.7018 26.3714 21.3689 -5.13481 26.7012 21.6305 
-4.87881 26.3743 21.3837 -4.48507 26.7155 21.8541 -3.49925 26.5451 21.9372 
-2.55176 26.483 21.8583 -1.92573 26.7164 21.3714 -6.53813 26.0004 21.234 
-4.11568 26.0879 21.28 -2.94193 25.9676 21.4051 -2.1886 26.0845 21.2718 
-12.3814 36.5693 20.7894 -12.4558 36.7527 20.2607 -12.6916 36.3126 20.7393 
-11.953 36.4669 20.2953 -9.19508 36.3192 21.1736 -7.20476 36.3334 20.7586 
-7.46243 36.7684 20.1903 -7.85498 36.2734 20.5098 -6.17267 36.409 20.9879 
-6.56617 36.984 20.2923 -5.03863 36.5082 21.0185 -5.52645 37.003 20.4871 
-4.0378 36.4741 20.9907 -4.54501 36.9869 20.5064 -3.22329 36.4069 20.8033 
-3.61459 36.8923 20.4954 -2.86924 36.6477 20.4056 -12.9309 35.5373 20.5369 
-11.1567 35.5638 21.2856 -11.3027 35.9004 20.7595 -10.3523 36.028 20.2063 
-9.44878 36.0049 20.5449 -8.62321 36.0444 20.4333 -8.27971 35.459 20.9664 
-7.21515 35.6041 21.1277 -2.3216 36.1905 20.5863 -1.31725 35.9008 20.7231 
-0.824627 35.3579 20.4319 -12.7928 34.4938 20.3534 -9.01962 34.456 21.2037 
-8.1478 34.6623 21.1166 -0.901255 34.4198 20.5584 -12.2894 33.8055 20.4136 
-12.3685 33.4443 21.02 -11.8372 33.4422 20.4845 -6.13887 33.3422 20.9611 
-6.85819 33.3867 20.5324 -6.43767 33.8868 20.2007 -5.51509 33.8278 20.3917 
-5.20842 33.4155 20.9814 -4.93541 33.2711 20.5639 -1.20191 33.545 20.818 
-1.61087 33.4004 20.3381 -1.34287 34.0635 20.3014 -11.3072 32.943 20.4404 
-11.1726 32.3599 20.8517 -10.7064 32.481 20.2654 -7.99325 32.4582 20.8848 
-8.66335 32.4935 20.4893 -8.20975 32.8028 20.4395 -7.62386 33.0389 20.4612 
-7.14984 32.7568 20.989 -4.85696 32.2605 20.6558 -1.27211 32.7094 20.9722 
-1.69619 32.4743 20.3403 -10.5078 32.1137 20.6847 -9.48627 32.1025 20.652 
-4.93308 31.1575 20.472 -1.30043 31.7656 21.0271 -1.72884 31.3996 20.5122 
-4.83411 30.2714 20.6053 -1.85292 30.4539 20.4834 -4.59547 29.6855 20.2468 
-1.83097 29.486 20.4704 -7.23821 28.6763 21.1806 -7.10636 28.8893 20.3827 
-7.70051 28.2642 20.7548 -6.20087 28.9297 20.5346 -5.60276 28.5926 20.4865 
-4.26817 28.9996 20.7748 -3.97408 28.5725 20.4095 -1.76835 28.4619 20.4724 
-8.0349 27.4159 20.2293 -5.10025 28.1799 20.6182 -4.35905 28.0786 20.5225 
-1.72428 27.4022 20.4743 -7.30586 26.444 21.1954 -7.70391 26.5646 20.4487 
-5.27487 26.4078 21.2324 -1.83376 26.4773 20.4676 -7.02867 25.8649 20.4729 
-6.50848 25.4338 20.6999 -6.58257 25.4112 20.2698 -6.0425 25.5754 20.7414 
-5.36669 25.9635 20.5925 -4.37764 26.0611 20.2182 -3.25389 25.867 20.522 
-2.33109 25.9444 20.4974 -6.33499 25.2482 20.4517 -4.9626 44.4395 19.7866 
[...]
CELL_DATA 9804
SCALARS scalars float
LOOKUP_TABLE default
2023 2023 2023 2023 2023 2023 2023 2023 2023 
2023 2023 2023 2023 2023 2023 2023 2023 2023 
2023 2023 2023 2023 2023 2023 2023 2023 2023 
2023 2023 2023 2023 2023 2023 2023 2023 2023 
2023 2023 2023 2023 2023 2023 2023 2023 2023 
2023 2023 2023 2023 2023 2023 2023 2023 2023 
2023 2023 2023 2023 2023 2023 2023 2023 2023 
2023 2023 2023 2023 2023 2023 2023 2023 2023 
2023 2023 2023 2023 2023 2023 2023 2023 2023 
2023 2023 2023 2023 2023 2023 2023 2023 2023 
2023 2023 2023 2023 2023 2023 2023 2023 2023 
2023 2023 2023 2023 2023 2023 2023 2023 2023 
2023 2023 2023 2023 2023 2023 2023 2023 2023 
2023 2023 2023 2023 2023 2023 2023 2023 2023 
2023 2023 2023 2023 2023 2023 2023 2023 2023 
2023 2023 2023 2023 2023 2023 2023 2023 2023 
2023 2023 2023 2023 2023 2023 2023 2023 2023 
2023 2023 2023 2023 2023 2023 2023 2023 2023 
2023 2023 2023 2023 2023 2023 2023 2023 2023 
2023 2023 2023 2023 2023 2023 2023 2023 2023 
2023 2023 2023 2023 2023 2023 2023 2023 2023 
2023 2023 2023 2023 2023 2023 2023 2023 2023 
2023 2023 2023 2023 2023 2023 2023 2023 2023 
2023 2023 2023 2023 2023 2023 2023 2023 2023 
2023 2023 2023 2023 2023 2023 2023 2023 2023 
2023 2023 2023 2023 2023 2023 2023 2023 2023 
2023 2023 2023 2023 2023 2023 2023 2023 2023 
2023 2023 2023 2023 2023 2023 2023 2023 2023 
2023 2023 2023 2023 2023 2023 2023 2023 2023 
2023 2023 2023 2023 2023 2023 2023 2023 2023 
2023 2023 2023 2023 2023 2023 2023 2023 2023 
2023 2023 2023 2023 2023 2023 2023 2023 2023 
2023 2023 2023 2023 2023 2023 2023 2023 2023 
2023 2023 2023 2023 2023 2023 2023 2023 2023 
2023 2023 2023 2023 2023 2023 2023 2023 2023 
2023 2023 2023 2023 2023 2023 2023 2023 2023 
2023 2023 2023 2023 2023 2023 2023 2023 2023 
2023 2023 2023 2023 2023 2023 2023 2023 2023 
2023 2023 2023 2023 2023 2023 2023 2023 2023 
2023 2023 2023 2023 2023 2023 2023 2023 2023 
2023 2023 2023 2023 2023 2023 2023 2023 2023 
2023 2023 2023 2023 2023 2023 2023 2023 2023 
2023 2023 2023 2023 2023 2023 2023 2023 2023 
2023 2023 2023 2023 2023 2023 2023 2023 2023 
2023 2023 2023 2023 2023 2023 2023 2023 2023 
2023 2023 2023 2023 2023 2023 2023 2023 2023 
2023 2023 2023 2023 2023 2023 2023 2023 2023 
2023 2023 2023 2023 2023 2023 2023 2023 2023 
2023 2023 2023 2023 2023 2023 2023 2023 2023 
2023 2023 2023 2023 2023 2023 2023 2023 2023 
2023 2023 2023 2023 2023 2023 2023 2023 2023 
2023 2023 2023 2023 2023 2023 2023 2023 2023 
2023 2023 2023 2023 2023 2023 2023 2023 2023 
2023 2023 2023 2023 2023 2023 2023 2023 2023 
2023 2023 2023 2023 2023 2023 2023 2023 2023 
2023 2023 2023 2023 2023 2023 2023 2023 2023 
2023 2023 2023 2023 2023 2023 2023 2023 2023 
2023 2023 2023 2023 2023 2023 2023 2023 2023 
2023 2023 2023 2023 2023 2023 2023 2023 2023 
2023 2023 2023 2023 2023 2023 2023 2023 2023 
2023 2023 2023 2023 2023 2023 2023 2023 2023 
2023 2023 2023 2023 2023 2023 2023 2023 2023 
2023 2023 2023 2023 2023 2023 2023 2023 2023 
2023 2023 2023 2023 2023 2023 2023 2023 2023 
2023 2023 2023 2023 2023 2023 2023 2023 2023 
2023 2023 2023 2023 2023 2023 2023 2023 2023 
2023 2023 2023 2023 2023 2023 2023 2023 2023 
2023 2023 2023 2023 2023 2023 2023 2023 2023 
2023 2023 2023 2023 2023 2023 2023 2023 2023 
2023 2023 2023 2023 2023 2023 2023 2023 2023 
2023 2023 2023 2023 2023 2023 2023 2023 2023 
2023 2023 2023 2023 2023 2023 2023 2023 2023 
2023 2023 2023 2023 2023 2023 2023 2023 2023 
2023 2023 2023 2023 2023 2023 2023 2023 2023 
2023 2023 2023 2023 2023 2023 2023 2023 2023 
2023 2023 2023 2023 2023 2023 2023 2023 2023 
2023 2023 2023 2023 2023 2023 2023 2023 2023 
2023 2023 2023 2023 2023 2023 2023 2023 2023 
2023 2023 2023 2023 2023 2023 2023 2023 2023 
2023 2023 2023 2023 2023 2023 2023 2023 2023 
2023 2023 2023 2023 2023 2023 2023 2023 2023 
2023 2023 2023 2023 2023 2023 2023 2023 2023 
2023 2023 2023 2023 2023 2023 2023 2023 2023 
2023 2023 2023 2023 2023 2023 2023 2023 2023 
2023 2023 2023 2023 2023 2023 2023 2023 2023 
2023 2023 2023 2023 2023 2023 2023 2023 2023 
2023 2023 2023 2023 2023 2023 2023 2023 2023 
2023 2023 2023 2023 2023 2023 2023 2023 2023 
2023 2023 2023 2023 2023 2023 2023 2023 2023 
2023 2023 2023 2023 2023 2023 2023 2023 2023 
2023 2023 2023 2023 2023 2023 2023 2023 2023 
2023 2023 2023 2023 2023 2023 2023 2023 2023 
2023 2023 2023 2023 2023 2023 2023 2023 2023 
2023 2023 2023 2023 2023 2023 2023 2023 2023 
2023 2023 2023 2023 2023 2023 2023 2023 2023 
2023 2023 2023 2023 2023 2023 2023 2023 2023 
2023 2023 2023 2023 2023 2023 2023 2023 2023 
2023 2023 2023 2023 2023 2023 2023 2023 2023 
2023 2023 2023 2023 2023 2023 2023 2023 2023 
2023 2023 2023 2023 2023 2023 2023 2023 2023 
2023 2023 2023 2023 2023 2023 2023 2023 2023 
2023 2023 2023 2023 2023 2023 2023 2023 2023 
2023 2023 2023 2023 2023 2023 2023 2023 2023 
2023 2023 2023 2023 2023 2023 2023 2023 2023 
2023 2023 2023 2023 2023 2023 2023 2023 2023 
2023 2023 2023 2023 2023 2023 2023 2023 2023 
2023 2023 2023 2023 2023 2023 2023 2023 2023 
2023 2023 2023 2023 2023 2023 2023 2023 2023 
2023 2023 2023 2023 2023 2023 2023 2023 2023 
2023 2023 2023 2023 2023 2023 2023 2023 2023 
2023 2023 2023 2023 2023 2023 2023 2023 2023 
2023 2023 2023 2023 2023 2023 2023 2023 2023 
2023 2023 2023 2023 2023 2023 2023 2023 2023 
2023 2023 2023 2023 2023 2023 2023 2023 2023 
2023 2023 2023 2023 2023 2023 2023 2023 2023 
2023 2023 2023 2023 2023 2023 2023 2023 2023 
2023 2023 2023 2023 2023 2023 2023 2023 2023 
2023 2023 2023 2023 2023 2023 2023 2023 2023 
2023 2023 2023 2023 2023 2023 2023 2023 2023 
2023 2023 2023 2023 2023 2023 2023 2023 2023 
2023 2023 2023 2023 2023 2023 2023 2023 2023 
2023 2023 2023 2023 2023 2023 2023 2023 2023 
2023 2023 2023 2023 2023 2023 2023 2023 2023 
2023 2023 2023 2023 2023 2023 2023 2023 2023 
2023 2023 2023 2023 2023 2023 2023 2023 2023 
2023 2023 2023 2023 2023 2023 2023 2023 2023 
2023 2023 2023 2023 2023 2023 2023 2023 2023 
2023 2023 2023 2023 2023 2023 2023 2023 2023 
2023 2023 2023 2023 2023 2023 2023 2023 2023 
2023 2023 2023 2023 2023 2023 2023 2023 2023 
2023 2023 2023 2023 2023 2023 2023 2023 2023 
2023 2023 2023 2023 2023 2023 2023 2023 2023 
2023 2023 2023 2023 2023 2023 2023 2023 2023 
2023 2023 2023 2023 2023 2023 2023 2023 2023 
2023 2023 2023 2023 2023 2023 2023 2023 2023 
2023 2023 2023 2023 2023 2023 2023 2023 2023 
2023 2023 2023 2023 2023 2023 2023 2023 2023 
2023 2023 2023 2023 2023 2023 2023 2023 2023 
2023 2023 2023 2023 2023 2023 2023 2023 2023 
2023 2023 2023 2023 2023 2023 2023 2023 2023 
2023 2023 2023 2023 2023 2023 2023 2023 2023 
2023 2023 2023 2023 2023 2023 2023 2023 2023 
2023 2023 2023 2023 2023 2023 2023 2023 2023 
2023 2023 2023 2023 2023 2023 2023 2023 2023 
2023 2023 2023 2023 2023 2023 2023 2023 2023 
2023 2023 2023 2023 2023 2023 2023 2023 2023 
2023 2023 2023 2023 2023 2023 2023 2023 2023 
2023 2023 2023 2023 2023 2023 2023 2023 2023 
2023 2023 2023 2023 2023 2023 2023 2023 2023 
2023 2023 2023 2023 2023 2023 2023 2023 2023 
2023 2023 2023 2023 2023 2023 2023 2023 2023 
2023 2023 2023 2023 2023 2023 2023 2023 2023 
2023 2023 2023 2023 2023 2023 2023 2023 2023 
2023 2023 2023 2023 2023 2023 2023 2023 2023 
2023 2023 2023 2023 2023 2023 2023 2023 2023 
2023 2023 2023 2023 2023 2023 2023 2023 2023 
2023 2023 2023 2023 2023 2023 2023 2023 2023 
2023 2023 2023 2023 2023 2023 2023 2023 2023 
2023 2023 2023 2023 2023 2023 2023 2023 2023 
2023 2023 2023 2023 2023 2023 2023 2023 2023 
2023 2023 2023 2023 2023 2023 2023 2023 2023 
2023 2023 2023 2023 2023 2023 2023 2023 2023 
2023 2023 2023 2023 2023 2023 2023 2023 2023 
2023 2023 2023 2023 2023 2023 2023 2023 2023 
2023 2023 2023 2023 2023 2023 2023 2023 2023 
2023 2023 2023 2023 2023 2023 2023 2023 2023 
2023 2023 2023 2023 2023 2023 2023 2023 2023 
2023 2023 2023 2023 2023 2023 2023 2023 2023 
2023 2023 2023 2023 2023 2023 2023 2023 2023 
2023 2023 2023 2023 2023 2023 2023 2023 2023 
2023 2023 2023 2023 2023 2023 2023 2023 2023 
2023 2023 2023 2023 2023 2023 2023 2023 2023 
2023 2023 2023 2023 2023 2023 2023 2023 2023 
2023 2023 2023 2023 2023 2023 2023 2023 2023 
2023 2023 2023 2023 2023 2023 2023 2023 2023 
2023 2023 2023 2023 2023 2023 2023 2023 2023 
2023 2023 2023 2023 2023 2023 2023 2023 2023 
2023 2023 2023 2023 2023 2023 2023 2023 2023 
2023 2023 2023 2023 2023 2023 2023 2023 2023 
2023 2023 2023 2023 2023 2023 2023 2023 2023 
2023 2023 2023 2023 2023 2023 2023 2023 2023 
2023 2023 2023 2023 2023 2023 2023 2023 2023 
2023 2023 2023 2023 2023 2023 2023 2023 2023 
2023 2023 2023 2023 2023 2023 2023 2023 2023 
2023 2023 2023 2023 2023 2023 2023 2023 2023 
2023 2023 2023 2023 2023 2023 2023 2023 2023 
2023 2023 2023 2023 2023 2023 2023 2023 2023 
2023 2023 2023 2023 2023 2023 2023 2023 2023 
2023 2023 2023 2023 2023 2023 2023 2023 2023 
2023 2023 2023 2023 2023 2023 2023 2023 2023 
2023 2023 2023 2023 2023 2023 2023 2023 2023 
2023 2023 2023 2023 2023 2023 2023 2023 2023 
2023 2023 2023 2023 2023 2023 2023 2023 2023 
2023 2023 2023 2023 2023 2023 2023 2023 2023 
2023 2023 2023 2023 2023 2023 2023 2023 2023 
2023 2023 2023 2023 2023 2023 2023 2023 2023 
2023 2023 2023 2023 2023 2023 2023 2023 2023 
2023 2023 2023 2023 2023 2023 2023 2023 2023 
2023 2023 2023 2023 2023 2023 2023 2023 2023 
2023 2023 2023 2023 2023 2023 2023 2023 2023 
2023 2023 2023 2023 2023 2023 2023 2023 2023 
2023 2023 2023 2023 2023 2023 2023 2023 2023 
2023 2023 2023 2023 2023 2023 2023 2023 2023 
2023 2023 2023 2023 2023 2023 2023 2023 2023 
2023 2023 2023 2023 2023 2023 2023 2023 2023 
2023 2023 2023 2023 2023 2023 2023 2023 2023 
2023 2023 2023 2023 2023 2023 2023 2023 2023 
2023 2023 2023 2023 2023 2023 2023 2023 2023 
2023 2023 2023 2023 2023 2023 2023 2023 2023 
2023 2023 2023 2023 2023 2023 2023 2023 2023 
2023 2023 2023 2023 2023 2023 2023 2023 2023 
2023 2023 2023 2023 2023 2023 2023 2023 2023 
2023 2023 2023 2023 2023 2023 2023 2023 2023 
2023 2023 2023 2023 2023 2023 2023 2023 2023 
2023 2023 2023 2023 2023 2023 2023 2023 2023 
2023 2023 2023 2023 2023 2023 2023 2023 2023 
2023 2023 2023 2023 2023 2023 2023 2023 2023 
2023 2023 2023 2023 2023 2023 2023 2023 2023 
2023 2023 2023 2023 2023 2023 2023 2023 2023 
2023 2023 2023 2023 2023 2023 2023 2023 2023 
2023 2023 2023 2023 2023 2023 2023 2023 2023 
2023 2023 2023 2023 2023 2023 2023 2023 2023 
2023 2023 2023 2023 2023 2023 2023 2023 2023 
2023 2023 2023 2023 2023 2023 2023 2023 2023 
2023 2023 2023 2023 2023 2023 2023 2023 2023 
2023 2023 2023 2023 2023 2023 2023 2023 2023 
2023 2023 2023 2023 2023 2023 2023 2023 2023 
2023 2023 2023 2023 2023 2023 2023 2023 2023 
2023 2023 2023 2023 2023 2023 2023 2023 2023 
2023 2023 2023 2023 2023 2023 2023 2023 2023 
2023 2023 2023 2023 2023 2023 2023 2023 2023 
2023 2023 2023 2023 2023 2023 2023 2023 2023 
2023 2023 2023 2023 2023 2023 2023 2023 2023 
2023 2023 2023 2023 2023 2023 2023 2023 2023 
2023 2023 2023 2023 2023 2023 2023 2023 2023 
2023 2023 2023 2023 2023 2023 2023 2023 2023 
2023 2023 2023 2023 2023 2023 2023 2023 2023 
2023 2023 2023 2023 2023 2023 2023 2023 2023 
2023 2023 2023 2023 2023 2023 2023 2023 2023 
2023 2023 2023 2023 2023 2023 2023 2023 2023 
2023 2023 2023 2023 2023 2023 2023 2023 2023 
2023 2023 2023 2023 2023 2023 2023 2023 2023 
2023 2023 2023 2023 2023 2023 2023 2023 2023 
2023 2023 2023 2023 2023 2023 2023 2023 2023 
2023 2023 2023 2023 2023 2023 2023 2023 2023 
2023 2023 2023 2023 2023 2023 2023 2023 2023 
2023 2023 2023 2023 2023 2023 2023 2023 2023 
2023 2023 2023 2023 2023 2023 2023 2023 2023 
2023 2023 2023 2023 2023 2023 2023 2023 2023 
2023 2023 2023 2023 2023 2023 2023 2023 2023 
2023 2023 2023 2023 2023 2023 2023 2023 2023 
2023 2023 2023 2023 2023 2023 2023 2023 2023 
2023 2023 2023 2023 2023 2023 2023 2023 2023 
2023 2023 2023 2023 2023 2023 2023 2023 2023 
2023 2023 2023 2023 2023 2023 2023 2023 2023 
2023 2023 2023 2023 2023 2023 2023 2023 2023 
2023 2023 2023 2023 2023 2023 2023 2023 2023 
2023 2023 2023 2023 2023 2023 2023 2023 2023 
2023 2023 2023 2023 2023 2023 2023 2023 2023 
2023 2023 2023 2023 2023 2023 2023 2023 2023 
2023 2023 2023 2023 2023 2023 2023 2023 2023 
2023 2023 2023 2023 2023 2023 2023 2023 2023 
2023 2023 2023 2023 2023 2023 2023 2023 2023 
2023 2023 2023 2023 2023 2023 2023 2023 2023 
2023 2023 2023 2023 2023 2023 2023 2023 2023 
2023 2023 2023 2023 2023 2023 2023 2023 2023 
2023 2023 2023 2023 2023 2023 2023 2023 2023 
2023 2023 2023 2023 2023 2023 2023 2023 2023 
2023 2023 2023 2023 2023 2023 2023 2023 2023 
2023 2023 2023 2023 2023 2023 2023 2023 2023 
2023 2023 2023 2023 2023 2023 2023 2023 2023 
2023 2023 2023 2023 2023 2023 2023 2023 2023 
2023 2023 2023 2023 2023 2023 2023 2023 2023 
2023 2023 2023 2023 2023 2023 2023 2023 2023 
2023 2023 2023 2023 2023 2023 2023 2023 2023 
2023 2023 2023 2023 2023 2023 2023 2023 2023 
2023 2023 2023 2023 2023 2023 2023 2023 2023 
2023 2023 2023 2023 2023 2023 2023 2023 2023 
2023 2023 2023 2023 2023 2023 2023 2023 2023 
2023 2023 2023 2023 2023 2023 2023 2023 2023 
2023 2023 2023 2023 2023 2023 2023 2023 2023 
2023 2023 2023 2023 2023 2023 2023 2023 2023 
2023 2023 2023 2023 2023 2023 2023 2023 2023 
2023 2023 2023 2023 2023 2023 2023 2023 2023 
2023 2023 2023 2023 2023 2023 2023 2023 2023 
2023 2023 2023 2023 2023 2023 2023 2023 2023 
2023 2023 2023 2023 2023 2023 2023 2023 2023 
2023 2023 2023 2023 2023 2023 2023 2023 2023 
2023 2023 2023 2023 2023 2023 2023 2023 2023 
2023 2023 2023 2023 2023 2023 2023 2023 2023 
2023 2023 2023 2023 2023 2023 2023 2023 2023 
2023 2023 2023 2023 2023 2023 2023 2023 2023 
2023 2023 2023 2023 2023 2023 2023 2023 2023 
2023 2023 2023 2023 2023 2023 2023 2023 2023 
2023 2023 2023 2023 2023 2023 2023 2023 2023 
2023 2023 2023 2023 2023 2023 2023 2023 2023 
2023 2023 2023 2023 2023 2023 2023 2023 2023 
2023 2023 2023 2023 2023 2023 2023 2023 2023 
2023 2023 2023 2023 2023 2023 2023 2023 2023 
2023 2023 2023 2023 2023 2023 2023 2023 2023 
2023 2023 2023 2023 2023 2023 2023 2023 2023 
2023 2023 2023 2023 2023 2023 2023 2023 2023 
2023 2023 2023 2023 2023 2023 2023 2023 2023 
2023 2023 2023 2023 2023 2023 2023 2023 2023 
2023 2023 2023 2023 2023 2023 2023 2023 2023 
2023 2023 2023 2023 2023 2023 2023 2023 2023 
2023 2023 2023 2023 2023 2023 2023 2023 2023 
2023 2023 2023 2023 2023 2023 2023 2023 2023 
2023 2023 2023 2023 2023 2023 2023 2023 2023 
2023 2023 2023 2023 2023 2023 2023 2023 2023 
2023 2023 2023 2023 2023 2023 2023 2023 2023 
2023 2023 2023 2023 2023 2023 2023 2023 2023 
2023 2023 2023 2023 2023 2023 2023 2023 2023 
2023 2023 2023 2023 2023 2023 2023 2023 2023 
2023 2023 2023 2023 2023 2023 2023 2023 2023 
2023 2023 2023 2023 2023 2023 2023 2023 2023 
2023 2023 2023 2023 2023 2023 2023 2023 2023 
2023 2023 2023 2023 2023 2023 2023 2023 2023 
2023 2023 2023 2023 2023 2023 2023 2023 2023 
2023 2023 2023 2023 2023 2023 2023 2023 2023 
2023 2023 2023 2023 2023 2023 2023 2023 2023 
2023 2023 2023 2023 2023 2023 2023 2023 2023 
2023 2023 2023 2023 2023 2023 2023 2023 2023 
2023 2023 2023 2023 2023 2023 2023 2023 2023 
2023 2023 2023 2023 2023 2023 2023 2023 2023 
2023 2023 2023 2023 2023 2023 2023 2023 2023 
2023 2023 2023 2023 2023 2023 2023 2023 2023 
2023 2023 2023 2023 2023 2023 2023 2023 2023 
2023 2023 2023 2023 2023 2023 2023 2023 2023 
2023 2023 2023 2023 2023 2023 2023 2023 2023 
2023 2023 2023 2023 2023 2023 2023 2023 2023 
2023 2023 2023 2023 2023 2023 2023 2023 2023 
2023 2023 2023 2023 2023 2023 2023 2023 2023 
2023 2023 2023 2023 2023 2023 2023 2023 2023 
2023 2023 2023 2023 2023 2023 2023 2023 2023 
2023 2023 2023 2023 2023 2023 2023 2023 2023 
2023 2023 2023 2023 2023 2023 2023 2023 2023 
2023 2023 2023 2023 2023 2023 2023 2023 2023 
2023 2023 2023 2023 2023 2023 2023 2023 2023 
2023 2023 2023 2023 2023 2023 2023 2023 2023 
2023 2023 2023 2023 2023 2023 2023 2023 2023 
2023 2023 2023 2023 2023 2023 2023 2023 2023 
2023 2023 2023 2023 2023 2023 2023 2023 2023 
2023 2023 2023 2023 2023 2023 2023 2023 2023 
2023 2023 2023 2023 2023 2023 2023 2023 2023 
2023 2023 2023 2023 2023 2023 2023 2023 2023 
2023 2023 2023 2023 2023 2023 2023 2023 2023 
2023 2023 2023 2023 2023 2023 2023 2023 2023 
2023 2023 2023 2023 2023 2023 2023 2023 2023 
2023 2023 2023 2023 2023 2023 2023 2023 2023 
2023 2023 2023 2023 2023 2023 2023 2023 2023 
2023 2023 2023 2023 2023 2023 2023 2023 2023 
2023 2023 2023 2023 2023 2023 2023 2023 2023 
2023 2023 2023 2023 2023 2023 2023 2023 2023 
2023 2023 2023 2023 2023 2023 2023 2023 2023 
2023 2023 2023 2023 2023 2023 2023 2023 2023 
2023 2023 2023 2023 2023 2023 2023 2023 2023 
2023 2023 2023 2023 2023 2023 2023 2023 2023 
2023 2023 2023 2023 2023 2023 2023 2023 2023 
2023 2023 2023 2023 2023 2023 2023 2023 2023 
2023 2023 2023 2023 2023 2023 2023 2023 2023 
2023 2023 2023 2023 2023 2023 2023 2023 2023 
2023 2023 2023 2023 2023 2023 2023 2023 2023 
2023 2023 2023 2023 2023 2023 2023 2023 2023 
2023 2023 2023 2023 2023 2023 2023 2023 2023 
2023 2023 2023 2023 2023 2023 2023 2023 2023 
2023 2023 2023 2023 2023 2023 2023 2023 2023 
2023 2023 2023 2023 2023 2023 2023 2023 2023 
2023 2023 2023 2023 2023 2023 2023 2023 2023 
2023 2023 2023 2023 2023 2023 2023 2023 2023 
2023 2023 2023 2023 2023 2023 2023 2023 2023 
2023 2023 2023 2023 2023 2023 2023 2023 2023 
2023 2023 2023 2023 2023 2023 2023 2023 2023 
2023 2023 2023 2023 2023 2023 2023 2023 2023 
2023 2023 2023 2023 2023 2023 2023 2023 2023 
2023 2023 2023 2023 2023 2023 2023 2023 2023 
2023 2023 2023 2023 2023 2023 2023 2023 2023 
2023 2023 2023 2023 2023 2023 2023 2023 2023 
2023 2023 2023 2023 2023 2023 2023 2023 2023 
2023 2023 2023 2023 2023 2023 2023 2023 2023 
2023 2023 2023 2023 2023 2023 2023 2023 2023 
2023 2023 2023 2023 2023 2023 2023 2023 2023 
2023 2023 2023 2023 2023 2023 2023 2023 2023 
2023 2023 2023 2023 2023 2023 2023 2023 2023 
2023 2023 2023 2023 2023 2023 2023 2023 2023 
2023 2023 2023 2023 2023 2023 2023 2023 2023 
2023 2023 2023 2023 2023 2023 2023 2023 2023 
2023 2023 2023 2023 2023 2023 2023 2023 2023 
2023 2023 2023 2023 2023 2023 2023 2023 2023 
2023 2023 2023 2023 2023 2023 2023 2023 2023 
2023 2023 2023 2023 2023 2023 2023 2023 2023 
2023 2023 2023 2023 2023 2023 2023 2023 2023 
2023 2023 2023 2023 2023 2023 2023 2023 2023 
2023 2023 2023 2023 2023 2023 2023 2023 2023 
2023 2023 2023 2023 2023 2023 2023 2023 2023 
2023 2023 2023 2023 2023 2023 2023 2023 2023 
2023 2023 2023 2023 2023 2023 2023 2023 2023 
2023 2023 2023 2023 2023 2023 2023 2023 2023 
2023 2023 2023 2023 2023 2023 2023 2023 2023 
2023 2023 2023 2023 2023 2023 2023 2023 2023 
2023 2023 2023 2023 2023 2023 2023 2023 2023 
2023 2023 2023 2023 2023 2023 2023 2023 2023 
2023 2023 2023 2023 2023 2023 2023 2023 2023 
2023 2023 2023 2023 2023 2023 2023 2023 2023 
2023 2023 2023 2023 2023 2023 2023 2023 2023 
2023 2023 2023 2023 2023 2023 2023 2023 2023 
2023 2023 2023 2023 2023 2023 2023 2023 2023 
2023 2023 2023 2023 2023 2023 2023 2023 2023 
2023 2023 2023 2023 2023 2023 2023 2023 2023 
2023 2023 2023 2023 2023 2023 2023 2023 2023 
2023 2023 2023 2023 2023 2023 2023 2023 2023 
2023 2023 2023 2023 2023 2023 2023 2023 2023 
2023 2023 2023 2023 2023 2023 2023 2023 2023 
2023 2023 2023 2023 2023 2023 2023 2023 2023 
2023 2023 2023 2023 2023 2023 2023 2023 2023 
2023 2023 2023 2023 2023 2023 2023 2023 2023 
2023 2023 2023 2023 2023 2023 2023 2023 2023 
2023 2023 2023 2023 2023 2023 2023 2023 2023 
2023 2023 2023 2023 2023 2023 2023 2023 2023 
2023 2023 2023 2023 2023 2023 2023 2023 2023 
2023 2023 2023 2023 2023 2023 2023 2023 2023 
2023 2023 2023 2023 2023 2023 2023 2023 2023 
2023 2023 2023 2023 2023 2023 2023 2023 2023 
2023 2023 2023 2023 2023 2023 2023 2023 2023 
2023 2023 2023 2023 2023 2023 2023 2023 2023 
2023 2023 2023 2023 2023 2023 2023 2023 2023 
2023 2023 2023 2023 2023 2023 2023 2023 2023 
2023 2023 2023 2023 2023 2023 2023 2023 2023 
2023 2023 2023 2023 2023 2023 2023 2023 2023 
2023 2023 2023 2023 2023 2023 2023 2023 2023 
2023 2023 2023 2023 2023 2023 2023 2023 2023 
2023 2023 2023 2023 2023 2023 2023 2023 2023 
2023 2023 2023 2023 2023 2023 2023 2023 2023 