# vtk DataFile Version 4.2
vtk output
ASCII
DATASET POLYDATA
POINTS 5050 float
-10.8003 -39.2907 20.3669 -10.6043 -39.4531 20.6715 -10.3789 -39.5338 20.2834 
-11.0175 -39.6569 20.6856 -4.69122 -39.3785 19.5065 -4.5209 -39.501 19.7491 
-4.394 -39.4275 19.5137 -5.07595 -39.7433 19.43 -10.7339 -39.7525 20.1456 
-3.78431 -39.2337 18.175 -3.5392 -39.4981 18.704 -3.2517 -39.4087 18.0987 
-4.64575 -39.6584 19.1413 -4.07507 -39.6177 18.3553 -3.642 -39.2235 17.6241 
-3.19551 -39.5856 17.3672 -4.00274 -39.4289 17.6669 -3.66132 -39.772 17.128 
-7.77629 -40.2698 23.3163 -7.57939 -40.8033 23.8452 -7.22906 -40.4564 23.1767 
-8.21693 -40.5971 23.558 -7.73894 -40.1641 22.3518 -6.97888 -40.3727 22.418 
-8.28909 -40.4593 22.8675 -9.65776 -40.4802 22.6685 -9.26097 -40.4007 22.4027 
-9.82751 -40.2102 22.234 -10.0641 -40.692 22.3818 -4.80898 -40.1774 21.2705 
-4.64198 -40.7492 21.7468 -4.1231 -40.5156 21.3748 -5.91096 -40.1369 21.3506 
-5.37717 -40.7182 21.9874 -6.9414 -40.0775 21.5146 -6.32049 -40.5057 22.087 
-7.80903 -39.9624 21.2994 -8.85707 -40.7041 22.1832 -8.82762 -40.0783 21.6587 
-9.72318 -39.9482 21.5487 -10.5849 -40.4745 22.0462 -10.518 -39.9087 21.396 
-11.0914 -40.4783 21.3647 -2.95056 -40.2135 20.4172 -2.90922 -40.7949 20.718 
-2.39223 -40.5854 20.1515 -3.82838 -40.0938 20.7416 -3.49156 -40.6287 21.0414 
-4.71458 -39.8168 20.2334 -5.69963 -39.9314 20.4625 -6.71268 -39.9464 20.4525 
-7.50973 -39.9483 20.5812 -8.39684 -40.0925 20.3741 -9.67527 -39.9202 20.6824 
-11.0643 -40.5165 20.5884 -2.61584 -40.1353 19.7084 -2.25345 -40.4839 19.3449 
-3.79399 -39.7575 19.4912 -5.75578 -39.9289 19.5288 -6.68623 -39.9286 19.4195 
-7.67779 -40.07 19.4938 -8.33093 -40.516 19.4314 -8.95599 -40.7398 19.879 
-9.96937 -40.2667 20.0125 -10.4724 -40.6736 20.0574 -2.78065 -39.9418 18.7798 
-2.09892 -40.6196 18.3326 -4.52779 -40.0575 18.4437 -5.08948 -40.3171 18.657 
-5.70669 -40.4702 18.8376 -6.29012 -40.8177 18.3874 -6.53033 -40.1526 18.6414 
-7.41705 -40.175 18.4705 -8.06714 -40.6342 18.6569 -2.64389 -40.0175 17.697 
-2.10576 -40.6481 17.3567 -4.24134 -40.2271 17.5423 -4.75654 -40.86 17.9854 
-7.04381 -40.6061 18.0235 -7.73917 -40.7504 18.0413 -2.83411 -40.5467 16.9608 
-3.71352 -40.6561 16.9723 -6.69251 -40.9908 23.4173 -6.71733 -41.7139 23.9424 
-6.07312 -41.4426 23.3671 -7.69193 -41.4643 24.1057 -8.71101 -41.0184 23.1729 
-8.36958 -41.3705 23.8214 -8.9144 -41.7746 23.2354 -5.98583 -41.0786 22.7037 
-5.667 -41.5232 23.0088 -5.29895 -41.4633 22.5862 -6.66174 -40.72 22.7679 
-8.72011 -40.8625 22.6173 -8.99895 -41.3982 22.5257 -9.50218 -40.6755 22.4172 
3.25992 -41.2008 21.2729 3.59813 -41.6981 21.7498 3.76163 -41.5833 21.1534 
3.07588 -41.6358 21.5583 -4.81789 -41.2824 22.0852 -4.15091 -41.2575 21.6136 
-9.25029 -41.6142 21.5789 -9.86733 -41.1342 21.6293 -10.7263 -41.4601 21.8277 
-10.4407 -41.6529 21.248 -11.3913 -41.5247 21.3274 3.34939 -41.1957 20.7221 
3.60468 -41.4809 20.5647 2.95881 -41.6545 20.6063 -2.5963 -41.1094 20.305 
-3.05784 -41.4752 20.6675 -3.49893 -41.2588 21.0787 -9.88364 -41.4748 20.8204 
-10.4861 -41.1332 20.6381 -10.1143 -41.3755 20.2669 -10.9668 -41.5421 20.9126 
3.4958 -41.5882 20.119 -2.51295 -41.5847 20.073 -2.08627 -41.1701 19.4398 
-8.38015 -41.2774 19.2201 -8.58737 -41.7 19.8926 -9.54075 -41.3132 20.0364 
-1.69147 -41.1808 18.472 -1.49815 -41.5716 18.8284 -1.29585 -41.4793 18.1588 
-5.17022 -41.2065 18.4351 -5.63368 -41.685 18.7349 -6.35599 -41.6072 18.4727 
-8.04651 -41.4645 18.4621 -1.61316 -41.1014 17.6964 -1.3529 -41.6955 17.6222 
-4.24101 -41.349 17.4939 -4.75359 -41.491 18.0094 -6.75457 -41.2446 18.083 
-7.45029 -41.386 18.0158 -1.89617 -41.2521 17.104 -2.51011 -41.507 16.9595 
-3.36023 -41.4297 17.0285 -5.56304 -41.9105 23.3614 -5.86838 -42.707 23.903 
-5.11086 -42.5513 23.3913 -6.84529 -42.6951 24.1005 -7.85545 -42.3714 24.0027 
-8.5482 -42.1303 23.6503 -8.50472 -42.7197 23.6746 -0.662424 -42.3502 22.5187 
-0.762781 -42.7865 22.7235 -0.471369 -42.557 22.4951 -1.07378 -42.6228 22.5775 
-4.6612 -42.0098 22.5111 -4.63168 -42.8792 22.9291 -4.18041 -42.5569 22.2966 
-8.81389 -42.4242 23.3054 -9.0421 -42.3011 22.4958 4.19792 -42.0889 21.5856 
4.0334 -42.5629 21.8446 4.46714 -42.5517 21.5472 3.17411 -42.5162 22.0537 
2.73757 -42.3672 21.4197 1.29396 -42.4281 21.4653 1.46476 -42.8561 21.7309 
1.57764 -42.5792 21.3176 0.90904 -42.6762 21.5375 -0.633354 -42.6656 22.1859 
-1.71297 -42.5396 21.7569 -1.19406 -42.5217 21.4851 -1.83406 -42.2745 21.1201 
-2.12681 -42.5809 21.6355 -3.6933 -42.0178 21.4661 -3.77732 -42.7545 21.9298 
-3.15616 -42.6417 21.5141 -8.71483 -42.1698 21.2995 -8.20887 -42.4855 21.3498 
-8.77604 -42.5823 21.9119 -10.8531 -42.5172 21.9053 -10.2535 -42.6336 21.636 
-11.8163 -42.2152 21.4748 -11.4845 -42.3969 21.7485 -11.8976 -42.5186 21.5036 
4.25702 -42.4845 21.2705 3.97447 -42.2453 20.5043 2.54491 -42.7481 20.3658 
1.13745 -42.555 21.2306 0.246081 -42.531 20.8489 0.818731 -42.5005 20.4578 
0.150172 -42.1809 20.2358 -0.952558 -42.151 20.5255 -0.349345 -42.5229 21.0643 
-1.74092 -42.037 20.4249 -2.54765 -42.4521 21.2159 -2.61146 -42.0399 20.6383 
-7.97236 -42.2911 20.5191 -7.37993 -42.6607 20.5247 -7.78989 -42.8569 20.9614 
-8.81424 -41.9291 20.4411 -9.43935 -41.7871 20.6357 -10.5986 -42.5072 21.0759 
-11.4631 -42.5229 21.2 4.0533 -42.0667 19.5393 4.31714 -42.4669 19.8837 
4.74036 -42.5328 19.1933 3.29842 -41.9824 19.3652 2.37711 -42.3972 19.8198 
2.20432 -42.1933 19.2827 1.05178 -42.0813 19.4669 1.60665 -42.5329 19.902 
0.18835 -41.9548 19.2499 -0.52397 -41.9852 19.6046 -1.61733 -41.8525 19.6661 
-7.44629 -42.7258 19.9928 -7.98279 -42.2351 19.3533 4.26953 -42.2369 18.6657 
4.9047 -42.6199 18.3022 3.83396 -42.4786 18.5104 3.17485 -42.6085 18.8524 
2.43877 -42.6913 18.9526 1.80121 -42.8567 18.5486 1.54398 -42.186 18.6407 
0.608208 -42.0806 18.5091 -0.722086 -42.0166 18.4545 -4.6672 -41.9473 18.2652 
-4.08927 -42.4713 18.3231 -4.72206 -42.7308 18.8305 -5.6282 -42.5477 18.9951 
-6.38216 -42.5589 18.9635 -7.02733 -41.9842 18.3847 -7.38852 -42.5864 18.9875 
-7.72215 -42.0769 18.5089 4.47133 -42.8197 18.0648 1.15292 -42.4879 18.0835 
0.277974 -42.7664 18.0418 -0.844541 -42.7681 17.9352 -1.47382 -42.4291 17.7797 
-1.98427 -41.9785 17.3276 -2.39158 -42.7263 17.8704 -2.90803 -42.0836 17.3653 
-3.3542 -42.5559 18.0205 -3.82073 -42.0603 17.6718 -5.85466 -43.5377 23.826 
-5.24484 -43.5071 23.3894 -6.61589 -43.415 23.9451 -7.66476 -43.3943 23.923 
-9.09712 -43.0047 23.3763 -8.69529 -43.3735 23.816 -9.75626 -43.3148 23.2717 
-9.54282 -43.4809 23.7048 -9.92328 -43.6343 23.3217 3.48715 -43.1698 22.3094 
3.18291 -43.793 22.7798 3.82363 -43.7634 22.5394 2.79234 -43.5138 22.5055 
-0.89211 -43.6392 22.9183 -0.184729 -43.3458 22.5115 -1.7401 -42.868 22.1964 
-1.61994 -43.4452 22.8886 -2.86108 -43.1527 22.2092 -2.64918 -43.6512 22.7798 
-3.3095 -43.6861 22.5435 -4.71011 -43.6401 22.825 -4.27243 -43.3775 22.401 
-9.55492 -43.0023 22.3496 -10.0509 -43.6197 22.6656 4.36746 -42.8328 21.5155 
4.07898 -43.1618 21.4431 2.13207 -42.8267 21.2431 2.30261 -43.155 22.0101 
1.45942 -43.5573 22.1483 0.299497 -42.8207 21.3889 0.669844 -43.3521 22.0335 
-0.739491 -42.7495 21.6754 -2.55827 -42.7669 21.7177 -3.66937 -43.4227 22.1291 
-8.66052 -42.9117 21.584 -9.40017 -43.1191 21.5291 -10.7979 -43.4655 21.9512 
-11.6241 -42.9375 21.5529 -11.4554 -43.7383 21.3252 4.33021 -43.5126 20.9319 
4.82075 -43.528 20.4425 4.44793 -42.993 20.294 2.17258 -43.132 20.4056 
1.47809 -42.831 20.6874 -7.21078 -43.1935 20.3911 -7.80102 -43.5074 20.7522 
-8.77127 -43.5871 20.991 -9.87144 -43.3251 21.0945 -10.7226 -43.5673 20.8867 
5.20155 -43.1181 19.5665 5.44595 -43.6418 19.977 5.74039 -43.6362 19.3188 
2.31118 -42.8772 19.4283 2.75622 -43.2732 19.5007 2.62313 -43.6726 19.9138 
1.90646 -43.3604 19.6526 -6.96919 -43.0782 19.5937 -6.30227 -43.4589 19.4206 
-6.82247 -43.8546 19.9347 -7.54617 -42.7894 19.4592 5.41352 -43.0235 18.6466 
5.66606 -43.7662 18.6333 3.92211 -43.1999 18.3477 3.30437 -43.3772 18.904 
1.62335 -43.5602 18.6404 0.187725 -43.3325 18.2926 0.779024 -43.4021 18.2814 
0.510915 -43.6797 18.6642 -0.0984401 -43.6641 18.5709 -3.00706 -43.1146 18.4443 
-2.2481 -43.6149 18.5286 -2.9305 -43.7654 18.7721 -3.7999 -43.5339 18.8379 
-3.74065 -42.852 18.5596 -4.83117 -43.7083 18.9692 -5.64678 -43.4056 19.1135 
5.15884 -43.2525 18.076 4.60578 -43.5178 18.0667 1.26969 -43.2017 18.1214 
-0.536687 -43.3113 18.1001 -1.5139 -43.3102 18.0626 4.12927 -44.2369 23.3341 
4.30512 -44.5247 23.6533 4.53565 -44.5828 23.1904 4.05728 -44.5187 23.5926 
0.23857 -44.215 23.127 0.449089 -44.8691 23.749 0.867962 -44.4898 23.295 
-0.257324 -44.6969 23.5456 -5.73288 -43.9418 23.5403 -6.37022 -44.049 23.5441 
-7.39007 -44.0601 23.5436 -8.59177 -44.0332 23.422 -9.48063 -43.7956 23.5365 
4.35613 -44.1198 22.689 4.68254 -44.513 22.3382 3.61266 -44.5784 23.2342 
1.98142 -43.9757 22.515 2.57336 -44.3784 22.9991 1.00863 -44.0667 22.6452 
1.60052 -44.5283 23.0586 0.388822 -43.8252 22.5684 -0.554862 -44.2525 23.129 
-1.42471 -44.3693 23.1653 -2.55131 -44.4978 23.1344 -3.85608 -44.1292 22.3815 
-3.42723 -44.3374 22.7795 -4.6447 -44.0341 22.464 -4.12058 -44.8773 22.4158 
-5.08116 -44.2852 22.6554 -5.86383 -44.4353 22.9837 -6.97218 -44.741 22.9898 
-7.99148 -44.6773 23.1072 -8.78515 -44.5326 22.9015 -9.56417 -44.0986 22.8619 
-9.25939 -44.8838 22.4725 4.46481 -43.9213 21.5402 4.98399 -44.5934 21.5276 
-4.6473 -44.51 22.1793 -10.0828 -44.5012 22.1978 -10.7466 -44.5353 21.9832 
-11.7987 -44.2661 21.4559 -11.4131 -44.4602 21.7245 -11.86 -44.5428 21.4849 
5.17363 -44.0721 20.6923 5.42954 -44.6807 21.0061 5.7178 -44.4393 20.284 
1.26547 -44.1752 20.2288 1.74076 -44.5924 20.6601 1.2738 -44.5026 20.9016 
0.602928 -44.4801 21.0264 0.0787312 -44.1712 20.3552 -0.555476 -44.6801 21.0635 
-0.875991 -44.2388 20.229 -1.23693 -44.6467 20.5921 -7.48445 -43.834 20.4169 
-8.28102 -44.1158 20.5118 -9.05523 -44.3882 20.5419 -9.77913 -44.1708 20.6838 
-10.5574 -44.284 20.4997 -10.1139 -44.6809 20.3024 -11.3465 -44.5961 20.7946 
-11.7466 -44.3907 21.2432 5.72685 -44.5632 19.5145 4.56 -44.8284 19.7395 
[...]
CELL_DATA 10200
SCALARS scalars float
LOOKUP_TABLE default
1005 1005 1005 1005 1005 1005 1005 1005 1005 
1005 1005 1005 1005 1005 1005 1005 1005 1005 
1005 1005 1005 1005 1005 1005 1005 1005 1005 
1005 1005 1005 1005 1005 1005 1005 1005 1005 
1005 1005 1005 1005 1005 1005 1005 1005 1005 
1005 1005 1005 1005 1005 1005 1005 1005 1005 
1005 1005 1005 1005 1005 1005 1005 1005 1005 
1005 1005 1005 1005 1005 1005 1005 1005 1005 
1005 1005 1005 1005 1005 1005 1005 1005 1005 
1005 1005 1005 1005 1005 1005 1005 1005 1005 
1005 1005 1005 1005 1005 1005 1005 1005 1005 
1005 1005 1005 1005 1005 1005 1005 1005 1005 
1005 1005 1005 1005 1005 1005 1005 1005 1005 
1005 1005 1005 1005 1005 1005 1005 1005 1005 
1005 1005 1005 1005 1005 1005 1005 1005 1005 
1005 1005 1005 1005 1005 1005 1005 1005 1005 
1005 1005 1005 1005 1005 1005 1005 1005 1005 
1005 1005 1005 1005 1005 1005 1005 1005 1005 
1005 1005 1005 1005 1005 1005 1005 1005 1005 
1005 1005 1005 1005 1005 1005 1005 1005 1005 
1005 1005 1005 1005 1005 1005 1005 1005 1005 
1005 1005 1005 1005 1005 1005 1005 1005 1005 
1005 1005 1005 1005 1005 1005 1005 1005 1005 
1005 1005 1005 1005 1005 1005 1005 1005 1005 
1005 1005 1005 1005 1005 1005 1005 1005 1005 
1005 1005 1005 1005 1005 1005 1005 1005 1005 
1005 1005 1005 1005 1005 1005 1005 1005 1005 
1005 1005 1005 1005 1005 1005 1005 1005 1005 
1005 1005 1005 1005 1005 1005 1005 1005 1005 
1005 1005 1005 1005 1005 1005 1005 1005 1005 
1005 1005 1005 1005 1005 1005 1005 1005 1005 
1005 1005 1005 1005 1005 1005 1005 1005 1005 
1005 1005 1005 1005 1005 1005 1005 1005 1005 
1005 1005 1005 1005 1005 1005 1005 1005 1005 
1005 1005 1005 1005 1005 1005 1005 1005 1005 
1005 1005 1005 1005 1005 1005 1005 1005 1005 
1005 1005 1005 1005 1005 1005 1005 1005 1005 
1005 1005 1005 1005 1005 1005 1005 1005 1005 
1005 1005 1005 1005 1005 1005 1005 1005 1005 
1005 1005 1005 1005 1005 1005 1005 1005 1005 
1005 1005 1005 1005 1005 1005 1005 1005 1005 
1005 1005 1005 1005 1005 1005 1005 1005 1005 
1005 1005 1005 1005 1005 1005 1005 1005 1005 
1005 1005 1005 1005 1005 1005 1005 1005 1005 
1005 1005 1005 1005 1005 1005 1005 1005 1005 
1005 1005 1005 1005 1005 1005 1005 1005 1005 
1005 1005 1005 1005 1005 1005 1005 1005 1005 
1005 1005 1005 1005 1005 1005 1005 1005 1005 
1005 1005 1005 1005 1005 1005 1005 1005 1005 
1005 1005 1005 1005 1005 1005 1005 1005 1005 
1005 1005 1005 1005 1005 1005 1005 1005 1005 
1005 1005 1005 1005 1005 1005 1005 1005 1005 
1005 1005 1005 1005 1005 1005 1005 1005 1005 
1005 1005 1005 1005 1005 1005 1005 1005 1005 
1005 1005 1005 1005 1005 1005 1005 1005 1005 
1005 1005 1005 1005 1005 1005 1005 1005 1005 
1005 1005 1005 1005 1005 1005 1005 1005 1005 
1005 1005 1005 1005 1005 1005 1005 1005 1005 
1005 1005 1005 1005 1005 1005 1005 1005 1005 
1005 1005 1005 1005 1005 1005 1005 1005 1005 
1005 1005 1005 1005 1005 1005 1005 1005 1005 
1005 1005 1005 1005 1005 1005 1005 1005 1005 
1005 1005 1005 1005 1005 1005 1005 1005 1005 
1005 1005 1005 1005 1005 1005 1005 1005 1005 
1005 1005 1005 1005 1005 1005 1005 1005 1005 
1005 1005 1005 1005 1005 1005 1005 1005 1005 
1005 1005 1005 1005 1005 1005 1005 1005 1005 
1005 1005 1005 1005 1005 1005 1005 1005 1005 
1005 1005 1005 1005 1005 1005 1005 1005 1005 
1005 1005 1005 1005 1005 1005 1005 1005 1005 
1005 1005 1005 1005 1005 1005 1005 1005 1005 
1005 1005 1005 1005 1005 1005 1005 1005 1005 
1005 1005 1005 1005 1005 1005 1005 1005 1005 
1005 1005 1005 1005 1005 1005 1005 1005 1005 
1005 1005 1005 1005 1005 1005 1005 1005 1005 
1005 1005 1005 1005 1005 1005 1005 1005 1005 
1005 1005 1005 1005 1005 1005 1005 1005 1005 
1005 1005 1005 1005 1005 1005 1005 1005 1005 
1005 1005 1005 1005 1005 1005 1005 1005 1005 
1005 1005 1005 1005 1005 1005 1005 1005 1005 
1005 1005 1005 1005 1005 1005 1005 1005 1005 
1005 1005 1005 1005 1005 1005 1005 1005 1005 
1005 1005 1005 1005 1005 1005 1005 1005 1005 
1005 1005 1005 1005 1005 1005 1005 1005 1005 
1005 1005 1005 1005 1005 1005 1005 1005 1005 
1005 1005 1005 1005 1005 1005 1005 1005 1005 
1005 1005 1005 1005 1005 1005 1005 1005 1005 
1005 1005 1005 1005 1005 1005 1005 1005 1005 
1005 1005 1005 1005 1005 1005 1005 1005 1005 
1005 1005 1005 1005 1005 1005 1005 1005 1005 
1005 1005 1005 1005 1005 1005 1005 1005 1005 
1005 1005 1005 1005 1005 1005 1005 1005 1005 
1005 1005 1005 1005 1005 1005 1005 1005 1005 
1005 1005 1005 1005 1005 1005 1005 1005 1005 
1005 1005 1005 1005 1005 1005 1005 1005 1005 
1005 1005 1005 1005 1005 1005 1005 1005 1005 
1005 1005 1005 1005 1005 1005 1005 1005 1005 
1005 1005 1005 1005 1005 1005 1005 1005 1005 
1005 1005 1005 1005 1005 1005 1005 1005 1005 
1005 1005 1005 1005 1005 1005 1005 1005 1005 
1005 1005 1005 1005 1005 1005 1005 1005 1005 
1005 1005 1005 1005 1005 1005 1005 1005 1005 
1005 1005 1005 1005 1005 1005 1005 1005 1005 
1005 1005 1005 1005 1005 1005 1005 1005 1005 
1005 1005 1005 1005 1005 1005 1005 1005 1005 
1005 1005 1005 1005 1005 1005 1005 1005 1005 
1005 1005 1005 1005 1005 1005 1005 1005 1005 
1005 1005 1005 1005 1005 1005 1005 1005 1005 
1005 1005 1005 1005 1005 1005 1005 1005 1005 
1005 1005 1005 1005 1005 1005 1005 1005 1005 
1005 1005 1005 1005 1005 1005 1005 1005 1005 
1005 1005 1005 1005 1005 1005 1005 1005 1005 
1005 1005 1005 1005 1005 1005 1005 1005 1005 
1005 1005 1005 1005 1005 1005 1005 1005 1005 
1005 1005 1005 1005 1005 1005 1005 1005 1005 
1005 1005 1005 1005 1005 1005 1005 1005 1005 
1005 1005 1005 1005 1005 1005 1005 1005 1005 
1005 1005 1005 1005 1005 1005 1005 1005 1005 
1005 1005 1005 1005 1005 1005 1005 1005 1005 
1005 1005 1005 1005 1005 1005 1005 1005 1005 
1005 1005 1005 1005 1005 1005 1005 1005 1005 
1005 1005 1005 1005 1005 1005 1005 1005 1005 
1005 1005 1005 1005 1005 1005 1005 1005 1005 
1005 1005 1005 1005 1005 1005 1005 1005 1005 
1005 1005 1005 1005 1005 1005 1005 1005 1005 
1005 1005 1005 1005 1005 1005 1005 1005 1005 
1005 1005 1005 1005 1005 1005 1005 1005 1005 
1005 1005 1005 1005 1005 1005 1005 1005 1005 
1005 1005 1005 1005 1005 1005 1005 1005 1005 
1005 1005 1005 1005 1005 1005 1005 1005 1005 
1005 1005 1005 1005 1005 1005 1005 1005 1005 
1005 1005 1005 1005 1005 1005 1005 1005 1005 
1005 1005 1005 1005 1005 1005 1005 1005 1005 
1005 1005 1005 1005 1005 1005 1005 1005 1005 
1005 1005 1005 1005 1005 1005 1005 1005 1005 
1005 1005 1005 1005 1005 1005 1005 1005 1005 
1005 1005 1005 1005 1005 1005 1005 1005 1005 
1005 1005 1005 1005 1005 1005 1005 1005 1005 
1005 1005 1005 1005 1005 1005 1005 1005 1005 
1005 1005 1005 1005 1005 1005 1005 1005 1005 
1005 1005 1005 1005 1005 1005 1005 1005 1005 
1005 1005 1005 1005 1005 1005 1005 1005 1005 
1005 1005 1005 1005 1005 1005 1005 1005 1005 
1005 1005 1005 1005 1005 1005 1005 1005 1005 
1005 1005 1005 1005 1005 1005 1005 1005 1005 
1005 1005 1005 1005 1005 1005 1005 1005 1005 
1005 1005 1005 1005 1005 1005 1005 1005 1005 
1005 1005 1005 1005 1005 1005 1005 1005 1005 
1005 1005 1005 1005 1005 1005 1005 1005 1005 
1005 1005 1005 1005 1005 1005 1005 1005 1005 
1005 1005 1005 1005 1005 1005 1005 1005 1005 
1005 1005 1005 1005 1005 1005 1005 1005 1005 
1005 1005 1005 1005 1005 1005 1005 1005 1005 
1005 1005 1005 1005 1005 1005 1005 1005 1005 
1005 1005 1005 1005 1005 1005 1005 1005 1005 
1005 1005 1005 1005 1005 1005 1005 1005 1005 
1005 1005 1005 1005 1005 1005 1005 1005 1005 
1005 1005 1005 1005 1005 1005 1005 1005 1005 
1005 1005 1005 1005 1005 1005 1005 1005 1005 
1005 1005 1005 1005 1005 1005 1005 1005 1005 
1005 1005 1005 1005 1005 1005 1005 1005 1005 
1005 1005 1005 1005 1005 1005 1005 1005 1005 
1005 1005 1005 1005 1005 1005 1005 1005 1005 
1005 1005 1005 1005 1005 1005 1005 1005 1005 
1005 1005 1005 1005 1005 1005 1005 1005 1005 
1005 1005 1005 1005 1005 1005 1005 1005 1005 
1005 1005 1005 1005 1005 1005 1005 1005 1005 
1005 1005 1005 1005 1005 1005 1005 1005 1005 
1005 1005 1005 1005 1005 1005 1005 1005 1005 
1005 1005 1005 1005 1005 1005 1005 1005 1005 
1005 1005 1005 1005 1005 1005 1005 1005 1005 
1005 1005 1005 1005 1005 1005 1005 1005 1005 
1005 1005 1005 1005 1005 1005 1005 1005 1005 
1005 1005 1005 1005 1005 1005 1005 1005 1005 
1005 1005 1005 1005 1005 1005 1005 1005 1005 
1005 1005 1005 1005 1005 1005 1005 1005 1005 
1005 1005 1005 1005 1005 1005 1005 1005 1005 
1005 1005 1005 1005 1005 1005 1005 1005 1005 
1005 1005 1005 1005 1005 1005 1005 1005 1005 
1005 1005 1005 1005 1005 1005 1005 1005 1005 
1005 1005 1005 1005 1005 1005 1005 1005 1005 
1005 1005 1005 1005 1005 1005 1005 1005 1005 
1005 1005 1005 1005 1005 1005 1005 1005 1005 
1005 1005 1005 1005 1005 1005 1005 1005 1005 
1005 1005 1005 1005 1005 1005 1005 1005 1005 
1005 1005 1005 1005 1005 1005 1005 1005 1005 
1005 1005 1005 1005 1005 1005 1005 1005 1005 
1005 1005 1005 1005 1005 1005 1005 1005 1005 
1005 1005 1005 1005 1005 1005 1005 1005 1005 
1005 1005 1005 1005 1005 1005 1005 1005 1005 
1005 1005 1005 1005 1005 1005 1005 1005 1005 
1005 1005 1005 1005 1005 1005 1005 1005 1005 
1005 1005 1005 1005 1005 1005 1005 1005 1005 
1005 1005 1005 1005 1005 1005 1005 1005 1005 
1005 1005 1005 1005 1005 1005 1005 1005 1005 
1005 1005 1005 1005 1005 1005 1005 1005 1005 
1005 1005 1005 1005 1005 1005 1005 1005 1005 
1005 1005 1005 1005 1005 1005 1005 1005 1005 
1005 1005 1005 1005 1005 1005 1005 1005 1005 
1005 1005 1005 1005 1005 1005 1005 1005 1005 
1005 1005 1005 1005 1005 1005 1005 1005 1005 
1005 1005 1005 1005 1005 1005 1005 1005 1005 
1005 1005 1005 1005 1005 1005 1005 1005 1005 
1005 1005 1005 1005 1005 1005 1005 1005 1005 
1005 1005 1005 1005 1005 1005 1005 1005 1005 
1005 1005 1005 1005 1005 1005 1005 1005 1005 
1005 1005 1005 1005 1005 1005 1005 1005 1005 
1005 1005 1005 1005 1005 1005 1005 1005 1005 
1005 1005 1005 1005 1005 1005 1005 1005 1005 
1005 1005 1005 1005 1005 1005 1005 1005 1005 
1005 1005 1005 1005 1005 1005 1005 1005 1005 
1005 1005 1005 1005 1005 1005 1005 1005 1005 
1005 1005 1005 1005 1005 1005 1005 1005 1005 
1005 1005 1005 1005 1005 1005 1005 1005 1005 
1005 1005 1005 1005 1005 1005 1005 1005 1005 
1005 1005 1005 1005 1005 1005 1005 1005 1005 
1005 1005 1005 1005 1005 1005 1005 1005 1005 
1005 1005 1005 1005 1005 1005 1005 1005 1005 
1005 1005 1005 1005 1005 1005 1005 1005 1005 
1005 1005 1005 1005 1005 1005 1005 1005 1005 
1005 1005 1005 1005 1005 1005 1005 1005 1005 
1005 1005 1005 1005 1005 1005 1005 1005 1005 
1005 1005 1005 1005 1005 1005 1005 1005 1005 
1005 1005 1005 1005 1005 1005 1005 1005 1005 
1005 1005 1005 1005 1005 1005 1005 1005 1005 
1005 1005 1005 1005 1005 1005 1005 1005 1005 
1005 1005 1005 1005 1005 1005 1005 1005 1005 
1005 1005 1005 1005 1005 1005 1005 1005 1005 
1005 1005 1005 1005 1005 1005 1005 1005 1005 
1005 1005 1005 1005 1005 1005 1005 1005 1005 
1005 1005 1005 1005 1005 1005 1005 1005 1005 
1005 1005 1005 1005 1005 1005 1005 1005 1005 
1005 1005 1005 1005 1005 1005 1005 1005 1005 
1005 1005 1005 1005 1005 1005 1005 1005 1005 
1005 1005 1005 1005 1005 1005 1005 1005 1005 
1005 1005 1005 1005 1005 1005 1005 1005 1005 
1005 1005 1005 1005 1005 1005 1005 1005 1005 
1005 1005 1005 1005 1005 1005 1005 1005 1005 
1005 1005 1005 1005 1005 1005 1005 1005 1005 
1005 1005 1005 1005 1005 1005 1005 1005 1005 
1005 1005 1005 1005 1005 1005 1005 1005 1005 
1005 1005 1005 1005 1005 1005 1005 1005 1005 
1005 1005 1005 1005 1005 1005 1005 1005 1005 
1005 1005 1005 1005 1005 1005 1005 1005 1005 
1005 1005 1005 1005 1005 1005 1005 1005 1005 
1005 1005 1005 1005 1005 1005 1005 1005 1005 
1005 1005 1005 1005 1005 1005 1005 1005 1005 
1005 1005 1005 1005 1005 1005 1005 1005 1005 
1005 1005 1005 1005 1005 1005 1005 1005 1005 
1005 1005 1005 1005 1005 1005 1005 1005 1005 
1005 1005 1005 1005 1005 1005 1005 1005 1005 
1005 1005 1005 1005 1005 1005 1005 1005 1005 
1005 1005 1005 1005 1005 1005 1005 1005 1005 
1005 1005 1005 1005 1005 1005 1005 1005 1005 
1005 1005 1005 1005 1005 1005 1005 1005 1005 
1005 1005 1005 1005 1005 1005 1005 1005 1005 
1005 1005 1005 1005 1005 1005 1005 1005 1005 
1005 1005 1005 1005 1005 1005 1005 1005 1005 
1005 1005 1005 1005 1005 1005 1005 1005 1005 
1005 1005 1005 1005 1005 1005 1005 1005 1005 
1005 1005 1005 1005 1005 1005 1005 1005 1005 
1005 1005 1005 1005 1005 1005 1005 1005 1005 
1005 1005 1005 1005 1005 1005 1005 1005 1005 
1005 1005 1005 1005 1005 1005 1005 1005 1005 
1005 1005 1005 1005 1005 1005 1005 1005 1005 
1005 1005 1005 1005 1005 1005 1005 1005 1005 
1005 1005 1005 1005 1005 1005 1005 1005 1005 
1005 1005 1005 1005 1005 1005 1005 1005 1005 
1005 1005 1005 1005 1005 1005 1005 1005 1005 
1005 1005 1005 1005 1005 1005 1005 1005 1005 
1005 1005 1005 1005 1005 1005 1005 1005 1005 
1005 1005 1005 1005 1005 1005 1005 1005 1005 
1005 1005 1005 1005 1005 1005 1005 1005 1005 
1005 1005 1005 1005 1005 1005 1005 1005 1005 
1005 1005 1005 1005 1005 1005 1005 1005 1005 
1005 1005 1005 1005 1005 1005 1005 1005 1005 
1005 1005 1005 1005 1005 1005 1005 1005 1005 
1005 1005 1005 1005 1005 1005 1005 1005 1005 
1005 1005 1005 1005 1005 1005 1005 1005 1005 
1005 1005 1005 1005 1005 1005 1005 1005 1005 
1005 1005 1005 1005 1005 1005 1005 1005 1005 
1005 1005 1005 1005 1005 1005 1005 1005 1005 
1005 1005 1005 1005 1005 1005 1005 1005 1005 
1005 1005 1005 1005 1005 1005 1005 1005 1005 
1005 1005 1005 1005 1005 1005 1005 1005 1005 
1005 1005 1005 1005 1005 1005 1005 1005 1005 
1005 1005 1005 1005 1005 1005 1005 1005 1005 
1005 1005 1005 1005 1005 1005 1005 1005 1005 
1005 1005 1005 1005 1005 1005 1005 1005 1005 
1005 1005 1005 1005 1005 1005 1005 1005 1005 
1005 1005 1005 1005 1005 1005 1005 1005 1005 
1005 1005 1005 1005 1005 1005 1005 1005 1005 
1005 1005 1005 1005 1005 1005 1005 1005 1005 
1005 1005 1005 1005 1005 1005 1005 1005 1005 
1005 1005 1005 1005 1005 1005 1005 1005 1005 
1005 1005 1005 1005 1005 1005 1005 1005 1005 
1005 1005 1005 1005 1005 1005 1005 1005 1005 
1005 1005 1005 1005 1005 1005 1005 1005 1005 
1005 1005 1005 1005 1005 1005 1005 1005 1005 
1005 1005 1005 1005 1005 1005 1005 1005 1005 
1005 1005 1005 1005 1005 1005 1005 1005 1005 
1005 1005 1005 1005 1005 1005 1005 1005 1005 
1005 1005 1005 1005 1005 1005 1005 1005 1005 
1005 1005 1005 1005 1005 1005 1005 1005 1005 
1005 1005 1005 1005 1005 1005 1005 1005 1005 
1005 1005 1005 1005 1005 1005 1005 1005 1005 
1005 1005 1005 1005 1005 1005 1005 1005 1005 
1005 1005 1005 1005 1005 1005 1005 1005 1005 
1005 1005 1005 1005 1005 1005 1005 1005 1005 
1005 1005 1005 1005 1005 1005 1005 1005 1005 
1005 1005 1005 1005 1005 1005 1005 1005 1005 
1005 1005 1005 1005 1005 1005 1005 1005 1005 
1005 1005 1005 1005 1005 1005 1005 1005 1005 
1005 1005 1005 1005 1005 1005 1005 1005 1005 
1005 1005 1005 1005 1005 1005 1005 1005 1005 
1005 1005 1005 1005 1005 1005 1005 1005 1005 
1005 1005 1005 1005 1005 1005 1005 1005 1005 
1005 1005 1005 1005 1005 1005 1005 1005 1005 
1005 1005 1005 1005 1005 1005 1005 1005 1005 
1005 1005 1005 1005 1005 1005 1005 1005 1005 
1005 1005 1005 1005 1005 1005 1005 1005 1005 
1005 1005 1005 1005 1005 1005 1005 1005 1005 
1005 1005 1005 1005 1005 1005 1005 1005 1005 
1005 1005 1005 1005 1005 1005 1005 1005 1005 
1005 1005 1005 1005 1005 1005 1005 1005 1005 
1005 1005 1005 1005 1005 1005 1005 1005 1005 
1005 1005 1005 1005 1005 1005 1005 1005 1005 
1005 1005 1005 1005 1005 1005 1005 1005 1005 
1005 1005 1005 1005 1005 1005 1005 1005 1005 
1005 1005 1005 1005 1005 1005 1005 1005 1005 
1005 1005 1005 1005 1005 1005 1005 1005 1005 
1005 1005 1005 1005 1005 1005 1005 1005 1005 
1005 1005 1005 1005 1005 1005 1005 1005 1005 
1005 1005 1005 1005 1005 1005 1005 1005 1005 
1005 1005 1005 1005 1005 1005 1005 1005 1005 
1005 1005 1005 1005 1005 1005 1005 1005 1005 
1005 1005 1005 1005 1005 1005 1005 1005 1005 
1005 1005 1005 1005 1005 1005 1005 1005 1005 
1005 1005 1005 1005 1005 1005 1005 1005 1005 
1005 1005 1005 1005 1005 1005 1005 1005 1005 
1005 1005 1005 1005 1005 1005 1005 1005 1005 
1005 1005 1005 1005 1005 1005 1005 1005 1005 
1005 1005 1005 1005 1005 1005 1005 1005 1005 
1005 1005 1005 1005 1005 1005 1005 1005 1005 
1005 1005 1005 1005 1005 1005 1005 1005 1005 
1005 1005 1005 1005 1005 1005 1005 1005 1005 
1005 1005 1005 1005 1005 1005 1005 1005 1005 
1005 1005 1005 1005 1005 1005 1005 1005 1005 
1005 1005 1005 1005 1005 1005 1005 1005 1005 
1005 1005 1005 1005 1005 1005 1005 1005 1005 
1005 1005 1005 1005 1005 1005 1005 1005 1005 
1005 1005 1005 1005 1005 1005 1005 1005 1005 
1005 1005 1005 1005 1005 1005 1005 1005 1005 
1005 1005 1005 1005 1005 1005 1005 1005 1005 
1005 1005 1005 1005 1005 1005 1005 1005 1005 
1005 1005 1005 1005 1005 1005 1005 1005 1005 
1005 1005 1005 1005 1005 1005 1005 1005 1005 
1005 1005 1005 1005 1005 1005 1005 1005 1005 
1005 1005 1005 1005 1005 1005 1005 1005 1005 
1005 1005 1005 1005 1005 1005 1005 1005 1005 
1005 1005 1005 1005 1005 1005 1005 1005 1005 
1005 1005 1005 1005 1005 1005 1005 1005 1005 
1005 1005 1005 1005 1005 1005 1005 1005 1005 
1005 1005 1005 1005 1005 1005 1005 1005 1005 
1005 1005 1005 1005 1005 1005 1005 1005 1005 
1005 1005 1005 1005 1005 1005 1005 1005 1005 
1005 1005 1005 1005 1005 1005 1005 1005 1005 
1005 1005 1005 1005 1005 1005 1005 1005 1005 
1005 1005 1005 1005 1005 1005 1005 1005 1005 
1005 1005 1005 1005 1005 1005 1005 1005 1005 
1005 1005 1005 1005 1005 1005 1005 1005 1005 
1005 1005 1005 1005 1005 1005 1005 1005 1005 
1005 1005 1005 1005 1005 1005 1005 1005 1005 
1005 1005 1005 1005 1005 1005 1005 1005 1005 
1005 1005 1005 1005 1005 1005 1005 1005 1005 
1005 1005 1005 1005 1005 1005 1005 1005 1005 
1005 1005 1005 1005 1005 1005 1005 1005 1005 
1005 1005 1005 1005 1005 1005 1005 1005 1005 
1005 1005 1005 1005 1005 1005 1005 1005 1005 
1005 1005 1005 1005 1005 1005 1005 1005 1005 
1005 1005 1005 1005 1005 1005 1005 1005 1005 
1005 1005 1005 1005 1005 1005 1005 1005 1005 
1005 1005 1005 1005 1005 1005 1005 1005 1005 
1005 1005 1005 1005 1005 1005 1005 1005 1005 
1005 1005 1005 1005 1005 1005 1005 1005 1005 
1005 1005 1005 1005 1005 1005 1005 1005 1005 
1005 1005 1005 1005 1005 1005 1005 1005 1005 
1005 1005 1005 1005 1005 1005 1005 1005 1005 
1005 1005 1005 1005 1005 1005 1005 1005 1005 
1005 1005 1005 1005 1005 1005 1005 1005 1005 
1005 1005 1005 1005 1005 1005 1005 1005 1005 
1005 1005 1005 1005 1005 1005 1005 1005 1005 
1005 1005 1005 1005 1005 1005 1005 1005 1005 
1005 1005 1005 1005 1005 1005 1005 1005 1005 
1005 1005 1005 1005 1005 1005 1005 1005 1005 
1005 1005 1005 1005 1005 1005 1005 1005 1005 
1005 1005 1005 1005 1005 1005 1005 1005 1005 
1005 1005 1005 1005 1005 1005 1005 1005 1005 
1005 1005 1005 1005 1005 1005 1005 1005 1005 
1005 1005 1005 1005 1005 1005 1005 1005 1005 
1005 1005 1005 1005 1005 1005 1005 1005 1005 
1005 1005 1005 1005 1005 1005 1005 1005 1005 
1005 1005 1005 1005 1005 1005 1005 1005 1005 
1005 1005 1005 1005 1005 1005 1005 1005 1005 
1005 1005 1005 1005 1005 1005 1005 1005 1005 
1005 1005 1005 1005 1005 1005 1005 1005 1005 
1005 1005 1005 1005 1005 1005 1005 1005 1005 
1005 1005 1005 1005 1005 1005 1005 1005 1005 
1005 1005 1005 1005 1005 1005 1005 1005 1005 
1005 1005 1005 1005 1005 1005 1005 1005 1005 
1005 1005 1005 1005 1005 1005 1005 1005 1005 
1005 1005 1005 1005 1005 1005 1005 1005 1005 
1005 1005 1005 1005 1005 1005 1005 1005 1005 
1005 1005 1005 1005 1005 1005 1005 1005 1005 
1005 1005 1005 1005 1005 1005 1005 1005 1005 
1005 1005 1005 1005 1005 1005 1005 1005 1005 
1005 1005 1005 1005 1005 1005 1005 1005 1005 
1005 1005 1005 1005 1005 1005 1005 1005 1005 
1005 1005 1005 1005 1005 1005 1005 1005 1005 
1005 1005 1005 1005 1005 1005 1005 1005 1005 
1005 1005 1005 1005 1005 1005 1005 1005 1005 
1005 1005 1005 1005 1005 1005 1005 1005 1005 
1005 1005 1005 1005 1005 1005 1005 1005 1005 
1005 1005 1005 1005 1005 1005 1005 1005 1005 
1005 1005 1005 1005 1005 1005 1005 1005 1005 
1005 1005 1005 1005 1005 1005 1005 1005 1005 
1005 1005 1005 1005 1005 1005 1005 1005 1005 
1005 1005 1005 1005 1005 1005 1005 1005 1005 
1005 1005 1005 1005 1005 1005 1005 1005 1005 
1005 1005 1005 1005 1005 1005 1005 1005 1005 
1005 1005 1005 1005 1005 1005 1005 1005 1005 
1005 1005 1005 1005 1005 1005 1005 1005 1005 
1005 1005 1005 1005 1005 1005 1005 1005 1005 