# vtk DataFile Version 4.2
vtk output
ASCII
DATASET POLYDATA
POINTS 7634 float
-16.1284 -20.6754 16.1176 -16.0603 -20.4816 15.7693 -15.8189 -20.8089 15.9645 
-16.4372 -20.8453 16.0764 -16.4434 -20.5242 15.9311 -16.7825 -20.7852 15.7121 
-16.1222 -21.2627 16.1472 -15.7399 -21.2859 15.8859 -16.4543 -21.2164 15.9979 
-16.6287 -21.0224 15.9141 -17.7803 -21.4678 16.1102 -17.9237 -21.0072 15.7912 
-17.5062 -21.2933 15.9455 -18.1051 -21.2675 15.8573 -16.0336 -21.9098 16.184 
-15.7791 -21.9369 15.8233 -16.5486 -21.5197 16.0013 -16.5557 -21.8405 16.1777 
-17.2493 -21.9578 16.152 -17.0076 -21.5676 15.9483 -17.9383 -22.0179 16.1885 
-18.1444 -21.6906 15.9544 -15.9487 -22.4336 16.1786 -15.7487 -22.6264 15.9702 
-16.4619 -22.4768 16.1626 -16.9759 -22.4899 15.8158 -17.302 -22.316 15.9771 
-17.4581 -22.6767 15.8019 -17.7691 -22.479 16.193 -18.4609 -22.1221 15.8522 
-18.3517 -22.548 16.1458 -18.7507 -22.5321 15.8589 -15.9967 -22.9292 16.112 
-15.7511 -23.1741 15.7434 -16.3292 -23.0365 16.011 -16.6438 -22.8599 15.8396 
-17.8005 -22.9648 16.0823 -17.6702 -23.1126 15.7575 -18.2177 -23.0152 16.1475 
-18.7034 -22.9457 15.9561 -16.0694 -23.2866 15.9163 -17.9776 -23.2751 15.9345 
-18.4044 -23.3514 15.8485 -15.9731 -20.3228 15.2839 -15.7278 -20.6765 15.4028 
-16.4728 -20.3867 15.4522 -16.9304 -20.6166 15.3072 -17.7167 -20.839 15.5805 
-17.8226 -20.5797 15.2616 -17.5061 -20.6763 15.2458 -18.0778 -20.6931 15.2285 
-15.7781 -21.2111 15.3101 -16.8325 -21.2507 15.7585 -17.1462 -20.9271 15.4054 
-17.309 -21.1473 15.6283 -18.4093 -21.4567 15.5952 -18.3945 -21.0226 15.3624 
-18.731 -21.2945 15.2165 -15.9391 -21.6306 15.4177 -15.9215 -21.9831 15.5018 
-16.1906 -21.8425 15.1218 -18.4117 -21.8072 15.6958 -18.7338 -21.7653 15.3868 
-15.9819 -22.1823 15.3545 -15.7679 -22.4931 15.5621 -17.1969 -22.4581 15.7202 
-19.0433 -22.7224 15.6001 -18.9172 -22.2541 15.4851 -19.2206 -22.3752 15.1688 
-15.7233 -23.1331 15.2548 -16.4917 -23.3146 15.6689 -16.917 -23.0065 15.4393 
-17.1957 -22.755 15.4389 -17.5008 -23.0923 15.3562 -18.941 -23.2925 15.6457 
-19.343 -22.9347 15.225 -16.0491 -23.5983 15.6387 -15.7477 -23.7884 15.2489 
-16.465 -23.7306 15.4728 -16.929 -23.6414 15.1563 -17.9254 -23.4479 15.5232 
-18.3823 -23.7574 15.6003 -17.9469 -23.8073 15.3579 -18.8699 -23.8326 15.5289 
-19.2938 -23.512 15.3368 -16.1691 -24.0227 15.325 -16.6111 -24.02 15.206 
-17.955 -24.1745 15.4396 -17.6786 -24.0033 15.1362 -17.6988 -24.3633 15.1535 
-18.3594 -24.2362 15.5098 -18.7649 -24.2222 15.386 -19.1378 -23.9541 15.3093 
-17.9466 -24.4798 15.317 -18.3619 -24.5261 15.2309 -16.1194 -19.0133 14.8811 
-15.9033 -18.735 14.612 -15.7808 -19.0069 14.7353 -16.271 -18.7192 14.6392 
-16.0579 -19.4756 14.944 -15.7289 -19.4554 14.6373 -16.6362 -19.0798 14.6615 
-16.6405 -19.5508 14.9296 -16.9679 -19.4222 14.6648 -16.054 -19.9898 15.0196 
-15.7228 -20.1091 14.7334 -16.6525 -20.1308 15.0927 -17.1376 -19.73 14.7623 
-17.2278 -20.1648 14.9472 -17.5151 -19.9883 14.4949 -15.7442 -20.6825 14.6452 
-17.1523 -20.5747 15.1416 -17.8438 -20.4163 14.7981 -18.2611 -20.6196 14.6659 
-15.9486 -21.0829 14.7764 -16.0357 -21.3769 15.0796 -16.1945 -21.3576 14.6694 
-18.5379 -20.827 14.7646 -19.0527 -21.4696 14.9549 -18.8818 -21.079 14.8297 
-19.2077 -21.2721 14.5528 -16.4537 -21.7098 14.5877 -19.0833 -21.9315 15.1113 
-19.3602 -21.7996 14.6718 -16.0801 -22.4922 15.1461 -16.6395 -22.1461 14.7014 
-16.4588 -22.6394 14.8681 -16.9636 -22.5389 14.5427 -19.4531 -22.4393 14.7993 
-16.0037 -23.0525 14.9366 -16.3347 -22.9983 14.7456 -16.6689 -22.8285 14.6337 
-17.2612 -23.2516 15.1158 -19.7003 -22.785 14.6636 -19.6333 -23.2681 14.9842 
-19.9388 -23.0985 14.6366 -16.0623 -23.3539 14.6658 -15.757 -23.6091 14.853 
-17.3776 -23.76 14.9362 -17.639 -23.5479 15.1339 -19.5465 -23.8592 15.0427 
-19.9413 -23.5371 14.7372 -15.9547 -24.2787 15.0149 -15.8055 -24.1595 14.7507 
-16.3817 -24.3502 14.9684 -16.8544 -24.203 14.833 -17.1924 -24.0389 14.7615 
-17.5057 -24.2782 14.7704 -19.0406 -24.4337 15.1146 -19.6239 -24.389 14.9351 
-19.9492 -24.1325 14.7433 -16.0819 -24.4732 14.7267 -16.5065 -24.5756 14.5419 
-17.8974 -24.6401 14.909 -18.4375 -24.8381 14.9711 -18.0744 -25.0887 14.7079 
-18.8834 -25.0084 14.9305 -19.4242 -24.8188 14.8938 -19.8986 -24.7001 14.7229 
-18.475 -25.4296 14.869 -18.1221 -25.676 14.7232 -18.8084 -25.4491 14.7627 
-19.2155 -25.2353 14.7169 -19.6837 -25.0841 14.6743 -18.4102 -26.0988 14.877 
-18.1171 -26.3037 14.6507 -18.7063 -25.9383 14.7341 -18.3626 -26.578 14.8677 
-18.229 -26.8507 14.6086 -18.6506 -26.5148 14.756 -18.4905 -26.8776 14.731 
-16.5341 -18.4396 14.3168 -16.6646 -18.0958 13.9525 -16.3641 -18.24 14.0931 
-16.9256 -18.3396 14.0017 -16.0581 -18.5414 14.1094 -15.7239 -18.9373 14.2893 
-16.5854 -18.7759 14.5331 -16.8781 -18.9278 14.1253 -15.6542 -19.4762 14.1074 
-17.2708 -19.5842 14.469 -17.0986 -19.3025 14.2917 -17.3931 -19.7011 14.0207 
-15.6708 -20.0868 14.082 -17.6351 -20.0896 13.9793 -15.7742 -20.5945 13.9447 
-17.846 -20.2932 14.2021 -18.5606 -20.7231 14.3461 -18.2429 -20.5345 14.173 
-18.6046 -20.7356 13.9869 -15.9918 -20.9896 14.2709 -16.3194 -21.3521 14.0443 
-18.9118 -20.9636 14.1841 -19.3591 -21.3284 14.032 -16.6022 -21.6744 14.1575 
-16.6608 -21.8682 14.4202 -16.8723 -21.9189 14.0357 -19.6134 -21.6688 14.1586 
-19.6362 -22.0819 14.3875 -19.7972 -21.8703 13.9688 -17.144 -22.2553 14.2439 
-17.2835 -22.4764 14.3079 -17.4102 -22.5206 13.9223 -19.6369 -22.4436 14.4933 
-19.9051 -22.3762 14.052 -16.4906 -23.2849 14.4412 -16.9598 -22.9927 14.2875 
-17.2885 -22.771 14.1275 -20.237 -23.2656 14.3875 -20.119 -22.8591 14.2411 
-20.3932 -23.0677 13.9865 -16.0239 -23.788 14.5062 -16.4094 -23.8412 14.2519 
-16.8691 -23.5013 14.0947 -20.2543 -23.8329 14.4375 -20.4678 -23.5172 14.0184 
-16.1224 -24.339 14.4052 -16.3681 -24.2727 14.1257 -16.6816 -23.9518 14.0273 
-17.1369 -24.5199 14.5033 -20.2413 -24.4749 14.4443 -20.5533 -24.2172 13.965 
-16.41 -24.7211 14.1563 -16.7892 -24.9492 14.3229 -17.3062 -25.0096 14.3691 
-17.6455 -24.7869 14.5111 -20.1273 -25.0832 14.428 -20.4508 -24.8127 14.1227 
-16.6613 -25.1778 14.1416 -16.8666 -25.5023 14.0128 -17.1526 -25.4803 14.3238 
-17.7242 -25.3402 14.478 -19.0951 -25.7052 14.5418 -19.6242 -25.4479 14.4858 
-20.0681 -25.6096 14.2809 -20.512 -25.3132 14.0269 -17.1926 -25.9896 14.2676 
-16.9833 -26.1826 13.9311 -17.6859 -25.9723 14.4476 -18.9824 -26.2364 14.524 
-19.488 -26.0982 14.308 -19.9816 -25.9888 14.1428 -20.3476 -25.7477 14.081 
-17.4115 -26.3889 14.1491 -17.8181 -26.4232 14.2577 -18.017 -26.7938 14.1109 
-18.9424 -26.8301 14.4446 -19.3989 -26.6829 14.1493 -19.727 -26.3483 14.0627 
-18.4707 -27.2017 14.4696 -18.205 -27.3587 14.0878 -18.8244 -27.3493 14.2988 
-19.2393 -27.1535 14.1286 -18.5717 -27.6191 14.0556 -19.1049 -27.5179 13.9521 
-16.7084 -18.0189 13.3925 -16.3106 -18.2325 13.6818 -17.2113 -18.3552 13.7153 
-17.0975 -18.0586 13.6617 -17.4133 -18.2892 13.3552 -15.9783 -18.5515 13.3441 
-15.7596 -18.9416 13.6537 -17.0354 -18.8629 13.6036 -17.3036 -18.6412 13.4493 
-15.6793 -19.4858 13.4953 -17.1531 -19.4138 13.8486 -17.0053 -19.513 13.4263 
-15.6941 -20.0857 13.4928 -17.2481 -19.7575 13.5716 -17.4726 -20.0208 13.6231 
-15.7908 -20.6031 13.3644 -17.7844 -20.4044 13.5762 -18.3251 -20.6569 13.7244 
-18.0741 -20.7313 13.3861 -16.0058 -20.979 13.6676 -16.3066 -21.3929 13.3273 
-18.5178 -20.8863 13.5236 -18.9716 -21.0974 13.5277 -19.2634 -21.3065 13.4267 
-16.6286 -21.6268 13.6774 -16.878 -21.864 13.5603 -19.6053 -21.5573 13.5789 
-19.8793 -21.9271 13.495 -17.122 -22.1805 13.5542 -17.4291 -22.6417 13.3823 
-20.0416 -22.3776 13.3393 -17.2711 -23.2601 13.8639 -17.5013 -22.9697 13.6207 
-20.2427 -22.749 13.6833 -20.4535 -23.1517 13.5126 -17.125 -23.8526 13.7791 
-17.5689 -23.514 13.4117 -20.5956 -23.7748 13.4107 -16.6551 -24.358 13.9085 
-17.0348 -24.4171 13.6744 -17.5063 -24.0832 13.4843 -20.7801 -24.1699 13.5982 
-20.7997 -24.4019 13.648 -20.8845 -24.3335 13.5127 -16.6705 -24.8825 13.8848 
-16.969 -24.9433 13.6329 -17.3178 -24.5276 13.4618 -20.6952 -24.7269 13.5383 
-20.8346 -24.4878 13.4978 -16.9511 -25.521 13.6148 -20.8121 -25.2623 13.6291 
-20.739 -25.7072 13.8121 -21.0234 -25.4017 13.3821 -16.7695 -26.0853 13.4363 
-20.2051 -26.1772 13.9409 -20.665 -26.2341 13.7342 -21.0339 -26.0023 13.4128 
-17.2076 -26.6604 13.8281 -16.8715 -26.6526 13.5308 -17.6314 -26.7179 13.8747 
-19.6911 -26.7552 13.9477 -20.1464 -26.7452 13.7365 -20.5955 -26.744 13.429 
-20.881 -26.4411 13.4652 -17.3098 -26.9237 13.3716 -17.8137 -26.9513 13.5486 
-18.041 -27.2397 13.5284 -19.6028 -27.2255 13.8253 -19.9531 -27.2095 13.5686 
-20.2697 -27.0547 13.422 -18.3396 -27.8423 13.807 -18.1938 -27.805 13.4288 
-18.6169 -27.9121 13.6463 -19.0693 -27.7457 13.4943 -19.6522 -27.5219 13.4434 
-18.5312 -28.0733 13.3716 -16.6122 -18.0051 12.7252 -16.246 -18.2403 13.0807 
-17.1908 -18.0197 13.0867 -17.4875 -18.247 12.8468 -15.9336 -18.4674 12.8307 
-15.7502 -18.8824 12.9414 -17.1734 -18.9851 13.1991 -17.4201 -18.6717 12.9794 
-15.6325 -19.5826 12.8339 -16.949 -19.3434 12.9415 -17.1615 -19.0441 12.831 
-15.7031 -20.2066 12.9965 -17.2455 -20.0625 13.2657 -16.9703 -19.9733 12.788 
-15.7801 -20.7335 12.7491 -17.3352 -20.4137 12.9789 -17.7026 -20.6715 13.1329 
-17.5036 -20.8258 12.6957 -15.9903 -21.0394 13.1062 -16.1718 -21.4646 12.7796 
-17.9977 -20.972 12.9861 -18.5449 -21.1127 13.0465 -18.9428 -21.2344 13.1152 
-18.7087 -21.2874 12.8647 -16.6834 -21.82 13.2712 -16.4352 -21.8142 12.8463 
-19.0805 -21.5184 12.8811 -19.6627 -21.7101 13.0661 -19.8642 -22.0863 12.8611 
-16.7898 -22.1671 12.985 -17.1446 -22.4443 13.1282 -16.9464 -22.5994 12.6893 
-20.0351 -22.5925 12.7554 -17.2842 -22.7495 12.9832 -17.5164 -23.0739 13.1147 
-20.2388 -22.8124 13.1066 -20.4182 -23.2942 12.8615 -17.6745 -23.4689 12.8809 
-17.8609 -23.8817 13.1706 -17.9886 -23.8561 12.7652 -20.537 -23.6933 12.8631 
-17.7534 -24.4384 13.2239 -18.0744 -24.1935 12.9229 -20.7676 -24.2939 13.3744 
-20.6668 -24.1657 12.8964 -17.2862 -24.9459 13.3527 -17.6567 -25.0101 13.1069 
-18.1225 -24.6855 12.8266 -20.8041 -24.6492 13.0001 -20.8874 -25.0098 13.2722 
[...]
CELL_DATA 15272
SCALARS scalars float
LOOKUP_TABLE default
1035 1035 1035 1035 1035 1035 1035 1035 1035 
1035 1035 1035 1035 1035 1035 1035 1035 1035 
1035 1035 1035 1035 1035 1035 1035 1035 1035 
1035 1035 1035 1035 1035 1035 1035 1035 1035 
1035 1035 1035 1035 1035 1035 1035 1035 1035 
1035 1035 1035 1035 1035 1035 1035 1035 1035 
1035 1035 1035 1035 1035 1035 1035 1035 1035 
1035 1035 1035 1035 1035 1035 1035 1035 1035 
1035 1035 1035 1035 1035 1035 1035 1035 1035 
1035 1035 1035 1035 1035 1035 1035 1035 1035 
1035 1035 1035 1035 1035 1035 1035 1035 1035 
1035 1035 1035 1035 1035 1035 1035 1035 1035 
1035 1035 1035 1035 1035 1035 1035 1035 1035 
1035 1035 1035 1035 1035 1035 1035 1035 1035 
1035 1035 1035 1035 1035 1035 1035 1035 1035 
1035 1035 1035 1035 1035 1035 1035 1035 1035 
1035 1035 1035 1035 1035 1035 1035 1035 1035 
1035 1035 1035 1035 1035 1035 1035 1035 1035 
1035 1035 1035 1035 1035 1035 1035 1035 1035 
1035 1035 1035 1035 1035 1035 1035 1035 1035 
1035 1035 1035 1035 1035 1035 1035 1035 1035 
1035 1035 1035 1035 1035 1035 1035 1035 1035 
1035 1035 1035 1035 1035 1035 1035 1035 1035 
1035 1035 1035 1035 1035 1035 1035 1035 1035 
1035 1035 1035 1035 1035 1035 1035 1035 1035 
1035 1035 1035 1035 1035 1035 1035 1035 1035 
1035 1035 1035 1035 1035 1035 1035 1035 1035 
1035 1035 1035 1035 1035 1035 1035 1035 1035 
1035 1035 1035 1035 1035 1035 1035 1035 1035 
1035 1035 1035 1035 1035 1035 1035 1035 1035 
1035 1035 1035 1035 1035 1035 1035 1035 1035 
1035 1035 1035 1035 1035 1035 1035 1035 1035 
1035 1035 1035 1035 1035 1035 1035 1035 1035 
1035 1035 1035 1035 1035 1035 1035 1035 1035 
1035 1035 1035 1035 1035 1035 1035 1035 1035 
1035 1035 1035 1035 1035 1035 1035 1035 1035 
1035 1035 1035 1035 1035 1035 1035 1035 1035 
1035 1035 1035 1035 1035 1035 1035 1035 1035 
1035 1035 1035 1035 1035 1035 1035 1035 1035 
1035 1035 1035 1035 1035 1035 1035 1035 1035 
1035 1035 1035 1035 1035 1035 1035 1035 1035 
1035 1035 1035 1035 1035 1035 1035 1035 1035 
1035 1035 1035 1035 1035 1035 1035 1035 1035 
1035 1035 1035 1035 1035 1035 1035 1035 1035 
1035 1035 1035 1035 1035 1035 1035 1035 1035 
1035 1035 1035 1035 1035 1035 1035 1035 1035 
1035 1035 1035 1035 1035 1035 1035 1035 1035 
1035 1035 1035 1035 1035 1035 1035 1035 1035 
1035 1035 1035 1035 1035 1035 1035 1035 1035 
1035 1035 1035 1035 1035 1035 1035 1035 1035 
1035 1035 1035 1035 1035 1035 1035 1035 1035 
1035 1035 1035 1035 1035 1035 1035 1035 1035 
1035 1035 1035 1035 1035 1035 1035 1035 1035 
1035 1035 1035 1035 1035 1035 1035 1035 1035 
1035 1035 1035 1035 1035 1035 1035 1035 1035 
1035 1035 1035 1035 1035 1035 1035 1035 1035 
1035 1035 1035 1035 1035 1035 1035 1035 1035 
1035 1035 1035 1035 1035 1035 1035 1035 1035 
1035 1035 1035 1035 1035 1035 1035 1035 1035 
1035 1035 1035 1035 1035 1035 1035 1035 1035 
1035 1035 1035 1035 1035 1035 1035 1035 1035 
1035 1035 1035 1035 1035 1035 1035 1035 1035 
1035 1035 1035 1035 1035 1035 1035 1035 1035 
1035 1035 1035 1035 1035 1035 1035 1035 1035 
1035 1035 1035 1035 1035 1035 1035 1035 1035 
1035 1035 1035 1035 1035 1035 1035 1035 1035 
1035 1035 1035 1035 1035 1035 1035 1035 1035 
1035 1035 1035 1035 1035 1035 1035 1035 1035 
1035 1035 1035 1035 1035 1035 1035 1035 1035 
1035 1035 1035 1035 1035 1035 1035 1035 1035 
1035 1035 1035 1035 1035 1035 1035 1035 1035 
1035 1035 1035 1035 1035 1035 1035 1035 1035 
1035 1035 1035 1035 1035 1035 1035 1035 1035 
1035 1035 1035 1035 1035 1035 1035 1035 1035 
1035 1035 1035 1035 1035 1035 1035 1035 1035 
1035 1035 1035 1035 1035 1035 1035 1035 1035 
1035 1035 1035 1035 1035 1035 1035 1035 1035 
1035 1035 1035 1035 1035 1035 1035 1035 1035 
1035 1035 1035 1035 1035 1035 1035 1035 1035 
1035 1035 1035 1035 1035 1035 1035 1035 1035 
1035 1035 1035 1035 1035 1035 1035 1035 1035 
1035 1035 1035 1035 1035 1035 1035 1035 1035 
1035 1035 1035 1035 1035 1035 1035 1035 1035 
1035 1035 1035 1035 1035 1035 1035 1035 1035 
1035 1035 1035 1035 1035 1035 1035 1035 1035 
1035 1035 1035 1035 1035 1035 1035 1035 1035 
1035 1035 1035 1035 1035 1035 1035 1035 1035 
1035 1035 1035 1035 1035 1035 1035 1035 1035 
1035 1035 1035 1035 1035 1035 1035 1035 1035 
1035 1035 1035 1035 1035 1035 1035 1035 1035 
1035 1035 1035 1035 1035 1035 1035 1035 1035 
1035 1035 1035 1035 1035 1035 1035 1035 1035 
1035 1035 1035 1035 1035 1035 1035 1035 1035 
1035 1035 1035 1035 1035 1035 1035 1035 1035 
1035 1035 1035 1035 1035 1035 1035 1035 1035 
1035 1035 1035 1035 1035 1035 1035 1035 1035 
1035 1035 1035 1035 1035 1035 1035 1035 1035 
1035 1035 1035 1035 1035 1035 1035 1035 1035 
1035 1035 1035 1035 1035 1035 1035 1035 1035 
1035 1035 1035 1035 1035 1035 1035 1035 1035 
1035 1035 1035 1035 1035 1035 1035 1035 1035 
1035 1035 1035 1035 1035 1035 1035 1035 1035 
1035 1035 1035 1035 1035 1035 1035 1035 1035 
1035 1035 1035 1035 1035 1035 1035 1035 1035 
1035 1035 1035 1035 1035 1035 1035 1035 1035 
1035 1035 1035 1035 1035 1035 1035 1035 1035 
1035 1035 1035 1035 1035 1035 1035 1035 1035 
1035 1035 1035 1035 1035 1035 1035 1035 1035 
1035 1035 1035 1035 1035 1035 1035 1035 1035 
1035 1035 1035 1035 1035 1035 1035 1035 1035 
1035 1035 1035 1035 1035 1035 1035 1035 1035 
1035 1035 1035 1035 1035 1035 1035 1035 1035 
1035 1035 1035 1035 1035 1035 1035 1035 1035 
1035 1035 1035 1035 1035 1035 1035 1035 1035 
1035 1035 1035 1035 1035 1035 1035 1035 1035 
1035 1035 1035 1035 1035 1035 1035 1035 1035 
1035 1035 1035 1035 1035 1035 1035 1035 1035 
1035 1035 1035 1035 1035 1035 1035 1035 1035 
1035 1035 1035 1035 1035 1035 1035 1035 1035 
1035 1035 1035 1035 1035 1035 1035 1035 1035 
1035 1035 1035 1035 1035 1035 1035 1035 1035 
1035 1035 1035 1035 1035 1035 1035 1035 1035 
1035 1035 1035 1035 1035 1035 1035 1035 1035 
1035 1035 1035 1035 1035 1035 1035 1035 1035 
1035 1035 1035 1035 1035 1035 1035 1035 1035 
1035 1035 1035 1035 1035 1035 1035 1035 1035 
1035 1035 1035 1035 1035 1035 1035 1035 1035 
1035 1035 1035 1035 1035 1035 1035 1035 1035 
1035 1035 1035 1035 1035 1035 1035 1035 1035 
1035 1035 1035 1035 1035 1035 1035 1035 1035 
1035 1035 1035 1035 1035 1035 1035 1035 1035 
1035 1035 1035 1035 1035 1035 1035 1035 1035 
1035 1035 1035 1035 1035 1035 1035 1035 1035 
1035 1035 1035 1035 1035 1035 1035 1035 1035 
1035 1035 1035 1035 1035 1035 1035 1035 1035 
1035 1035 1035 1035 1035 1035 1035 1035 1035 
1035 1035 1035 1035 1035 1035 1035 1035 1035 
1035 1035 1035 1035 1035 1035 1035 1035 1035 
1035 1035 1035 1035 1035 1035 1035 1035 1035 
1035 1035 1035 1035 1035 1035 1035 1035 1035 
1035 1035 1035 1035 1035 1035 1035 1035 1035 
1035 1035 1035 1035 1035 1035 1035 1035 1035 
1035 1035 1035 1035 1035 1035 1035 1035 1035 
1035 1035 1035 1035 1035 1035 1035 1035 1035 
1035 1035 1035 1035 1035 1035 1035 1035 1035 
1035 1035 1035 1035 1035 1035 1035 1035 1035 
1035 1035 1035 1035 1035 1035 1035 1035 1035 
1035 1035 1035 1035 1035 1035 1035 1035 1035 
1035 1035 1035 1035 1035 1035 1035 1035 1035 
1035 1035 1035 1035 1035 1035 1035 1035 1035 
1035 1035 1035 1035 1035 1035 1035 1035 1035 
1035 1035 1035 1035 1035 1035 1035 1035 1035 
1035 1035 1035 1035 1035 1035 1035 1035 1035 
1035 1035 1035 1035 1035 1035 1035 1035 1035 
1035 1035 1035 1035 1035 1035 1035 1035 1035 
1035 1035 1035 1035 1035 1035 1035 1035 1035 
1035 1035 1035 1035 1035 1035 1035 1035 1035 
1035 1035 1035 1035 1035 1035 1035 1035 1035 
1035 1035 1035 1035 1035 1035 1035 1035 1035 
1035 1035 1035 1035 1035 1035 1035 1035 1035 
1035 1035 1035 1035 1035 1035 1035 1035 1035 
1035 1035 1035 1035 1035 1035 1035 1035 1035 
1035 1035 1035 1035 1035 1035 1035 1035 1035 
1035 1035 1035 1035 1035 1035 1035 1035 1035 
1035 1035 1035 1035 1035 1035 1035 1035 1035 
1035 1035 1035 1035 1035 1035 1035 1035 1035 
1035 1035 1035 1035 1035 1035 1035 1035 1035 
1035 1035 1035 1035 1035 1035 1035 1035 1035 
1035 1035 1035 1035 1035 1035 1035 1035 1035 
1035 1035 1035 1035 1035 1035 1035 1035 1035 
1035 1035 1035 1035 1035 1035 1035 1035 1035 
1035 1035 1035 1035 1035 1035 1035 1035 1035 
1035 1035 1035 1035 1035 1035 1035 1035 1035 
1035 1035 1035 1035 1035 1035 1035 1035 1035 
1035 1035 1035 1035 1035 1035 1035 1035 1035 
1035 1035 1035 1035 1035 1035 1035 1035 1035 
1035 1035 1035 1035 1035 1035 1035 1035 1035 
1035 1035 1035 1035 1035 1035 1035 1035 1035 
1035 1035 1035 1035 1035 1035 1035 1035 1035 
1035 1035 1035 1035 1035 1035 1035 1035 1035 
1035 1035 1035 1035 1035 1035 1035 1035 1035 
1035 1035 1035 1035 1035 1035 1035 1035 1035 
1035 1035 1035 1035 1035 1035 1035 1035 1035 
1035 1035 1035 1035 1035 1035 1035 1035 1035 
1035 1035 1035 1035 1035 1035 1035 1035 1035 
1035 1035 1035 1035 1035 1035 1035 1035 1035 
1035 1035 1035 1035 1035 1035 1035 1035 1035 
1035 1035 1035 1035 1035 1035 1035 1035 1035 
1035 1035 1035 1035 1035 1035 1035 1035 1035 
1035 1035 1035 1035 1035 1035 1035 1035 1035 
1035 1035 1035 1035 1035 1035 1035 1035 1035 
1035 1035 1035 1035 1035 1035 1035 1035 1035 
1035 1035 1035 1035 1035 1035 1035 1035 1035 
1035 1035 1035 1035 1035 1035 1035 1035 1035 
1035 1035 1035 1035 1035 1035 1035 1035 1035 
1035 1035 1035 1035 1035 1035 1035 1035 1035 
1035 1035 1035 1035 1035 1035 1035 1035 1035 
1035 1035 1035 1035 1035 1035 1035 1035 1035 
1035 1035 1035 1035 1035 1035 1035 1035 1035 
1035 1035 1035 1035 1035 1035 1035 1035 1035 
1035 1035 1035 1035 1035 1035 1035 1035 1035 
1035 1035 1035 1035 1035 1035 1035 1035 1035 
1035 1035 1035 1035 1035 1035 1035 1035 1035 
1035 1035 1035 1035 1035 1035 1035 1035 1035 
1035 1035 1035 1035 1035 1035 1035 1035 1035 
1035 1035 1035 1035 1035 1035 1035 1035 1035 
1035 1035 1035 1035 1035 1035 1035 1035 1035 
1035 1035 1035 1035 1035 1035 1035 1035 1035 
1035 1035 1035 1035 1035 1035 1035 1035 1035 
1035 1035 1035 1035 1035 1035 1035 1035 1035 
1035 1035 1035 1035 1035 1035 1035 1035 1035 
1035 1035 1035 1035 1035 1035 1035 1035 1035 
1035 1035 1035 1035 1035 1035 1035 1035 1035 
1035 1035 1035 1035 1035 1035 1035 1035 1035 
1035 1035 1035 1035 1035 1035 1035 1035 1035 
1035 1035 1035 1035 1035 1035 1035 1035 1035 
1035 1035 1035 1035 1035 1035 1035 1035 1035 
1035 1035 1035 1035 1035 1035 1035 1035 1035 
1035 1035 1035 1035 1035 1035 1035 1035 1035 
1035 1035 1035 1035 1035 1035 1035 1035 1035 
1035 1035 1035 1035 1035 1035 1035 1035 1035 
1035 1035 1035 1035 1035 1035 1035 1035 1035 
1035 1035 1035 1035 1035 1035 1035 1035 1035 
1035 1035 1035 1035 1035 1035 1035 1035 1035 
1035 1035 1035 1035 1035 1035 1035 1035 1035 
1035 1035 1035 1035 1035 1035 1035 1035 1035 
1035 1035 1035 1035 1035 1035 1035 1035 1035 
1035 1035 1035 1035 1035 1035 1035 1035 1035 
1035 1035 1035 1035 1035 1035 1035 1035 1035 
1035 1035 1035 1035 1035 1035 1035 1035 1035 
1035 1035 1035 1035 1035 1035 1035 1035 1035 
1035 1035 1035 1035 1035 1035 1035 1035 1035 
1035 1035 1035 1035 1035 1035 1035 1035 1035 
1035 1035 1035 1035 1035 1035 1035 1035 1035 
1035 1035 1035 1035 1035 1035 1035 1035 1035 
1035 1035 1035 1035 1035 1035 1035 1035 1035 
1035 1035 1035 1035 1035 1035 1035 1035 1035 
1035 1035 1035 1035 1035 1035 1035 1035 1035 
1035 1035 1035 1035 1035 1035 1035 1035 1035 
1035 1035 1035 1035 1035 1035 1035 1035 1035 
1035 1035 1035 1035 1035 1035 1035 1035 1035 
1035 1035 1035 1035 1035 1035 1035 1035 1035 
1035 1035 1035 1035 1035 1035 1035 1035 1035 
1035 1035 1035 1035 1035 1035 1035 1035 1035 
1035 1035 1035 1035 1035 1035 1035 1035 1035 
1035 1035 1035 1035 1035 1035 1035 1035 1035 
1035 1035 1035 1035 1035 1035 1035 1035 1035 
1035 1035 1035 1035 1035 1035 1035 1035 1035 
1035 1035 1035 1035 1035 1035 1035 1035 1035 
1035 1035 1035 1035 1035 1035 1035 1035 1035 
1035 1035 1035 1035 1035 1035 1035 1035 1035 
1035 1035 1035 1035 1035 1035 1035 1035 1035 
1035 1035 1035 1035 1035 1035 1035 1035 1035 
1035 1035 1035 1035 1035 1035 1035 1035 1035 
1035 1035 1035 1035 1035 1035 1035 1035 1035 
1035 1035 1035 1035 1035 1035 1035 1035 1035 
1035 1035 1035 1035 1035 1035 1035 1035 1035 
1035 1035 1035 1035 1035 1035 1035 1035 1035 
1035 1035 1035 1035 1035 1035 1035 1035 1035 
1035 1035 1035 1035 1035 1035 1035 1035 1035 
1035 1035 1035 1035 1035 1035 1035 1035 1035 
1035 1035 1035 1035 1035 1035 1035 1035 1035 
1035 1035 1035 1035 1035 1035 1035 1035 1035 
1035 1035 1035 1035 1035 1035 1035 1035 1035 
1035 1035 1035 1035 1035 1035 1035 1035 1035 
1035 1035 1035 1035 1035 1035 1035 1035 1035 
1035 1035 1035 1035 1035 1035 1035 1035 1035 
1035 1035 1035 1035 1035 1035 1035 1035 1035 
1035 1035 1035 1035 1035 1035 1035 1035 1035 
1035 1035 1035 1035 1035 1035 1035 1035 1035 
1035 1035 1035 1035 1035 1035 1035 1035 1035 
1035 1035 1035 1035 1035 1035 1035 1035 1035 
1035 1035 1035 1035 1035 1035 1035 1035 1035 
1035 1035 1035 1035 1035 1035 1035 1035 1035 
1035 1035 1035 1035 1035 1035 1035 1035 1035 
1035 1035 1035 1035 1035 1035 1035 1035 1035 
1035 1035 1035 1035 1035 1035 1035 1035 1035 
1035 1035 1035 1035 1035 1035 1035 1035 1035 
1035 1035 1035 1035 1035 1035 1035 1035 1035 
1035 1035 1035 1035 1035 1035 1035 1035 1035 
1035 1035 1035 1035 1035 1035 1035 1035 1035 
1035 1035 1035 1035 1035 1035 1035 1035 1035 
1035 1035 1035 1035 1035 1035 1035 1035 1035 
1035 1035 1035 1035 1035 1035 1035 1035 1035 
1035 1035 1035 1035 1035 1035 1035 1035 1035 
1035 1035 1035 1035 1035 1035 1035 1035 1035 
1035 1035 1035 1035 1035 1035 1035 1035 1035 
1035 1035 1035 1035 1035 1035 1035 1035 1035 
1035 1035 1035 1035 1035 1035 1035 1035 1035 
1035 1035 1035 1035 1035 1035 1035 1035 1035 
1035 1035 1035 1035 1035 1035 1035 1035 1035 
1035 1035 1035 1035 1035 1035 1035 1035 1035 
1035 1035 1035 1035 1035 1035 1035 1035 1035 
1035 1035 1035 1035 1035 1035 1035 1035 1035 
1035 1035 1035 1035 1035 1035 1035 1035 1035 
1035 1035 1035 1035 1035 1035 1035 1035 1035 
1035 1035 1035 1035 1035 1035 1035 1035 1035 
1035 1035 1035 1035 1035 1035 1035 1035 1035 
1035 1035 1035 1035 1035 1035 1035 1035 1035 
1035 1035 1035 1035 1035 1035 1035 1035 1035 
1035 1035 1035 1035 1035 1035 1035 1035 1035 
1035 1035 1035 1035 1035 1035 1035 1035 1035 
1035 1035 1035 1035 1035 1035 1035 1035 1035 
1035 1035 1035 1035 1035 1035 1035 1035 1035 
1035 1035 1035 1035 1035 1035 1035 1035 1035 
1035 1035 1035 1035 1035 1035 1035 1035 1035 
1035 1035 1035 1035 1035 1035 1035 1035 1035 
1035 1035 1035 1035 1035 1035 1035 1035 1035 
1035 1035 1035 1035 1035 1035 1035 1035 1035 
1035 1035 1035 1035 1035 1035 1035 1035 1035 
1035 1035 1035 1035 1035 1035 1035 1035 1035 
1035 1035 1035 1035 1035 1035 1035 1035 1035 
1035 1035 1035 1035 1035 1035 1035 1035 1035 
1035 1035 1035 1035 1035 1035 1035 1035 1035 
1035 1035 1035 1035 1035 1035 1035 1035 1035 
1035 1035 1035 1035 1035 1035 1035 1035 1035 
1035 1035 1035 1035 1035 1035 1035 1035 1035 
1035 1035 1035 1035 1035 1035 1035 1035 1035 
1035 1035 1035 1035 1035 1035 1035 1035 1035 
1035 1035 1035 1035 1035 1035 1035 1035 1035 
1035 1035 1035 1035 1035 1035 1035 1035 1035 
1035 1035 1035 1035 1035 1035 1035 1035 1035 
1035 1035 1035 1035 1035 1035 1035 1035 1035 
1035 1035 1035 1035 1035 1035 1035 1035 1035 
1035 1035 1035 1035 1035 1035 1035 1035 1035 
1035 1035 1035 1035 1035 1035 1035 1035 1035 
1035 1035 1035 1035 1035 1035 1035 1035 1035 
1035 1035 1035 1035 1035 1035 1035 1035 1035 
1035 1035 1035 1035 1035 1035 1035 1035 1035 
1035 1035 1035 1035 1035 1035 1035 1035 1035 
1035 1035 1035 1035 1035 1035 1035 1035 1035 
1035 1035 1035 1035 1035 1035 1035 1035 1035 
1035 1035 1035 1035 1035 1035 1035 1035 1035 
1035 1035 1035 1035 1035 1035 1035 1035 1035 
1035 1035 1035 1035 1035 1035 1035 1035 1035 
1035 1035 1035 1035 1035 1035 1035 1035 1035 
1035 1035 1035 1035 1035 1035 1035 1035 1035 
1035 1035 1035 1035 1035 1035 1035 1035 1035 
1035 1035 1035 1035 1035 1035 1035 1035 1035 
1035 1035 1035 1035 1035 1035 1035 1035 1035 
1035 1035 1035 1035 1035 1035 1035 1035 1035 
1035 1035 1035 1035 1035 1035 1035 1035 1035 
1035 1035 1035 1035 1035 1035 1035 1035 1035 
1035 1035 1035 1035 1035 1035 1035 1035 1035 
1035 1035 1035 1035 1035 1035 1035 1035 1035 
1035 1035 1035 1035 1035 1035 1035 1035 1035 
1035 1035 1035 1035 1035 1035 1035 1035 1035 
1035 1035 1035 1035 1035 1035 1035 1035 1035 
1035 1035 1035 1035 1035 1035 1035 1035 1035 
1035 1035 1035 1035 1035 1035 1035 1035 1035 
1035 1035 1035 1035 1035 1035 1035 1035 1035 
1035 1035 1035 1035 1035 1035 1035 1035 1035 
1035 1035 1035 1035 1035 1035 1035 1035 1035 
1035 1035 1035 1035 1035 1035 1035 1035 1035 
1035 1035 1035 1035 1035 1035 1035 1035 1035 
1035 1035 1035 1035 1035 1035 1035 1035 1035 
1035 1035 1035 1035 1035 1035 1035 1035 1035 
1035 1035 1035 1035 1035 1035 1035 1035 1035 
1035 1035 1035 1035 1035 1035 1035 1035 1035 
1035 1035 1035 1035 1035 1035 1035 1035 1035 
1035 1035 1035 1035 1035 1035 1035 1035 1035 
1035 1035 1035 1035 1035 1035 1035 1035 1035 
1035 1035 1035 1035 1035 1035 1035 1035 1035 
1035 1035 1035 1035 1035 1035 1035 1035 1035 
1035 1035 1035 1035 1035 1035 1035 1035 1035 
1035 1035 1035 1035 1035 1035 1035 1035 1035 
1035 1035 1035 1035 1035 1035 1035 1035 1035 
1035 1035 1035 1035 1035 1035 1035 1035 1035 
1035 1035 1035 1035 1035 1035 1035 1035 1035 
1035 1035 1035 1035 1035 1035 1035 1035 1035 
1035 1035 1035 1035 1035 1035 1035 1035 1035 
1035 1035 1035 1035 1035 1035 1035 1035 1035 
1035 1035 1035 1035 1035 1035 1035 1035 1035 
1035 1035 1035 1035 1035 1035 1035 1035 1035 
1035 1035 1035 1035 1035 1035 1035 1035 1035 
1035 1035 1035 1035 1035 1035 1035 1035 1035 
1035 1035 1035 1035 1035 1035 1035 1035 1035 
1035 1035 1035 1035 1035 1035 1035 1035 1035 
1035 1035 1035 1035 1035 1035 1035 1035 1035 
1035 1035 1035 1035 1035 1035 1035 1035 1035 
1035 1035 1035 1035 1035 1035 1035 1035 1035 
1035 1035 1035 1035 1035 1035 1035 1035 1035 
1035 1035 1035 1035 1035 1035 1035 1035 1035 
1035 1035 1035 1035 1035 1035 1035 1035 1035 
1035 1035 1035 1035 1035 1035 1035 1035 1035 
1035 1035 1035 1035 1035 1035 1035 1035 1035 
1035 1035 1035 1035 1035 1035 1035 1035 1035 
1035 1035 1035 1035 1035 1035 1035 1035 1035 
1035 1035 1035 1035 1035 1035 1035 1035 1035 
1035 1035 1035 1035 1035 1035 1035 1035 1035 
1035 1035 1035 1035 1035 1035 1035 1035 1035 
1035 1035 1035 1035 1035 1035 1035 1035 1035 
1035 1035 1035 1035 1035 1035 1035 1035 1035 
1035 1035 1035 1035 1035 1035 1035 1035 1035 
1035 1035 1035 1035 1035 1035 1035 1035 1035 
1035 1035 1035 1035 1035 1035 1035 1035 1035 
1035 1035 1035 1035 1035 1035 1035 1035 1035 
1035 1035 1035 1035 1035 1035 1035 1035 1035 
1035 1035 1035 1035 1035 1035 1035 1035 1035 
1035 1035 1035 1035 1035 1035 1035 1035 1035 
1035 1035 1035 1035 1035 1035 1035 1035 1035 
1035 1035 1035 1035 1035 1035 1035 1035 1035 
1035 1035 1035 1035 1035 1035 1035 1035 1035 
1035 1035 1035 1035 1035 1035 1035 1035 1035 
1035 1035 1035 1035 1035 1035 1035 1035 1035 
1035 1035 1035 1035 1035 1035 1035 1035 1035 
1035 1035 1035 1035 1035 1035 1035 1035 1035 
1035 1035 1035 1035 1035 1035 1035 1035 1035 
1035 1035 1035 1035 1035 1035 1035 1035 1035 
1035 1035 1035 1035 1035 1035 1035 1035 1035 
1035 1035 1035 1035 1035 1035 1035 1035 1035 
1035 1035 1035 1035 1035 1035 1035 1035 1035 
1035 1035 1035 1035 1035 1035 1035 1035 1035 
1035 1035 1035 1035 1035 1035 1035 1035 1035 
1035 1035 1035 1035 1035 1035 1035 1035 1035 
1035 1035 1035 1035 1035 1035 1035 1035 1035 
1035 1035 1035 1035 1035 1035 1035 1035 1035 
1035 1035 1035 1035 1035 1035 1035 1035 1035 
1035 1035 1035 1035 1035 1035 1035 1035 1035 
1035 1035 1035 1035 1035 1035 1035 1035 1035 
1035 1035 1035 1035 1035 1035 1035 1035 1035 
1035 1035 1035 1035 1035 1035 1035 1035 1035 
1035 1035 1035 1035 1035 1035 1035 1035 1035 
1035 1035 1035 1035 1035 1035 1035 1035 1035 
1035 1035 1035 1035 1035 1035 1035 1035 1035 
1035 1035 1035 1035 1035 1035 1035 1035 1035 
1035 1035 1035 1035 1035 1035 1035 1035 1035 
1035 1035 1035 1035 1035 1035 1035 1035 1035 
1035 1035 1035 1035 1035 1035 1035 1035 1035 
1035 1035 1035 1035 1035 1035 1035 1035 1035 
1035 1035 1035 1035 1035 1035 1035 1035 1035 
1035 1035 1035 1035 1035 1035 1035 1035 1035 
1035 1035 1035 1035 1035 1035 1035 1035 1035 