# vtk DataFile Version 4.2
vtk output
ASCII
DATASET POLYDATA
POINTS 14626 float
38.8865 -23.7319 37.8473 38.5878 -23.1389 37.4152 38.0708 -23.6284 37.5699 
39.9763 -23.6347 37.9102 39.4452 -22.9809 37.4931 40.7291 -23.7247 37.8166 
40.4234 -23.0464 37.5227 41.0844 -23.4219 37.4706 36.8437 -24.7669 37.8515 
36.7098 -24.1311 37.4916 36.1528 -24.5368 37.4971 37.9597 -24.4711 37.904 
37.3194 -23.9253 37.5009 38.8779 -24.687 38.0401 39.7175 -24.5319 38.0472 
40.6097 -24.5044 37.9168 41.2333 -24.2809 37.5559 35.9493 -25.5049 37.848 
35.4632 -25.1214 37.4607 35.1668 -25.8789 37.5321 36.7912 -25.7312 38.0362 
37.6654 -25.5544 38.0262 38.523 -25.3796 38.0281 39.4155 -25.5886 37.9184 
40.3856 -25.4015 37.8177 41.2194 -25.4334 37.3435 35.6235 -26.3215 37.767 
35.2785 -26.6518 37.456 36.3699 -26.4051 37.8797 37.3739 -26.4461 37.8813 
38.4886 -26.3139 37.8197 39.3116 -26.4041 37.5686 40.0652 -26.1353 37.5084 
40.7495 -26.0229 37.3558 35.9837 -27.0083 37.518 36.9414 -27.106 37.5068 
37.9725 -27.0778 37.4704 38.8172 -26.9045 37.4043 37.7608 -22.628 36.7657 
37.7528 -22.1268 36.4501 37.1883 -22.543 36.4535 38.7914 -22.5929 36.9617 
38.4125 -22.0192 36.4458 39.9733 -22.4833 36.9834 39.4338 -21.9937 36.4575 
41.0275 -22.6832 36.9942 40.4509 -21.9919 36.479 41.7361 -22.7911 36.7309 
41.3844 -22.0903 36.4744 42.0799 -22.5867 36.2889 36.7889 -23.5516 36.9798 
36.6796 -23.0502 36.4651 36.1819 -23.5353 36.4789 37.855 -23.2267 37.1734 
41.6429 -23.6407 37.0215 42.0761 -23.3626 36.478 34.7129 -24.6709 36.8212 
34.7518 -24.1939 36.5235 34.1645 -24.5357 36.511 35.6229 -24.426 37.0025 
35.3621 -23.9969 36.4986 41.7326 -24.8095 37.0246 42.2244 -24.2896 36.3485 
33.9601 -25.4137 36.7907 33.5478 -24.9395 36.3344 33.3453 -25.673 36.1657 
34.8117 -25.3479 37.16 41.7275 -25.4886 36.912 42.2357 -25.4792 36.322 
33.7771 -26.1101 36.5878 34.0889 -26.8708 36.331 34.5786 -26.4055 37.0478 
39.6872 -26.903 37.1789 40.6037 -26.6782 37.0133 41.2355 -26.4131 36.7806 
41.7288 -26.0546 36.5327 34.7769 -27.4798 36.8053 34.3817 -27.7655 36.2047 
35.5924 -27.5037 37.1325 36.6851 -27.7425 37.1407 37.7015 -27.7381 37.1176 
38.8308 -27.5651 37.1014 39.6902 -27.5478 37.0072 40.3643 -27.597 36.8127 
41.2258 -27.4358 36.2986 34.8242 -28.1234 36.5981 35.1518 -28.557 36.5413 
35.4548 -28.2954 36.8113 36.4146 -28.4525 36.8552 37.4468 -28.4708 36.8497 
38.4626 -28.4288 36.8521 39.5612 -28.3123 36.8075 40.3435 -28.5884 36.3289 
40.8047 -28.1085 36.3248 35.7237 -28.9903 36.3718 36.9829 -29.1038 36.4958 
38.009 -29.0926 36.4987 38.9892 -29.0805 36.4837 39.7508 -29.06 36.3442 
39.8663 -20.7388 35.7852 39.7393 -20.123 35.4556 39.1951 -20.4934 35.4604 
40.9567 -20.6419 35.8415 40.3945 -20.0023 35.4717 41.9865 -20.6555 35.8808 
41.3918 -19.9857 35.4933 42.8986 -20.7791 35.8315 42.3739 -20.0745 35.4885 
43.1477 -20.361 35.4676 37.7693 -21.7043 35.9714 37.7881 -21.1298 35.4754 
37.2181 -21.5398 35.4694 38.9414 -21.3473 35.9546 38.3807 -20.932 35.4772 
39.8456 -21.5016 36.1098 40.6948 -21.3818 36.1104 41.774 -21.5469 36.117 
42.5805 -21.3609 36.0255 43.5686 -20.9671 35.6067 43.3747 -21.6544 35.7641 
44.1177 -21.6043 35.2409 36.6975 -22.5451 35.9725 36.6831 -22.0468 35.4696 
36.2032 -22.5461 35.4702 42.6434 -22.3506 35.862 43.3114 -22.5994 35.254 
43.7988 -22.137 35.3078 34.7833 -23.7329 36.0054 34.4668 -23.2435 35.2153 
34.1129 -23.651 35.5701 35.8221 -23.301 35.9893 35.3572 -23.0038 35.3118 
42.4399 -23.418 35.8033 42.7954 -23.1368 35.2916 33.8483 -24.2371 35.9608 
33.668 -23.9766 35.529 33.2197 -24.6927 35.5929 42.6291 -24.1553 35.6209 
42.6949 -24.8867 35.8815 42.9669 -24.3782 35.1835 32.9874 -25.7245 35.491 
42.7309 -25.4894 35.9101 43.0282 -25.3815 35.2514 33.5893 -26.3831 36.0958 
33.2866 -26.4689 35.5621 41.723 -26.8744 36.07 42.2215 -26.5733 35.6099 
42.7035 -26.0442 35.5136 33.7261 -26.9444 35.6555 34.0195 -27.6889 35.3823 
41.7281 -27.4575 35.8501 42.0179 -27.4864 35.3454 34.767 -28.5151 36.1642 
34.341 -28.6292 35.3576 40.7576 -28.5469 35.9987 41.2501 -28.5403 35.4823 
41.7182 -28.028 35.4507 34.9089 -29.1581 35.7109 35.5684 -29.5361 35.8299 
35.0602 -29.6638 35.3121 36.4351 -29.5854 35.9949 37.4658 -29.5955 36.0157 
38.4783 -29.6045 35.9965 39.4205 -29.574 35.9328 40.1737 -29.3805 35.7556 
40.745 -29.0623 35.5212 35.8202 -29.8943 35.2312 36.8366 -29.9031 35.4936 
37.7829 -30.0564 35.3662 38.9582 -30.0608 35.4707 39.8165 -29.9126 35.423 
40.8302 -18.8367 34.7504 40.5901 -18.2505 34.1489 40.0879 -18.679 34.5607 
41.3001 -18.4707 34.3184 43.8591 -18.7432 34.8258 43.7525 -18.0839 34.5005 
43.1853 -18.5064 34.4779 44.6647 -18.712 34.75 44.3639 -18.0517 34.4936 
45.0489 -18.3848 34.4379 39.8214 -19.5566 34.9951 39.5196 -19.0779 34.4578 
39.1213 -19.6641 34.5597 40.8292 -19.4858 35.1488 41.6217 -18.869 34.5533 
41.7595 -19.3927 34.9962 42.9825 -19.5217 35.0069 42.3597 -18.9453 34.4896 
43.8841 -19.7276 35.0241 44.5712 -19.5309 34.8651 45.2167 -19.234 34.5275 
37.7989 -20.7098 34.9622 37.5027 -20.2386 34.1774 37.1462 -20.6628 34.5494 
38.8166 -20.2613 34.9817 38.3562 -19.9649 34.2871 43.8389 -20.5916 35.2059 
44.5684 -20.5587 34.8868 45.2288 -20.2954 34.5146 36.7212 -21.5177 34.9717 
36.7017 -20.9804 34.4864 36.1933 -21.5184 34.4748 44.5779 -21.3493 34.9051 
45.2456 -21.4937 34.2783 35.8852 -22.3134 34.9133 35.6996 -22.072 34.4965 
35.3062 -22.4812 34.5696 43.7467 -22.5109 34.9628 44.178 -22.3623 34.7335 
44.7453 -22.0825 34.4854 33.6135 -23.6672 35.1062 33.811 -23.202 34.4231 
33.1827 -23.6193 34.4836 34.5664 -22.8691 34.4222 42.7592 -23.7237 35.1793 
43.1949 -23.535 34.7567 43.7796 -22.9012 34.5353 32.8642 -24.2785 34.8464 
32.6718 -24.0619 34.1487 32.4197 -24.7418 34.4778 43.3346 -24.517 34.5925 
32.6566 -25.2653 34.9899 32.1748 -25.6663 34.4165 43.3391 -25.5387 34.3752 
32.756 -26.4481 34.9699 32.1659 -26.8429 34.4871 42.6483 -26.7203 34.9189 
43.0222 -26.4321 34.5502 32.7195 -27.3623 34.7082 32.3697 -27.6917 34.3743 
33.3883 -27.3648 35.0134 42.3857 -27.4942 34.5689 42.7649 -27.1408 34.303 
33.0601 -28.0273 34.4421 33.7208 -28.0969 34.6109 33.9929 -28.6436 34.5532 
41.726 -28.5635 34.967 42.0411 -28.4215 34.5172 34.5687 -29.429 35.0446 
34.1804 -29.3994 34.4271 40.5486 -29.896 35.0576 41.236 -29.5705 34.595 
41.7096 -29.0586 34.4503 34.8704 -29.8972 34.388 35.683 -30.0293 34.4798 
36.6353 -30.1766 34.6656 37.5862 -30.4642 34.7861 37.2617 -30.6875 34.391 
38.4579 -30.5371 34.9678 39.6313 -30.4619 34.9838 40.4785 -30.5486 34.7417 
40.9805 -30.314 34.4897 38.0184 -30.9817 34.4887 38.9698 -31.0672 34.5195 
40.0028 -31.054 34.326 40.7304 -30.7821 34.2615 43.7725 -17.679 33.9901 
43.754 -17.1245 33.4702 43.188 -17.5365 33.4407 44.9642 -17.6404 34.0166 
44.425 -16.9933 33.4828 45.9974 -17.642 33.8869 45.4812 -16.9747 33.4881 
46.7478 -17.7179 33.7873 46.6571 -17.0136 33.296 47.2546 -17.5397 33.387 
38.9611 -18.4948 33.7702 38.8167 -18.2257 33.1536 38.4512 -18.7568 33.4982 
39.6078 -18.5357 34.1473 39.7992 -18.106 33.4813 40.8455 -18.0409 33.3499 
41.9992 -18.5483 34.0502 41.5056 -18.1987 33.6633 42.7939 -18.2883 33.9538 
42.3498 -18.0236 33.3004 45.7311 -18.616 34.1486 46.583 -18.5009 33.9071 
47.2576 -18.2907 33.5588 38.8446 -19.1756 34.0552 38.1767 -19.3861 33.482 
45.7294 -19.7093 34.204 46.3898 -19.6388 33.8449 47.2297 -19.4433 33.3407 
36.6445 -20.6861 34.0788 36.8344 -20.2339 33.405 36.1836 -20.7015 33.4669 
37.5818 -19.8657 33.3575 45.8484 -20.7176 34.0017 46.3524 -20.6633 33.4386 
46.8 -20.1538 33.3375 35.6738 -21.5642 33.9928 35.6368 -21.1122 33.1576 
35.1593 -21.7151 33.477 45.7259 -21.5195 33.8558 45.9938 -21.357 33.505 
34.8747 -22.2965 33.9512 34.6689 -22.1352 33.1864 34.3326 -22.6141 33.5823 
44.5538 -22.8914 34.0228 45.1928 -22.4731 33.6654 45.6651 -21.9815 33.2971 
33.8041 -23.0299 33.394 33.1789 -23.502 33.7332 43.8431 -23.6316 34.17 
44.4754 -23.7455 33.758 45.0428 -23.2382 33.3272 32.5171 -24.0163 33.2034 
32.124 -24.7025 33.8267 43.838 -24.645 33.9936 44.3246 -24.4577 33.5254 
44.7404 -23.9658 33.1537 30.993 -25.6225 33.7965 30.4497 -25.1553 33.2082 
30.2345 -25.8235 33.4918 31.6769 -25.4297 33.952 31.3476 -24.9248 33.3544 
43.6445 -25.6149 33.834 44.0538 -25.3756 33.2909 30.8265 -26.4364 33.8138 
30.2962 -26.5709 33.4239 31.5495 -26.2595 34.1379 43.3773 -26.5003 33.6264 
43.7839 -26.1176 33.3302 30.8062 -27.1029 33.5594 31.0884 -27.875 33.4652 
31.6012 -27.4137 33.9828 42.6454 -27.7131 33.8644 43.0144 -27.4369 33.5427 
31.69 -28.3331 33.6887 31.3833 -28.6595 33.3668 32.5665 -28.5221 33.9384 
33.4893 -28.5898 34.1772 42.3798 -28.4933 33.5744 42.7415 -28.1495 33.2961 
32.0423 -29.0183 33.4614 32.7742 -29.261 33.5042 33.199 -29.7915 33.2473 
33.5177 -29.2479 33.8595 41.6582 -29.7307 33.856 42.0281 -29.4327 33.4964 
33.9858 -29.8659 33.6091 34.7113 -30.1605 33.3346 35.7213 -30.1993 33.816 
36.6865 -30.6603 34.0012 36.1282 -30.832 33.312 41.3205 -30.5519 33.5581 
41.7817 -30.1518 33.2683 36.8155 -31.448 33.7933 36.3807 -31.7231 33.2346 
37.6227 -31.4649 34.1093 38.5298 -31.5742 34.1919 39.3743 -31.744 33.9614 
40.2049 -31.6624 33.3784 40.665 -31.1587 33.5707 36.8097 -32.1118 33.6232 
37.1292 -32.5661 33.5572 37.4543 -32.2791 33.8191 38.5007 -32.3289 33.8366 
39.2965 -32.4085 33.5837 39.7818 -32.1529 33.356 37.7636 -32.9958 33.2567 
38.9476 -32.8835 33.2292 43.7743 -16.7015 32.96 43.7611 -16.1303 32.4546 
43.1907 -16.5482 32.4498 44.9272 -16.4917 32.9718 44.4391 -16.0055 32.4463 
45.9827 -16.512 32.9554 45.4551 -16.0031 32.4552 46.6589 -16.5245 32.8442 
46.398 -16.1065 32.4598 47.0994 -16.4728 32.546 42.8622 -17.3114 32.8718 
42.686 -17.0682 32.4502 42.311 -17.5204 32.5098 47.7545 -17.8868 32.9617 
47.5559 -17.1111 32.7483 48.0558 -17.3398 32.2186 38.4622 -18.1383 32.2655 
38.132 -18.7198 32.8026 39.4047 -17.8802 32.4444 40.474 -17.8918 32.6424 
41.5325 -17.915 32.7102 47.7583 -18.828 33.049 48.117 -18.3076 32.3557 
37.7703 -19.3625 32.8606 37.7034 -19.0386 32.4534 37.3386 -19.4638 32.4875 
47.7529 -19.4864 32.9173 48.0324 -19.2644 32.3687 36.8661 -19.9592 32.7073 
36.1791 -20.4156 32.686 46.6502 -20.7355 32.9122 47.0957 -20.3719 32.6947 
[...]
CELL_DATA 29272
SCALARS scalars float
LOOKUP_TABLE default
1030 1030 1030 1030 1030 1030 1030 1030 1030 
1030 1030 1030 1030 1030 1030 1030 1030 1030 
1030 1030 1030 1030 1030 1030 1030 1030 1030 
1030 1030 1030 1030 1030 1030 1030 1030 1030 
1030 1030 1030 1030 1030 1030 1030 1030 1030 
1030 1030 1030 1030 1030 1030 1030 1030 1030 
1030 1030 1030 1030 1030 1030 1030 1030 1030 
1030 1030 1030 1030 1030 1030 1030 1030 1030 
1030 1030 1030 1030 1030 1030 1030 1030 1030 
1030 1030 1030 1030 1030 1030 1030 1030 1030 
1030 1030 1030 1030 1030 1030 1030 1030 1030 
1030 1030 1030 1030 1030 1030 1030 1030 1030 
1030 1030 1030 1030 1030 1030 1030 1030 1030 
1030 1030 1030 1030 1030 1030 1030 1030 1030 
1030 1030 1030 1030 1030 1030 1030 1030 1030 
1030 1030 1030 1030 1030 1030 1030 1030 1030 
1030 1030 1030 1030 1030 1030 1030 1030 1030 
1030 1030 1030 1030 1030 1030 1030 1030 1030 
1030 1030 1030 1030 1030 1030 1030 1030 1030 
1030 1030 1030 1030 1030 1030 1030 1030 1030 
1030 1030 1030 1030 1030 1030 1030 1030 1030 
1030 1030 1030 1030 1030 1030 1030 1030 1030 
1030 1030 1030 1030 1030 1030 1030 1030 1030 
1030 1030 1030 1030 1030 1030 1030 1030 1030 
1030 1030 1030 1030 1030 1030 1030 1030 1030 
1030 1030 1030 1030 1030 1030 1030 1030 1030 
1030 1030 1030 1030 1030 1030 1030 1030 1030 
1030 1030 1030 1030 1030 1030 1030 1030 1030 
1030 1030 1030 1030 1030 1030 1030 1030 1030 
1030 1030 1030 1030 1030 1030 1030 1030 1030 
1030 1030 1030 1030 1030 1030 1030 1030 1030 
1030 1030 1030 1030 1030 1030 1030 1030 1030 
1030 1030 1030 1030 1030 1030 1030 1030 1030 
1030 1030 1030 1030 1030 1030 1030 1030 1030 
1030 1030 1030 1030 1030 1030 1030 1030 1030 
1030 1030 1030 1030 1030 1030 1030 1030 1030 
1030 1030 1030 1030 1030 1030 1030 1030 1030 
1030 1030 1030 1030 1030 1030 1030 1030 1030 
1030 1030 1030 1030 1030 1030 1030 1030 1030 
1030 1030 1030 1030 1030 1030 1030 1030 1030 
1030 1030 1030 1030 1030 1030 1030 1030 1030 
1030 1030 1030 1030 1030 1030 1030 1030 1030 
1030 1030 1030 1030 1030 1030 1030 1030 1030 
1030 1030 1030 1030 1030 1030 1030 1030 1030 
1030 1030 1030 1030 1030 1030 1030 1030 1030 
1030 1030 1030 1030 1030 1030 1030 1030 1030 
1030 1030 1030 1030 1030 1030 1030 1030 1030 
1030 1030 1030 1030 1030 1030 1030 1030 1030 
1030 1030 1030 1030 1030 1030 1030 1030 1030 
1030 1030 1030 1030 1030 1030 1030 1030 1030 
1030 1030 1030 1030 1030 1030 1030 1030 1030 
1030 1030 1030 1030 1030 1030 1030 1030 1030 
1030 1030 1030 1030 1030 1030 1030 1030 1030 
1030 1030 1030 1030 1030 1030 1030 1030 1030 
1030 1030 1030 1030 1030 1030 1030 1030 1030 
1030 1030 1030 1030 1030 1030 1030 1030 1030 
1030 1030 1030 1030 1030 1030 1030 1030 1030 
1030 1030 1030 1030 1030 1030 1030 1030 1030 
1030 1030 1030 1030 1030 1030 1030 1030 1030 
1030 1030 1030 1030 1030 1030 1030 1030 1030 
1030 1030 1030 1030 1030 1030 1030 1030 1030 
1030 1030 1030 1030 1030 1030 1030 1030 1030 
1030 1030 1030 1030 1030 1030 1030 1030 1030 
1030 1030 1030 1030 1030 1030 1030 1030 1030 
1030 1030 1030 1030 1030 1030 1030 1030 1030 
1030 1030 1030 1030 1030 1030 1030 1030 1030 
1030 1030 1030 1030 1030 1030 1030 1030 1030 
1030 1030 1030 1030 1030 1030 1030 1030 1030 
1030 1030 1030 1030 1030 1030 1030 1030 1030 
1030 1030 1030 1030 1030 1030 1030 1030 1030 
1030 1030 1030 1030 1030 1030 1030 1030 1030 
1030 1030 1030 1030 1030 1030 1030 1030 1030 
1030 1030 1030 1030 1030 1030 1030 1030 1030 
1030 1030 1030 1030 1030 1030 1030 1030 1030 
1030 1030 1030 1030 1030 1030 1030 1030 1030 
1030 1030 1030 1030 1030 1030 1030 1030 1030 
1030 1030 1030 1030 1030 1030 1030 1030 1030 
1030 1030 1030 1030 1030 1030 1030 1030 1030 
1030 1030 1030 1030 1030 1030 1030 1030 1030 
1030 1030 1030 1030 1030 1030 1030 1030 1030 
1030 1030 1030 1030 1030 1030 1030 1030 1030 
1030 1030 1030 1030 1030 1030 1030 1030 1030 
1030 1030 1030 1030 1030 1030 1030 1030 1030 
1030 1030 1030 1030 1030 1030 1030 1030 1030 
1030 1030 1030 1030 1030 1030 1030 1030 1030 
1030 1030 1030 1030 1030 1030 1030 1030 1030 
1030 1030 1030 1030 1030 1030 1030 1030 1030 
1030 1030 1030 1030 1030 1030 1030 1030 1030 
1030 1030 1030 1030 1030 1030 1030 1030 1030 
1030 1030 1030 1030 1030 1030 1030 1030 1030 
1030 1030 1030 1030 1030 1030 1030 1030 1030 
1030 1030 1030 1030 1030 1030 1030 1030 1030 
1030 1030 1030 1030 1030 1030 1030 1030 1030 
1030 1030 1030 1030 1030 1030 1030 1030 1030 
1030 1030 1030 1030 1030 1030 1030 1030 1030 
1030 1030 1030 1030 1030 1030 1030 1030 1030 
1030 1030 1030 1030 1030 1030 1030 1030 1030 
1030 1030 1030 1030 1030 1030 1030 1030 1030 
1030 1030 1030 1030 1030 1030 1030 1030 1030 
1030 1030 1030 1030 1030 1030 1030 1030 1030 
1030 1030 1030 1030 1030 1030 1030 1030 1030 
1030 1030 1030 1030 1030 1030 1030 1030 1030 
1030 1030 1030 1030 1030 1030 1030 1030 1030 
1030 1030 1030 1030 1030 1030 1030 1030 1030 
1030 1030 1030 1030 1030 1030 1030 1030 1030 
1030 1030 1030 1030 1030 1030 1030 1030 1030 
1030 1030 1030 1030 1030 1030 1030 1030 1030 
1030 1030 1030 1030 1030 1030 1030 1030 1030 
1030 1030 1030 1030 1030 1030 1030 1030 1030 
1030 1030 1030 1030 1030 1030 1030 1030 1030 
1030 1030 1030 1030 1030 1030 1030 1030 1030 
1030 1030 1030 1030 1030 1030 1030 1030 1030 
1030 1030 1030 1030 1030 1030 1030 1030 1030 
1030 1030 1030 1030 1030 1030 1030 1030 1030 
1030 1030 1030 1030 1030 1030 1030 1030 1030 
1030 1030 1030 1030 1030 1030 1030 1030 1030 
1030 1030 1030 1030 1030 1030 1030 1030 1030 
1030 1030 1030 1030 1030 1030 1030 1030 1030 
1030 1030 1030 1030 1030 1030 1030 1030 1030 
1030 1030 1030 1030 1030 1030 1030 1030 1030 
1030 1030 1030 1030 1030 1030 1030 1030 1030 
1030 1030 1030 1030 1030 1030 1030 1030 1030 
1030 1030 1030 1030 1030 1030 1030 1030 1030 
1030 1030 1030 1030 1030 1030 1030 1030 1030 
1030 1030 1030 1030 1030 1030 1030 1030 1030 
1030 1030 1030 1030 1030 1030 1030 1030 1030 
1030 1030 1030 1030 1030 1030 1030 1030 1030 
1030 1030 1030 1030 1030 1030 1030 1030 1030 
1030 1030 1030 1030 1030 1030 1030 1030 1030 
1030 1030 1030 1030 1030 1030 1030 1030 1030 
1030 1030 1030 1030 1030 1030 1030 1030 1030 
1030 1030 1030 1030 1030 1030 1030 1030 1030 
1030 1030 1030 1030 1030 1030 1030 1030 1030 
1030 1030 1030 1030 1030 1030 1030 1030 1030 
1030 1030 1030 1030 1030 1030 1030 1030 1030 
1030 1030 1030 1030 1030 1030 1030 1030 1030 
1030 1030 1030 1030 1030 1030 1030 1030 1030 
1030 1030 1030 1030 1030 1030 1030 1030 1030 
1030 1030 1030 1030 1030 1030 1030 1030 1030 
1030 1030 1030 1030 1030 1030 1030 1030 1030 
1030 1030 1030 1030 1030 1030 1030 1030 1030 
1030 1030 1030 1030 1030 1030 1030 1030 1030 
1030 1030 1030 1030 1030 1030 1030 1030 1030 
1030 1030 1030 1030 1030 1030 1030 1030 1030 
1030 1030 1030 1030 1030 1030 1030 1030 1030 
1030 1030 1030 1030 1030 1030 1030 1030 1030 
1030 1030 1030 1030 1030 1030 1030 1030 1030 
1030 1030 1030 1030 1030 1030 1030 1030 1030 
1030 1030 1030 1030 1030 1030 1030 1030 1030 
1030 1030 1030 1030 1030 1030 1030 1030 1030 
1030 1030 1030 1030 1030 1030 1030 1030 1030 
1030 1030 1030 1030 1030 1030 1030 1030 1030 
1030 1030 1030 1030 1030 1030 1030 1030 1030 
1030 1030 1030 1030 1030 1030 1030 1030 1030 
1030 1030 1030 1030 1030 1030 1030 1030 1030 
1030 1030 1030 1030 1030 1030 1030 1030 1030 
1030 1030 1030 1030 1030 1030 1030 1030 1030 
1030 1030 1030 1030 1030 1030 1030 1030 1030 
1030 1030 1030 1030 1030 1030 1030 1030 1030 
1030 1030 1030 1030 1030 1030 1030 1030 1030 
1030 1030 1030 1030 1030 1030 1030 1030 1030 
1030 1030 1030 1030 1030 1030 1030 1030 1030 
1030 1030 1030 1030 1030 1030 1030 1030 1030 
1030 1030 1030 1030 1030 1030 1030 1030 1030 
1030 1030 1030 1030 1030 1030 1030 1030 1030 
1030 1030 1030 1030 1030 1030 1030 1030 1030 
1030 1030 1030 1030 1030 1030 1030 1030 1030 
1030 1030 1030 1030 1030 1030 1030 1030 1030 
1030 1030 1030 1030 1030 1030 1030 1030 1030 
1030 1030 1030 1030 1030 1030 1030 1030 1030 
1030 1030 1030 1030 1030 1030 1030 1030 1030 
1030 1030 1030 1030 1030 1030 1030 1030 1030 
1030 1030 1030 1030 1030 1030 1030 1030 1030 
1030 1030 1030 1030 1030 1030 1030 1030 1030 
1030 1030 1030 1030 1030 1030 1030 1030 1030 
1030 1030 1030 1030 1030 1030 1030 1030 1030 
1030 1030 1030 1030 1030 1030 1030 1030 1030 
1030 1030 1030 1030 1030 1030 1030 1030 1030 
1030 1030 1030 1030 1030 1030 1030 1030 1030 
1030 1030 1030 1030 1030 1030 1030 1030 1030 
1030 1030 1030 1030 1030 1030 1030 1030 1030 
1030 1030 1030 1030 1030 1030 1030 1030 1030 
1030 1030 1030 1030 1030 1030 1030 1030 1030 
1030 1030 1030 1030 1030 1030 1030 1030 1030 
1030 1030 1030 1030 1030 1030 1030 1030 1030 
1030 1030 1030 1030 1030 1030 1030 1030 1030 
1030 1030 1030 1030 1030 1030 1030 1030 1030 
1030 1030 1030 1030 1030 1030 1030 1030 1030 
1030 1030 1030 1030 1030 1030 1030 1030 1030 
1030 1030 1030 1030 1030 1030 1030 1030 1030 
1030 1030 1030 1030 1030 1030 1030 1030 1030 
1030 1030 1030 1030 1030 1030 1030 1030 1030 
1030 1030 1030 1030 1030 1030 1030 1030 1030 
1030 1030 1030 1030 1030 1030 1030 1030 1030 
1030 1030 1030 1030 1030 1030 1030 1030 1030 
1030 1030 1030 1030 1030 1030 1030 1030 1030 
1030 1030 1030 1030 1030 1030 1030 1030 1030 
1030 1030 1030 1030 1030 1030 1030 1030 1030 
1030 1030 1030 1030 1030 1030 1030 1030 1030 
1030 1030 1030 1030 1030 1030 1030 1030 1030 
1030 1030 1030 1030 1030 1030 1030 1030 1030 
1030 1030 1030 1030 1030 1030 1030 1030 1030 
1030 1030 1030 1030 1030 1030 1030 1030 1030 
1030 1030 1030 1030 1030 1030 1030 1030 1030 
1030 1030 1030 1030 1030 1030 1030 1030 1030 
1030 1030 1030 1030 1030 1030 1030 1030 1030 
1030 1030 1030 1030 1030 1030 1030 1030 1030 
1030 1030 1030 1030 1030 1030 1030 1030 1030 
1030 1030 1030 1030 1030 1030 1030 1030 1030 
1030 1030 1030 1030 1030 1030 1030 1030 1030 
1030 1030 1030 1030 1030 1030 1030 1030 1030 
1030 1030 1030 1030 1030 1030 1030 1030 1030 
1030 1030 1030 1030 1030 1030 1030 1030 1030 
1030 1030 1030 1030 1030 1030 1030 1030 1030 
1030 1030 1030 1030 1030 1030 1030 1030 1030 
1030 1030 1030 1030 1030 1030 1030 1030 1030 
1030 1030 1030 1030 1030 1030 1030 1030 1030 
1030 1030 1030 1030 1030 1030 1030 1030 1030 
1030 1030 1030 1030 1030 1030 1030 1030 1030 
1030 1030 1030 1030 1030 1030 1030 1030 1030 
1030 1030 1030 1030 1030 1030 1030 1030 1030 
1030 1030 1030 1030 1030 1030 1030 1030 1030 
1030 1030 1030 1030 1030 1030 1030 1030 1030 
1030 1030 1030 1030 1030 1030 1030 1030 1030 
1030 1030 1030 1030 1030 1030 1030 1030 1030 
1030 1030 1030 1030 1030 1030 1030 1030 1030 
1030 1030 1030 1030 1030 1030 1030 1030 1030 
1030 1030 1030 1030 1030 1030 1030 1030 1030 
1030 1030 1030 1030 1030 1030 1030 1030 1030 
1030 1030 1030 1030 1030 1030 1030 1030 1030 
1030 1030 1030 1030 1030 1030 1030 1030 1030 
1030 1030 1030 1030 1030 1030 1030 1030 1030 
1030 1030 1030 1030 1030 1030 1030 1030 1030 
1030 1030 1030 1030 1030 1030 1030 1030 1030 
1030 1030 1030 1030 1030 1030 1030 1030 1030 
1030 1030 1030 1030 1030 1030 1030 1030 1030 
1030 1030 1030 1030 1030 1030 1030 1030 1030 
1030 1030 1030 1030 1030 1030 1030 1030 1030 
1030 1030 1030 1030 1030 1030 1030 1030 1030 
1030 1030 1030 1030 1030 1030 1030 1030 1030 
1030 1030 1030 1030 1030 1030 1030 1030 1030 
1030 1030 1030 1030 1030 1030 1030 1030 1030 
1030 1030 1030 1030 1030 1030 1030 1030 1030 
1030 1030 1030 1030 1030 1030 1030 1030 1030 
1030 1030 1030 1030 1030 1030 1030 1030 1030 
1030 1030 1030 1030 1030 1030 1030 1030 1030 
1030 1030 1030 1030 1030 1030 1030 1030 1030 
1030 1030 1030 1030 1030 1030 1030 1030 1030 
1030 1030 1030 1030 1030 1030 1030 1030 1030 
1030 1030 1030 1030 1030 1030 1030 1030 1030 
1030 1030 1030 1030 1030 1030 1030 1030 1030 
1030 1030 1030 1030 1030 1030 1030 1030 1030 
1030 1030 1030 1030 1030 1030 1030 1030 1030 
1030 1030 1030 1030 1030 1030 1030 1030 1030 
1030 1030 1030 1030 1030 1030 1030 1030 1030 
1030 1030 1030 1030 1030 1030 1030 1030 1030 
1030 1030 1030 1030 1030 1030 1030 1030 1030 
1030 1030 1030 1030 1030 1030 1030 1030 1030 
1030 1030 1030 1030 1030 1030 1030 1030 1030 
1030 1030 1030 1030 1030 1030 1030 1030 1030 
1030 1030 1030 1030 1030 1030 1030 1030 1030 
1030 1030 1030 1030 1030 1030 1030 1030 1030 
1030 1030 1030 1030 1030 1030 1030 1030 1030 
1030 1030 1030 1030 1030 1030 1030 1030 1030 
1030 1030 1030 1030 1030 1030 1030 1030 1030 
1030 1030 1030 1030 1030 1030 1030 1030 1030 
1030 1030 1030 1030 1030 1030 1030 1030 1030 
1030 1030 1030 1030 1030 1030 1030 1030 1030 
1030 1030 1030 1030 1030 1030 1030 1030 1030 
1030 1030 1030 1030 1030 1030 1030 1030 1030 
1030 1030 1030 1030 1030 1030 1030 1030 1030 
1030 1030 1030 1030 1030 1030 1030 1030 1030 
1030 1030 1030 1030 1030 1030 1030 1030 1030 
1030 1030 1030 1030 1030 1030 1030 1030 1030 
1030 1030 1030 1030 1030 1030 1030 1030 1030 
1030 1030 1030 1030 1030 1030 1030 1030 1030 
1030 1030 1030 1030 1030 1030 1030 1030 1030 
1030 1030 1030 1030 1030 1030 1030 1030 1030 
1030 1030 1030 1030 1030 1030 1030 1030 1030 
1030 1030 1030 1030 1030 1030 1030 1030 1030 
1030 1030 1030 1030 1030 1030 1030 1030 1030 
1030 1030 1030 1030 1030 1030 1030 1030 1030 
1030 1030 1030 1030 1030 1030 1030 1030 1030 
1030 1030 1030 1030 1030 1030 1030 1030 1030 
1030 1030 1030 1030 1030 1030 1030 1030 1030 
1030 1030 1030 1030 1030 1030 1030 1030 1030 
1030 1030 1030 1030 1030 1030 1030 1030 1030 
1030 1030 1030 1030 1030 1030 1030 1030 1030 
1030 1030 1030 1030 1030 1030 1030 1030 1030 
1030 1030 1030 1030 1030 1030 1030 1030 1030 
1030 1030 1030 1030 1030 1030 1030 1030 1030 
1030 1030 1030 1030 1030 1030 1030 1030 1030 
1030 1030 1030 1030 1030 1030 1030 1030 1030 
1030 1030 1030 1030 1030 1030 1030 1030 1030 
1030 1030 1030 1030 1030 1030 1030 1030 1030 
1030 1030 1030 1030 1030 1030 1030 1030 1030 
1030 1030 1030 1030 1030 1030 1030 1030 1030 
1030 1030 1030 1030 1030 1030 1030 1030 1030 
1030 1030 1030 1030 1030 1030 1030 1030 1030 
1030 1030 1030 1030 1030 1030 1030 1030 1030 
1030 1030 1030 1030 1030 1030 1030 1030 1030 
1030 1030 1030 1030 1030 1030 1030 1030 1030 
1030 1030 1030 1030 1030 1030 1030 1030 1030 
1030 1030 1030 1030 1030 1030 1030 1030 1030 
1030 1030 1030 1030 1030 1030 1030 1030 1030 
1030 1030 1030 1030 1030 1030 1030 1030 1030 
1030 1030 1030 1030 1030 1030 1030 1030 1030 
1030 1030 1030 1030 1030 1030 1030 1030 1030 
1030 1030 1030 1030 1030 1030 1030 1030 1030 
1030 1030 1030 1030 1030 1030 1030 1030 1030 
1030 1030 1030 1030 1030 1030 1030 1030 1030 
1030 1030 1030 1030 1030 1030 1030 1030 1030 
1030 1030 1030 1030 1030 1030 1030 1030 1030 
1030 1030 1030 1030 1030 1030 1030 1030 1030 
1030 1030 1030 1030 1030 1030 1030 1030 1030 
1030 1030 1030 1030 1030 1030 1030 1030 1030 
1030 1030 1030 1030 1030 1030 1030 1030 1030 
1030 1030 1030 1030 1030 1030 1030 1030 1030 
1030 1030 1030 1030 1030 1030 1030 1030 1030 
1030 1030 1030 1030 1030 1030 1030 1030 1030 
1030 1030 1030 1030 1030 1030 1030 1030 1030 
1030 1030 1030 1030 1030 1030 1030 1030 1030 
1030 1030 1030 1030 1030 1030 1030 1030 1030 
1030 1030 1030 1030 1030 1030 1030 1030 1030 
1030 1030 1030 1030 1030 1030 1030 1030 1030 
1030 1030 1030 1030 1030 1030 1030 1030 1030 
1030 1030 1030 1030 1030 1030 1030 1030 1030 
1030 1030 1030 1030 1030 1030 1030 1030 1030 
1030 1030 1030 1030 1030 1030 1030 1030 1030 
1030 1030 1030 1030 1030 1030 1030 1030 1030 
1030 1030 1030 1030 1030 1030 1030 1030 1030 
1030 1030 1030 1030 1030 1030 1030 1030 1030 
1030 1030 1030 1030 1030 1030 1030 1030 1030 
1030 1030 1030 1030 1030 1030 1030 1030 1030 
1030 1030 1030 1030 1030 1030 1030 1030 1030 
1030 1030 1030 1030 1030 1030 1030 1030 1030 
1030 1030 1030 1030 1030 1030 1030 1030 1030 
1030 1030 1030 1030 1030 1030 1030 1030 1030 
1030 1030 1030 1030 1030 1030 1030 1030 1030 
1030 1030 1030 1030 1030 1030 1030 1030 1030 
1030 1030 1030 1030 1030 1030 1030 1030 1030 
1030 1030 1030 1030 1030 1030 1030 1030 1030 
1030 1030 1030 1030 1030 1030 1030 1030 1030 
1030 1030 1030 1030 1030 1030 1030 1030 1030 
1030 1030 1030 1030 1030 1030 1030 1030 1030 
1030 1030 1030 1030 1030 1030 1030 1030 1030 
1030 1030 1030 1030 1030 1030 1030 1030 1030 
1030 1030 1030 1030 1030 1030 1030 1030 1030 
1030 1030 1030 1030 1030 1030 1030 1030 1030 
1030 1030 1030 1030 1030 1030 1030 1030 1030 
1030 1030 1030 1030 1030 1030 1030 1030 1030 
1030 1030 1030 1030 1030 1030 1030 1030 1030 
1030 1030 1030 1030 1030 1030 1030 1030 1030 
1030 1030 1030 1030 1030 1030 1030 1030 1030 
1030 1030 1030 1030 1030 1030 1030 1030 1030 
1030 1030 1030 1030 1030 1030 1030 1030 1030 
1030 1030 1030 1030 1030 1030 1030 1030 1030 
1030 1030 1030 1030 1030 1030 1030 1030 1030 
1030 1030 1030 1030 1030 1030 1030 1030 1030 
1030 1030 1030 1030 1030 1030 1030 1030 1030 
1030 1030 1030 1030 1030 1030 1030 1030 1030 
1030 1030 1030 1030 1030 1030 1030 1030 1030 
1030 1030 1030 1030 1030 1030 1030 1030 1030 
1030 1030 1030 1030 1030 1030 1030 1030 1030 
1030 1030 1030 1030 1030 1030 1030 1030 1030 
1030 1030 1030 1030 1030 1030 1030 1030 1030 
1030 1030 1030 1030 1030 1030 1030 1030 1030 
1030 1030 1030 1030 1030 1030 1030 1030 1030 
1030 1030 1030 1030 1030 1030 1030 1030 1030 
1030 1030 1030 1030 1030 1030 1030 1030 1030 
1030 1030 1030 1030 1030 1030 1030 1030 1030 
1030 1030 1030 1030 1030 1030 1030 1030 1030 
1030 1030 1030 1030 1030 1030 1030 1030 1030 
1030 1030 1030 1030 1030 1030 1030 1030 1030 
1030 1030 1030 1030 1030 1030 1030 1030 1030 
1030 1030 1030 1030 1030 1030 1030 1030 1030 
1030 1030 1030 1030 1030 1030 1030 1030 1030 
1030 1030 1030 1030 1030 1030 1030 1030 1030 
1030 1030 1030 1030 1030 1030 1030 1030 1030 
1030 1030 1030 1030 1030 1030 1030 1030 1030 
1030 1030 1030 1030 1030 1030 1030 1030 1030 
1030 1030 1030 1030 1030 1030 1030 1030 1030 
1030 1030 1030 1030 1030 1030 1030 1030 1030 
1030 1030 1030 1030 1030 1030 1030 1030 1030 
1030 1030 1030 1030 1030 1030 1030 1030 1030 
1030 1030 1030 1030 1030 1030 1030 1030 1030 
1030 1030 1030 1030 1030 1030 1030 1030 1030 
1030 1030 1030 1030 1030 1030 1030 1030 1030 
1030 1030 1030 1030 1030 1030 1030 1030 1030 
1030 1030 1030 1030 1030 1030 1030 1030 1030 
1030 1030 1030 1030 1030 1030 1030 1030 1030 
1030 1030 1030 1030 1030 1030 1030 1030 1030 
1030 1030 1030 1030 1030 1030 1030 1030 1030 
1030 1030 1030 1030 1030 1030 1030 1030 1030 
1030 1030 1030 1030 1030 1030 1030 1030 1030 
1030 1030 1030 1030 1030 1030 1030 1030 1030 
1030 1030 1030 1030 1030 1030 1030 1030 1030 
1030 1030 1030 1030 1030 1030 1030 1030 1030 
1030 1030 1030 1030 1030 1030 1030 1030 1030 
1030 1030 1030 1030 1030 1030 1030 1030 1030 
1030 1030 1030 1030 1030 1030 1030 1030 1030 
1030 1030 1030 1030 1030 1030 1030 1030 1030 
1030 1030 1030 1030 1030 1030 1030 1030 1030 
1030 1030 1030 1030 1030 1030 1030 1030 1030 
1030 1030 1030 1030 1030 1030 1030 1030 1030 
1030 1030 1030 1030 1030 1030 1030 1030 1030 
1030 1030 1030 1030 1030 1030 1030 1030 1030 
1030 1030 1030 1030 1030 1030 1030 1030 1030 
1030 1030 1030 1030 1030 1030 1030 1030 1030 
1030 1030 1030 1030 1030 1030 1030 1030 1030 
1030 1030 1030 1030 1030 1030 1030 1030 1030 
1030 1030 1030 1030 1030 1030 1030 1030 1030 
1030 1030 1030 1030 1030 1030 1030 1030 1030 
1030 1030 1030 1030 1030 1030 1030 1030 1030 
1030 1030 1030 1030 1030 1030 1030 1030 1030 
1030 1030 1030 1030 1030 1030 1030 1030 1030 
1030 1030 1030 1030 1030 1030 1030 1030 1030 
1030 1030 1030 1030 1030 1030 1030 1030 1030 
1030 1030 1030 1030 1030 1030 1030 1030 1030 
1030 1030 1030 1030 1030 1030 1030 1030 1030 
1030 1030 1030 1030 1030 1030 1030 1030 1030 
1030 1030 1030 1030 1030 1030 1030 1030 1030 
1030 1030 1030 1030 1030 1030 1030 1030 1030 
1030 1030 1030 1030 1030 1030 1030 1030 1030 
1030 1030 1030 1030 1030 1030 1030 1030 1030 
1030 1030 1030 1030 1030 1030 1030 1030 1030 
1030 1030 1030 1030 1030 1030 1030 1030 1030 
1030 1030 1030 1030 1030 1030 1030 1030 1030 
1030 1030 1030 1030 1030 1030 1030 1030 1030 
1030 1030 1030 1030 1030 1030 1030 1030 1030 
1030 1030 1030 1030 1030 1030 1030 1030 1030 
1030 1030 1030 1030 1030 1030 1030 1030 1030 
1030 1030 1030 1030 1030 1030 1030 1030 1030 