# vtk DataFile Version 4.2
vtk output
ASCII
DATASET POLYDATA
POINTS 2942 float
3.02949 53.7264 10.5086 3.36084 53.4754 10.7599 3.68285 53.3852 10.3509 
2.48854 53.7199 10.4049 2.58216 53.5478 10.8635 1.90426 53.3507 10.3846 
3.07586 53.3275 10.1131 2.34306 53.4734 10.1532 3.16604 52.8496 17.3138 
3.27032 52.5191 17.9219 3.83692 52.5149 17.5431 2.07316 52.891 17.3847 
2.59885 52.5292 18.0496 1.28467 52.7838 17.2861 1.62969 52.5326 17.9879 
0.934512 52.456 17.5975 5.18207 52.8385 16.3013 5.25062 52.5306 16.9005 
5.81541 52.5036 16.5019 4.08513 52.8898 16.5808 4.66122 52.5232 17.1005 
3.18698 53.0103 16.3655 2.30368 53.0344 16.5022 1.20402 52.9307 16.4123 
0.679922 52.555 16.7845 6.14885 52.8419 15.4466 6.49286 52.4398 15.9472 
6.94075 52.585 15.3669 5.20044 52.9961 15.353 4.35031 52.9967 15.5134 
3.35134 52.9989 15.5162 2.34301 53.0296 15.5015 1.30897 53.0406 15.4559 
0.40365 52.6299 15.9978 0.415514 52.8284 15.3584 -0.0466799 52.263 15.5956 
8.2054 52.8488 14.2655 8.29317 52.4971 14.8747 8.97464 52.2756 14.2565 
7.07842 52.8914 14.5635 7.66721 52.5349 15.0876 6.17495 52.9854 14.3638 
5.34827 52.9907 14.5057 4.35668 52.9898 14.5082 3.3486 52.9754 14.4978 
2.3223 52.9857 14.4836 1.28503 53.0153 14.4495 0.385186 52.8961 14.4494 
-0.248749 52.3357 14.6953 9.06502 52.7842 13.5671 9.44196 52.5236 13.7799 
9.50862 52.5261 13.5062 8.22523 53.0765 13.2992 7.33457 53.0578 13.469 
6.31608 53.0044 13.4894 5.32112 52.9752 13.4788 4.31299 52.9522 13.493 
3.3024 52.9424 13.4832 2.29087 52.9558 13.4693 1.24765 52.9981 13.4465 
0.170372 52.9289 13.3724 -0.352898 52.5532 13.749 9.09064 52.3305 13.1027 
8.59587 52.3117 12.5469 8.42849 52.8583 12.5818 7.40721 53.0896 12.4193 
6.31934 53.0443 12.4088 5.27767 52.9794 12.4319 4.26624 52.9525 12.4568 
3.24475 52.9562 12.4618 2.24472 52.9552 12.4576 1.24716 52.9918 12.462 
0.232574 53.0309 12.4245 -0.638491 52.6373 13.0015 -0.636527 52.8455 12.3431 
-1.08812 52.2973 12.6155 8.0597 52.315 12.0722 7.57247 52.3487 11.5464 
7.55996 52.8444 11.7078 6.4549 52.9229 11.3987 5.31974 53.0013 11.3963 
4.42078 52.9861 11.5782 3.38022 53.1274 11.4375 2.1633 53.1284 11.3778 
1.19852 53.0137 11.441 0.391314 53.0295 11.6018 -0.456166 52.8902 11.3589 
-1.1076 52.3244 11.5856 6.97213 52.4434 11.2167 6.1272 52.3733 10.8718 
5.58079 52.2885 10.5223 5.51796 52.7801 10.6762 4.36017 53.019 10.6634 
1.13885 53.09 10.4172 0.2334 52.9408 10.5269 -0.423676 52.5112 10.3203 
-0.854629 52.4121 10.8225 4.97602 52.4236 10.2218 4.0866 52.7236 10.0597 
3.28934 52.4051 9.78953 2.26358 52.8846 9.82511 1.35454 52.9064 9.67497 
1.81811 52.3933 9.3432 0.559807 52.8297 9.56222 -0.0345777 52.5546 9.63924 
1.04352 52.2877 9.0711 0.249478 52.3078 9.13508 3.22158 52.0211 18.3459 
3.22011 51.5123 18.8793 3.8046 51.5012 18.5011 2.03936 52.0113 18.5641 
2.40041 51.3788 19.0252 0.954371 52.0171 18.3564 1.23836 51.3757 18.925 
0.194694 51.7522 18.2845 0.432533 51.4846 18.7826 -0.0581187 51.2394 18.5234 
5.2207 52.0129 17.291 5.292 51.2561 17.6854 5.75486 51.5151 17.2983 
4.22457 52.0163 17.7732 4.64766 51.3095 18.0185 0.319154 52.0411 17.3738 
-0.160851 51.3498 17.7513 7.20292 51.8157 16.3883 7.32388 51.1556 16.8281 
7.87938 51.5929 16.3512 6.28409 52.0237 16.6209 6.39977 51.3769 16.9975 
0.169184 52.2229 16.3444 -0.142253 51.529 16.532 8.19198 52.0088 15.4804 
8.32494 51.5535 16.0285 8.84096 51.521 15.5212 7.13508 52.2216 15.7809 
-0.352373 51.4023 15.4586 9.14245 51.7773 14.736 9.34208 51.4881 14.9851 
9.56607 51.3669 14.482 -0.668386 51.592 14.7569 -0.773882 51.9519 14.0942 
-0.997382 51.2568 14.4547 9.35211 52.2403 13.6221 9.28424 51.6232 14.0456 
8.99805 51.654 13.4235 -0.867993 52.2158 13.3438 -1.16469 51.4876 13.5581 
8.52272 51.6992 12.7702 8.29576 51.947 12.4517 7.92793 51.5151 12.2796 
-1.287 51.5245 12.4498 9.06402 51.8122 11.1962 9.32196 51.5575 11.7611 
9.64755 51.5516 11.3699 8.84795 51.4682 11.6365 7.47421 51.7039 11.764 
7.12174 51.9005 11.3965 6.85643 51.3603 11.3088 -1.27868 51.3932 11.5783 
9.31218 51.8309 10.6593 9.66993 51.3309 10.6786 8.41169 51.5955 11.0131 
8.62436 51.7818 10.4563 7.92143 51.2782 10.3255 6.31676 51.6447 10.9528 
5.54343 51.7171 10.6793 5.12902 51.8673 10.3667 4.88054 51.3748 10.2743 
-0.731397 51.9745 10.2056 -1.12343 51.4761 10.609 8.9804 51.4944 10.145 
8.38779 51.4542 10.0375 4.28595 51.7833 9.86936 3.38021 51.7671 9.48287 
3.86285 51.2644 9.32644 2.60478 52.06 9.40854 -0.359184 51.6246 9.3664 
-0.833362 51.3687 9.78293 3.18747 51.3113 9.09621 2.09411 51.5612 8.89395 
1.0827 51.5594 8.72202 0.350606 51.6037 8.81578 3.21009 50.9988 19.2828 
3.38417 50.4473 19.7933 3.90575 50.5912 19.2959 2.22052 50.8249 19.431 
2.35048 50.2861 19.9641 1.6757 50.2952 19.5493 4.13708 50.9261 18.71 
4.32302 50.5127 18.9467 4.69164 50.5525 18.5295 1.33104 50.6004 19.1844 
0.379835 50.7677 18.893 -0.157415 50.4826 18.3749 5.21723 50.5388 18.0615 
5.74785 50.6168 17.5687 -0.26338 50.4968 17.4597 8.38355 51.1392 16.3553 
8.03587 50.333 16.8298 8.83416 50.5404 16.3794 7.11206 50.3098 16.9998 
6.39844 50.4817 17.1362 -0.240011 50.4972 16.4351 9.36084 51.0217 15.4875 
9.48852 50.1786 15.9832 9.94139 50.595 15.3926 -0.434449 50.3074 15.7351 
10.0697 50.888 14.5505 10.4283 50.3966 15.1026 10.686 50.3784 14.4119 
-0.748677 50.8114 15.0691 -1.13894 50.3863 14.5758 10.2127 50.7644 13.5308 
10.6759 50.1532 13.598 9.45601 51.1504 13.5338 -1.29573 50.4697 13.5064 
10.1324 50.3424 12.9605 9.91443 50.3859 12.3956 9.4555 51.036 12.3172 
8.41486 51.1267 12.5352 -1.2951 50.4812 12.4592 10.1484 50.8237 11.4982 
10.2421 50.3677 11.8869 10.5322 50.4487 11.4765 8.10886 51.1465 11.437 
7.33696 51.0947 11.533 -1.28953 50.4728 11.4443 10.3747 50.4696 11.2569 
9.77231 50.5567 10.9278 9.20475 50.9208 10.2944 8.95563 50.3731 10.498 
7.25656 50.9928 10.58 6.40359 50.9076 10.3272 5.3564 51.1264 10.3161 
-1.25681 50.3333 10.5815 8.31827 50.8125 9.92405 7.30124 50.7525 9.66903 
7.67871 50.3613 9.48603 6.82207 50.5011 9.48605 6.25691 50.4073 9.69742 
5.66674 50.3149 9.49894 5.43405 50.6888 9.65568 4.60083 50.9701 9.58466 
-0.755705 51.004 9.36821 -1.01772 50.5958 9.73273 7.24921 50.4035 9.22928 
5.01915 50.4827 9.22302 4.19107 50.6033 9.1006 3.15002 50.5419 8.94071 
2.36084 50.8705 8.47456 2.75692 50.3694 8.55878 1.52566 51.0659 8.41636 
0.596363 50.9864 8.38885 -0.139631 50.4516 8.52238 -0.628424 50.5029 9.14399 
2.21967 50.3055 8.07469 1.11917 50.6136 8.14957 0.408924 50.2132 7.87752 
4.0747 49.7519 20.4869 4.30937 49.3041 21.014 4.6266 49.3508 20.3978 
3.18674 49.9988 20.3674 3.57836 49.4996 21.0185 2.35758 49.8927 20.4773 
2.61567 49.53 20.9135 1.90206 49.5568 20.5403 4.30487 50.084 19.5421 
4.94992 49.384 19.5605 1.08322 49.8567 19.396 1.25063 49.4474 19.96 
0.651173 49.2646 19.4995 5.09864 49.901 18.7224 5.34488 49.2492 19.035 
5.58184 49.5206 18.3115 0.389759 49.7937 19.0276 -0.157089 49.3949 18.5099 
5.93382 49.5193 17.5967 -0.230855 49.4983 17.434 8.00742 49.302 16.7556 
8.70337 49.813 16.4954 7.40771 49.6147 16.9674 6.57561 49.4039 17.1442 
-0.298518 49.3362 16.3342 10.2061 50.0987 15.6089 10.2281 49.275 15.8352 
10.828 49.7329 15.1468 9.10718 49.2768 16.1071 -0.624763 49.6063 15.758 
-0.808747 50.0404 15.36 -1.0008 49.3311 15.1653 10.9815 49.7644 14.2874 
6.16655 49.876 14.2969 6.88544 49.6415 14.396 6.50801 49.2795 14.8114 
5.62878 49.3739 15.0234 5.08561 49.9171 14.3885 4.58969 49.5611 15.0692 
4.02515 49.9462 14.4011 3.51902 49.5551 15.0573 2.96605 49.9192 14.3575 
2.51994 49.401 14.7794 2.19792 49.7989 14.1992 1.99665 49.4504 14.2346 
-1.26093 49.5587 14.3539 10.731 49.3501 13.7027 8.13841 49.7975 13.3116 
8.90005 49.5367 13.3544 8.48686 49.171 13.8101 7.62777 49.3476 14.1064 
7.03451 49.9234 13.6083 6.17097 50.0332 13.3811 5.32276 50.0483 13.4972 
4.2845 50.0697 13.4903 3.39651 50.075 13.6248 2.53443 49.8802 13.3913 
2.00861 49.6056 13.6866 -1.27213 49.4299 13.4879 10.3422 49.6969 13.208 
9.68204 49.6599 13.0463 9.27582 49.9578 12.4043 8.16436 49.9539 12.3735 
7.30945 49.9898 12.5469 6.33453 50.0068 12.5375 5.33224 50.0255 12.4921 
4.29006 50.0466 12.4529 3.2564 49.9383 12.5562 2.63304 49.3629 12.6141 
2.2624 49.3605 13.1938 -1.26955 49.4274 12.4422 10.1147 50.222 11.5238 
9.18741 50.0552 11.2404 8.33321 49.9087 11.4744 7.35677 49.9338 11.4941 
6.34433 49.9527 11.4691 5.30084 49.9609 11.459 4.24681 49.9899 11.4167 
3.33432 49.8644 11.4366 2.82392 49.3577 11.6899 -1.26495 49.4553 11.395 
8.19899 50.085 10.3314 7.49023 49.9126 10.5917 6.35541 50.0162 10.2289 
5.29356 49.9307 10.382 4.25295 49.9394 10.4061 3.34603 49.84 10.4155 
2.81776 49.3407 10.6522 -1.06984 49.5698 10.3599 7.16701 50.1459 9.66325 
5.19216 50.1274 9.48328 4.26351 50.0812 9.50527 3.47859 49.9719 9.61747 
2.9365 49.6126 9.39 -0.801896 49.8977 9.55298 -0.439343 49.4976 9.29447 
-0.681046 49.2917 9.98176 3.45419 49.1526 8.86704 3.72906 49.3602 8.37114 
3.0772 49.8744 8.48826 1.26207 49.894 8.19986 1.48573 49.4807 8.40247 
1.29224 49.4756 8.59902 1.09041 49.479 8.38617 -0.270364 49.2978 8.55138 
3.10029 49.4102 7.92078 2.51487 49.7338 7.52092 2.59841 49.3414 7.44962 
1.97442 49.5056 7.79931 0.599783 49.4667 7.74228 0.223466 49.7687 7.3436 
-0.0427561 49.5687 7.66666 2.37692 49.4799 7.30874 0.189543 49.4801 7.23418 
3.09574 48.8154 22.3015 3.53616 48.2072 22.8483 3.92081 48.5371 22.3901 
1.97319 48.8916 22.3394 2.43513 48.2837 23.0387 1.23566 48.7888 22.2508 
1.50224 48.5771 22.7652 1.00058 48.3133 22.5145 3.98434 48.938 21.7149 
4.32701 48.4991 22.0526 4.71926 48.5765 21.3178 3.1363 49.1745 21.5144 
2.19471 49.1347 21.4243 1.35384 48.8846 21.5037 0.732864 48.31 21.7534 
5.02312 48.7197 20.28 1.41703 49.0884 20.7162 0.738757 48.6082 20.6853 
5.24145 48.832 19.6126 5.44623 48.3686 19.9039 5.71549 48.5923 19.1103 
0.171469 48.9865 19.3021 0.425561 48.6962 19.8751 -0.0947251 48.3255 19.5146 
5.94525 48.6784 18.2137 -0.240866 48.4621 18.4742 6.14424 48.7986 17.5838 
6.38463 48.3145 17.8523 6.62208 48.5525 17.3528 -0.217801 48.4985 17.469 
8.43508 49.038 16.3769 7.88236 48.4843 16.6298 7.25452 48.7832 17.001 
[...]
CELL_DATA 5880
SCALARS scalars float
LOOKUP_TABLE default
2002 2002 2002 2002 2002 2002 2002 2002 2002 
2002 2002 2002 2002 2002 2002 2002 2002 2002 
2002 2002 2002 2002 2002 2002 2002 2002 2002 
2002 2002 2002 2002 2002 2002 2002 2002 2002 
2002 2002 2002 2002 2002 2002 2002 2002 2002 
2002 2002 2002 2002 2002 2002 2002 2002 2002 
2002 2002 2002 2002 2002 2002 2002 2002 2002 
2002 2002 2002 2002 2002 2002 2002 2002 2002 
2002 2002 2002 2002 2002 2002 2002 2002 2002 
2002 2002 2002 2002 2002 2002 2002 2002 2002 
2002 2002 2002 2002 2002 2002 2002 2002 2002 
2002 2002 2002 2002 2002 2002 2002 2002 2002 
2002 2002 2002 2002 2002 2002 2002 2002 2002 
2002 2002 2002 2002 2002 2002 2002 2002 2002 
2002 2002 2002 2002 2002 2002 2002 2002 2002 
2002 2002 2002 2002 2002 2002 2002 2002 2002 
2002 2002 2002 2002 2002 2002 2002 2002 2002 
2002 2002 2002 2002 2002 2002 2002 2002 2002 
2002 2002 2002 2002 2002 2002 2002 2002 2002 
2002 2002 2002 2002 2002 2002 2002 2002 2002 
2002 2002 2002 2002 2002 2002 2002 2002 2002 
2002 2002 2002 2002 2002 2002 2002 2002 2002 
2002 2002 2002 2002 2002 2002 2002 2002 2002 
2002 2002 2002 2002 2002 2002 2002 2002 2002 
2002 2002 2002 2002 2002 2002 2002 2002 2002 
2002 2002 2002 2002 2002 2002 2002 2002 2002 
2002 2002 2002 2002 2002 2002 2002 2002 2002 
2002 2002 2002 2002 2002 2002 2002 2002 2002 
2002 2002 2002 2002 2002 2002 2002 2002 2002 
2002 2002 2002 2002 2002 2002 2002 2002 2002 
2002 2002 2002 2002 2002 2002 2002 2002 2002 
2002 2002 2002 2002 2002 2002 2002 2002 2002 
2002 2002 2002 2002 2002 2002 2002 2002 2002 
2002 2002 2002 2002 2002 2002 2002 2002 2002 
2002 2002 2002 2002 2002 2002 2002 2002 2002 
2002 2002 2002 2002 2002 2002 2002 2002 2002 
2002 2002 2002 2002 2002 2002 2002 2002 2002 
2002 2002 2002 2002 2002 2002 2002 2002 2002 
2002 2002 2002 2002 2002 2002 2002 2002 2002 
2002 2002 2002 2002 2002 2002 2002 2002 2002 
2002 2002 2002 2002 2002 2002 2002 2002 2002 
2002 2002 2002 2002 2002 2002 2002 2002 2002 
2002 2002 2002 2002 2002 2002 2002 2002 2002 
2002 2002 2002 2002 2002 2002 2002 2002 2002 
2002 2002 2002 2002 2002 2002 2002 2002 2002 
2002 2002 2002 2002 2002 2002 2002 2002 2002 
2002 2002 2002 2002 2002 2002 2002 2002 2002 
2002 2002 2002 2002 2002 2002 2002 2002 2002 
2002 2002 2002 2002 2002 2002 2002 2002 2002 
2002 2002 2002 2002 2002 2002 2002 2002 2002 
2002 2002 2002 2002 2002 2002 2002 2002 2002 
2002 2002 2002 2002 2002 2002 2002 2002 2002 
2002 2002 2002 2002 2002 2002 2002 2002 2002 
2002 2002 2002 2002 2002 2002 2002 2002 2002 
2002 2002 2002 2002 2002 2002 2002 2002 2002 
2002 2002 2002 2002 2002 2002 2002 2002 2002 
2002 2002 2002 2002 2002 2002 2002 2002 2002 
2002 2002 2002 2002 2002 2002 2002 2002 2002 
2002 2002 2002 2002 2002 2002 2002 2002 2002 
2002 2002 2002 2002 2002 2002 2002 2002 2002 
2002 2002 2002 2002 2002 2002 2002 2002 2002 
2002 2002 2002 2002 2002 2002 2002 2002 2002 
2002 2002 2002 2002 2002 2002 2002 2002 2002 
2002 2002 2002 2002 2002 2002 2002 2002 2002 
2002 2002 2002 2002 2002 2002 2002 2002 2002 
2002 2002 2002 2002 2002 2002 2002 2002 2002 
2002 2002 2002 2002 2002 2002 2002 2002 2002 
2002 2002 2002 2002 2002 2002 2002 2002 2002 
2002 2002 2002 2002 2002 2002 2002 2002 2002 
2002 2002 2002 2002 2002 2002 2002 2002 2002 
2002 2002 2002 2002 2002 2002 2002 2002 2002 
2002 2002 2002 2002 2002 2002 2002 2002 2002 
2002 2002 2002 2002 2002 2002 2002 2002 2002 
2002 2002 2002 2002 2002 2002 2002 2002 2002 
2002 2002 2002 2002 2002 2002 2002 2002 2002 
2002 2002 2002 2002 2002 2002 2002 2002 2002 
2002 2002 2002 2002 2002 2002 2002 2002 2002 
2002 2002 2002 2002 2002 2002 2002 2002 2002 
2002 2002 2002 2002 2002 2002 2002 2002 2002 
2002 2002 2002 2002 2002 2002 2002 2002 2002 
2002 2002 2002 2002 2002 2002 2002 2002 2002 
2002 2002 2002 2002 2002 2002 2002 2002 2002 
2002 2002 2002 2002 2002 2002 2002 2002 2002 
2002 2002 2002 2002 2002 2002 2002 2002 2002 
2002 2002 2002 2002 2002 2002 2002 2002 2002 
2002 2002 2002 2002 2002 2002 2002 2002 2002 
2002 2002 2002 2002 2002 2002 2002 2002 2002 
2002 2002 2002 2002 2002 2002 2002 2002 2002 
2002 2002 2002 2002 2002 2002 2002 2002 2002 
2002 2002 2002 2002 2002 2002 2002 2002 2002 
2002 2002 2002 2002 2002 2002 2002 2002 2002 
2002 2002 2002 2002 2002 2002 2002 2002 2002 
2002 2002 2002 2002 2002 2002 2002 2002 2002 
2002 2002 2002 2002 2002 2002 2002 2002 2002 
2002 2002 2002 2002 2002 2002 2002 2002 2002 
2002 2002 2002 2002 2002 2002 2002 2002 2002 
2002 2002 2002 2002 2002 2002 2002 2002 2002 
2002 2002 2002 2002 2002 2002 2002 2002 2002 
2002 2002 2002 2002 2002 2002 2002 2002 2002 
2002 2002 2002 2002 2002 2002 2002 2002 2002 
2002 2002 2002 2002 2002 2002 2002 2002 2002 
2002 2002 2002 2002 2002 2002 2002 2002 2002 
2002 2002 2002 2002 2002 2002 2002 2002 2002 
2002 2002 2002 2002 2002 2002 2002 2002 2002 
2002 2002 2002 2002 2002 2002 2002 2002 2002 
2002 2002 2002 2002 2002 2002 2002 2002 2002 
2002 2002 2002 2002 2002 2002 2002 2002 2002 
2002 2002 2002 2002 2002 2002 2002 2002 2002 
2002 2002 2002 2002 2002 2002 2002 2002 2002 
2002 2002 2002 2002 2002 2002 2002 2002 2002 
2002 2002 2002 2002 2002 2002 2002 2002 2002 
2002 2002 2002 2002 2002 2002 2002 2002 2002 
2002 2002 2002 2002 2002 2002 2002 2002 2002 
2002 2002 2002 2002 2002 2002 2002 2002 2002 
2002 2002 2002 2002 2002 2002 2002 2002 2002 
2002 2002 2002 2002 2002 2002 2002 2002 2002 
2002 2002 2002 2002 2002 2002 2002 2002 2002 
2002 2002 2002 2002 2002 2002 2002 2002 2002 
2002 2002 2002 2002 2002 2002 2002 2002 2002 
2002 2002 2002 2002 2002 2002 2002 2002 2002 
2002 2002 2002 2002 2002 2002 2002 2002 2002 
2002 2002 2002 2002 2002 2002 2002 2002 2002 
2002 2002 2002 2002 2002 2002 2002 2002 2002 
2002 2002 2002 2002 2002 2002 2002 2002 2002 
2002 2002 2002 2002 2002 2002 2002 2002 2002 
2002 2002 2002 2002 2002 2002 2002 2002 2002 
2002 2002 2002 2002 2002 2002 2002 2002 2002 
2002 2002 2002 2002 2002 2002 2002 2002 2002 
2002 2002 2002 2002 2002 2002 2002 2002 2002 
2002 2002 2002 2002 2002 2002 2002 2002 2002 
2002 2002 2002 2002 2002 2002 2002 2002 2002 
2002 2002 2002 2002 2002 2002 2002 2002 2002 
2002 2002 2002 2002 2002 2002 2002 2002 2002 
2002 2002 2002 2002 2002 2002 2002 2002 2002 
2002 2002 2002 2002 2002 2002 2002 2002 2002 
2002 2002 2002 2002 2002 2002 2002 2002 2002 
2002 2002 2002 2002 2002 2002 2002 2002 2002 
2002 2002 2002 2002 2002 2002 2002 2002 2002 
2002 2002 2002 2002 2002 2002 2002 2002 2002 
2002 2002 2002 2002 2002 2002 2002 2002 2002 
2002 2002 2002 2002 2002 2002 2002 2002 2002 
2002 2002 2002 2002 2002 2002 2002 2002 2002 
2002 2002 2002 2002 2002 2002 2002 2002 2002 
2002 2002 2002 2002 2002 2002 2002 2002 2002 
2002 2002 2002 2002 2002 2002 2002 2002 2002 
2002 2002 2002 2002 2002 2002 2002 2002 2002 
2002 2002 2002 2002 2002 2002 2002 2002 2002 
2002 2002 2002 2002 2002 2002 2002 2002 2002 
2002 2002 2002 2002 2002 2002 2002 2002 2002 
2002 2002 2002 2002 2002 2002 2002 2002 2002 
2002 2002 2002 2002 2002 2002 2002 2002 2002 
2002 2002 2002 2002 2002 2002 2002 2002 2002 
2002 2002 2002 2002 2002 2002 2002 2002 2002 
2002 2002 2002 2002 2002 2002 2002 2002 2002 
2002 2002 2002 2002 2002 2002 2002 2002 2002 
2002 2002 2002 2002 2002 2002 2002 2002 2002 
2002 2002 2002 2002 2002 2002 2002 2002 2002 
2002 2002 2002 2002 2002 2002 2002 2002 2002 
2002 2002 2002 2002 2002 2002 2002 2002 2002 
2002 2002 2002 2002 2002 2002 2002 2002 2002 
2002 2002 2002 2002 2002 2002 2002 2002 2002 
2002 2002 2002 2002 2002 2002 2002 2002 2002 
2002 2002 2002 2002 2002 2002 2002 2002 2002 
2002 2002 2002 2002 2002 2002 2002 2002 2002 
2002 2002 2002 2002 2002 2002 2002 2002 2002 
2002 2002 2002 2002 2002 2002 2002 2002 2002 
2002 2002 2002 2002 2002 2002 2002 2002 2002 
2002 2002 2002 2002 2002 2002 2002 2002 2002 
2002 2002 2002 2002 2002 2002 2002 2002 2002 
2002 2002 2002 2002 2002 2002 2002 2002 2002 
2002 2002 2002 2002 2002 2002 2002 2002 2002 
2002 2002 2002 2002 2002 2002 2002 2002 2002 
2002 2002 2002 2002 2002 2002 2002 2002 2002 
2002 2002 2002 2002 2002 2002 2002 2002 2002 
2002 2002 2002 2002 2002 2002 2002 2002 2002 
2002 2002 2002 2002 2002 2002 2002 2002 2002 
2002 2002 2002 2002 2002 2002 2002 2002 2002 
2002 2002 2002 2002 2002 2002 2002 2002 2002 
2002 2002 2002 2002 2002 2002 2002 2002 2002 
2002 2002 2002 2002 2002 2002 2002 2002 2002 
2002 2002 2002 2002 2002 2002 2002 2002 2002 
2002 2002 2002 2002 2002 2002 2002 2002 2002 
2002 2002 2002 2002 2002 2002 2002 2002 2002 
2002 2002 2002 2002 2002 2002 2002 2002 2002 
2002 2002 2002 2002 2002 2002 2002 2002 2002 
2002 2002 2002 2002 2002 2002 2002 2002 2002 
2002 2002 2002 2002 2002 2002 2002 2002 2002 
2002 2002 2002 2002 2002 2002 2002 2002 2002 
2002 2002 2002 2002 2002 2002 2002 2002 2002 
2002 2002 2002 2002 2002 2002 2002 2002 2002 
2002 2002 2002 2002 2002 2002 2002 2002 2002 
2002 2002 2002 2002 2002 2002 2002 2002 2002 
2002 2002 2002 2002 2002 2002 2002 2002 2002 
2002 2002 2002 2002 2002 2002 2002 2002 2002 
2002 2002 2002 2002 2002 2002 2002 2002 2002 
2002 2002 2002 2002 2002 2002 2002 2002 2002 
2002 2002 2002 2002 2002 2002 2002 2002 2002 
2002 2002 2002 2002 2002 2002 2002 2002 2002 
2002 2002 2002 2002 2002 2002 2002 2002 2002 
2002 2002 2002 2002 2002 2002 2002 2002 2002 
2002 2002 2002 2002 2002 2002 2002 2002 2002 
2002 2002 2002 2002 2002 2002 2002 2002 2002 
2002 2002 2002 2002 2002 2002 2002 2002 2002 
2002 2002 2002 2002 2002 2002 2002 2002 2002 
2002 2002 2002 2002 2002 2002 2002 2002 2002 
2002 2002 2002 2002 2002 2002 2002 2002 2002 
2002 2002 2002 2002 2002 2002 2002 2002 2002 
2002 2002 2002 2002 2002 2002 2002 2002 2002 
2002 2002 2002 2002 2002 2002 2002 2002 2002 
2002 2002 2002 2002 2002 2002 2002 2002 2002 
2002 2002 2002 2002 2002 2002 2002 2002 2002 
2002 2002 2002 2002 2002 2002 2002 2002 2002 
2002 2002 2002 2002 2002 2002 2002 2002 2002 
2002 2002 2002 2002 2002 2002 2002 2002 2002 
2002 2002 2002 2002 2002 2002 2002 2002 2002 
2002 2002 2002 2002 2002 2002 2002 2002 2002 
2002 2002 2002 2002 2002 2002 2002 2002 2002 
2002 2002 2002 2002 2002 2002 2002 2002 2002 
2002 2002 2002 2002 2002 2002 2002 2002 2002 
2002 2002 2002 2002 2002 2002 2002 2002 2002 
2002 2002 2002 2002 2002 2002 2002 2002 2002 
2002 2002 2002 2002 2002 2002 2002 2002 2002 
2002 2002 2002 2002 2002 2002 2002 2002 2002 
2002 2002 2002 2002 2002 2002 2002 2002 2002 
2002 2002 2002 2002 2002 2002 2002 2002 2002 
2002 2002 2002 2002 2002 2002 2002 2002 2002 
2002 2002 2002 2002 2002 2002 2002 2002 2002 
2002 2002 2002 2002 2002 2002 2002 2002 2002 
2002 2002 2002 2002 2002 2002 2002 2002 2002 
2002 2002 2002 2002 2002 2002 2002 2002 2002 
2002 2002 2002 2002 2002 2002 2002 2002 2002 
2002 2002 2002 2002 2002 2002 2002 2002 2002 
2002 2002 2002 2002 2002 2002 2002 2002 2002 
2002 2002 2002 2002 2002 2002 2002 2002 2002 
2002 2002 2002 2002 2002 2002 2002 2002 2002 
2002 2002 2002 2002 2002 2002 2002 2002 2002 
2002 2002 2002 2002 2002 2002 2002 2002 2002 
2002 2002 2002 2002 2002 2002 2002 2002 2002 
2002 2002 2002 2002 2002 2002 2002 2002 2002 
2002 2002 2002 2002 2002 2002 2002 2002 2002 
2002 2002 2002 2002 2002 2002 2002 2002 2002 
2002 2002 2002 2002 2002 2002 2002 2002 2002 
2002 2002 2002 2002 2002 2002 2002 2002 2002 
2002 2002 2002 2002 2002 2002 2002 2002 2002 
2002 2002 2002 2002 2002 2002 2002 2002 2002 
2002 2002 2002 2002 2002 2002 2002 2002 2002 
2002 2002 2002 2002 2002 2002 2002 2002 2002 
2002 2002 2002 2002 2002 2002 2002 2002 2002 
2002 2002 2002 2002 2002 2002 2002 2002 2002 
2002 2002 2002 2002 2002 2002 2002 2002 2002 
2002 2002 2002 2002 2002 2002 2002 2002 2002 
2002 2002 2002 2002 2002 2002 2002 2002 2002 
2002 2002 2002 2002 2002 2002 2002 2002 2002 
2002 2002 2002 2002 2002 2002 2002 2002 2002 
2002 2002 2002 2002 2002 2002 2002 2002 2002 
2002 2002 2002 2002 2002 2002 2002 2002 2002 
2002 2002 2002 2002 2002 2002 2002 2002 2002 
2002 2002 2002 2002 2002 2002 2002 2002 2002 
2002 2002 2002 2002 2002 2002 2002 2002 2002 
2002 2002 2002 2002 2002 2002 2002 2002 2002 
2002 2002 2002 2002 2002 2002 2002 2002 2002 
2002 2002 2002 2002 2002 2002 2002 2002 2002 
2002 2002 2002 2002 2002 2002 2002 2002 2002 
2002 2002 2002 2002 2002 2002 2002 2002 2002 
2002 2002 2002 2002 2002 2002 2002 2002 2002 
2002 2002 2002 2002 2002 2002 2002 2002 2002 
2002 2002 2002 2002 2002 2002 2002 2002 2002 
2002 2002 2002 2002 2002 2002 2002 2002 2002 
2002 2002 2002 2002 2002 2002 2002 2002 2002 
2002 2002 2002 2002 2002 2002 2002 2002 2002 
2002 2002 2002 2002 2002 2002 2002 2002 2002 
2002 2002 2002 2002 2002 2002 2002 2002 2002 
2002 2002 2002 2002 2002 2002 2002 2002 2002 
2002 2002 2002 2002 2002 2002 2002 2002 2002 
2002 2002 2002 2002 2002 2002 2002 2002 2002 
2002 2002 2002 2002 2002 2002 2002 2002 2002 
2002 2002 2002 2002 2002 2002 2002 2002 2002 
2002 2002 2002 2002 2002 2002 2002 2002 2002 
2002 2002 2002 2002 2002 2002 2002 2002 2002 
2002 2002 2002 2002 2002 2002 2002 2002 2002 
2002 2002 2002 2002 2002 2002 2002 2002 2002 
2002 2002 2002 2002 2002 2002 2002 2002 2002 
2002 2002 2002 2002 2002 2002 2002 2002 2002 
2002 2002 2002 2002 2002 2002 2002 2002 2002 
2002 2002 2002 2002 2002 2002 2002 2002 2002 
2002 2002 2002 2002 2002 2002 2002 2002 2002 
2002 2002 2002 2002 2002 2002 2002 2002 2002 
2002 2002 2002 2002 2002 2002 2002 2002 2002 
2002 2002 2002 2002 2002 2002 2002 2002 2002 
2002 2002 2002 2002 2002 2002 2002 2002 2002 
2002 2002 2002 2002 2002 2002 2002 2002 2002 
2002 2002 2002 2002 2002 2002 2002 2002 2002 
2002 2002 2002 2002 2002 2002 2002 2002 2002 
2002 2002 2002 2002 2002 2002 2002 2002 2002 
2002 2002 2002 2002 2002 2002 2002 2002 2002 
2002 2002 2002 2002 2002 2002 2002 2002 2002 
2002 2002 2002 2002 2002 2002 2002 2002 2002 
2002 2002 2002 2002 2002 2002 2002 2002 2002 
2002 2002 2002 2002 2002 2002 2002 2002 2002 
2002 2002 2002 2002 2002 2002 2002 2002 2002 
2002 2002 2002 2002 2002 2002 2002 2002 2002 
2002 2002 2002 2002 2002 2002 2002 2002 2002 
2002 2002 2002 2002 2002 2002 2002 2002 2002 
2002 2002 2002 2002 2002 2002 2002 2002 2002 
2002 2002 2002 2002 2002 2002 2002 2002 2002 
2002 2002 2002 2002 2002 2002 2002 2002 2002 
2002 2002 2002 2002 2002 2002 2002 2002 2002 
2002 2002 2002 2002 2002 2002 2002 2002 2002 
2002 2002 2002 2002 2002 2002 2002 2002 2002 
2002 2002 2002 2002 2002 2002 2002 2002 2002 
2002 2002 2002 2002 2002 2002 2002 2002 2002 
2002 2002 2002 2002 2002 2002 2002 2002 2002 
2002 2002 2002 2002 2002 2002 2002 2002 2002 
2002 2002 2002 2002 2002 2002 2002 2002 2002 
2002 2002 2002 2002 2002 2002 2002 2002 2002 
2002 2002 2002 2002 2002 2002 2002 2002 2002 
2002 2002 2002 2002 2002 2002 2002 2002 2002 
2002 2002 2002 2002 2002 2002 2002 2002 2002 
2002 2002 2002 2002 2002 2002 2002 2002 2002 
2002 2002 2002 2002 2002 2002 2002 2002 2002 
2002 2002 2002 2002 2002 2002 2002 2002 2002 
2002 2002 2002 2002 2002 2002 2002 2002 2002 
2002 2002 2002 2002 2002 2002 2002 2002 2002 
2002 2002 2002 2002 2002 2002 2002 2002 2002 
2002 2002 2002 2002 2002 2002 2002 2002 2002 
2002 2002 2002 2002 2002 2002 2002 2002 2002 
2002 2002 2002 2002 2002 2002 2002 2002 2002 
2002 2002 2002 2002 2002 2002 2002 2002 2002 
2002 2002 2002 2002 2002 2002 2002 2002 2002 
2002 2002 2002 2002 2002 2002 2002 2002 2002 
2002 2002 2002 2002 2002 2002 2002 2002 2002 
2002 2002 2002 2002 2002 2002 2002 2002 2002 
2002 2002 2002 2002 2002 2002 2002 2002 2002 
2002 2002 2002 2002 2002 2002 2002 2002 2002 
2002 2002 2002 2002 2002 2002 2002 2002 2002 
2002 2002 2002 2002 2002 2002 2002 2002 2002 
2002 2002 2002 2002 2002 2002 2002 2002 2002 
2002 2002 2002 2002 2002 2002 2002 2002 2002 
2002 2002 2002 2002 2002 2002 2002 2002 2002 
2002 2002 2002 2002 2002 2002 2002 2002 2002 
2002 2002 2002 2002 2002 2002 2002 2002 2002 
2002 2002 2002 2002 2002 2002 2002 2002 2002 
2002 2002 2002 2002 2002 2002 2002 2002 2002 
2002 2002 2002 2002 2002 2002 2002 2002 2002 
2002 2002 2002 2002 2002 2002 2002 2002 2002 
2002 2002 2002 2002 2002 2002 2002 2002 2002 
2002 2002 2002 2002 2002 2002 2002 2002 2002 
2002 2002 2002 2002 2002 2002 2002 2002 2002 
2002 2002 2002 2002 2002 2002 2002 2002 2002 
2002 2002 2002 2002 2002 2002 2002 2002 2002 
2002 2002 2002 2002 2002 2002 2002 2002 2002 
2002 2002 2002 2002 2002 2002 2002 2002 2002 
2002 2002 2002 2002 2002 2002 2002 2002 2002 
2002 2002 2002 2002 2002 2002 2002 2002 2002 
2002 2002 2002 2002 2002 2002 2002 2002 2002 
2002 2002 2002 2002 2002 2002 2002 2002 2002 
2002 2002 2002 2002 2002 2002 2002 2002 2002 
2002 2002 2002 2002 2002 2002 2002 2002 2002 
2002 2002 2002 2002 2002 2002 2002 2002 2002 
2002 2002 2002 2002 2002 2002 2002 2002 2002 
2002 2002 2002 2002 2002 2002 2002 2002 2002 
2002 2002 2002 2002 2002 2002 2002 2002 2002 
2002 2002 2002 2002 2002 2002 2002 2002 2002 
2002 2002 2002 2002 2002 2002 2002 2002 2002 
2002 2002 2002 2002 2002 2002 2002 2002 2002 
2002 2002 2002 2002 2002 2002 2002 2002 2002 
2002 2002 2002 2002 2002 2002 2002 2002 2002 
2002 2002 2002 2002 2002 2002 2002 2002 2002 
2002 2002 2002 2002 2002 2002 2002 2002 2002 
2002 2002 2002 2002 2002 2002 2002 2002 2002 
2002 2002 2002 2002 2002 2002 2002 2002 2002 
2002 2002 2002 2002 2002 2002 2002 2002 2002 
2002 2002 2002 2002 2002 2002 2002 2002 2002 
2002 2002 2002 2002 2002 2002 2002 2002 2002 
2002 2002 2002 2002 2002 2002 2002 2002 2002 
2002 2002 2002 2002 2002 2002 2002 2002 2002 
2002 2002 2002 2002 2002 2002 2002 2002 2002 
2002 2002 2002 2002 2002 2002 2002 2002 2002 
2002 2002 2002 2002 2002 2002 2002 2002 2002 
2002 2002 2002 2002 2002 2002 2002 2002 2002 
2002 2002 2002 2002 2002 2002 2002 2002 2002 
2002 2002 2002 2002 2002 2002 2002 2002 2002 
2002 2002 2002 2002 2002 2002 2002 2002 2002 
2002 2002 2002 2002 2002 2002 2002 2002 2002 
2002 2002 2002 2002 2002 2002 2002 2002 2002 
2002 2002 2002 2002 2002 2002 2002 2002 2002 
2002 2002 2002 2002 2002 2002 2002 2002 2002 
2002 2002 2002 2002 2002 2002 2002 2002 2002 
2002 2002 2002 2002 2002 2002 2002 2002 2002 
2002 2002 2002 2002 2002 2002 2002 2002 2002 
2002 2002 2002 2002 2002 2002 2002 2002 2002 
2002 2002 2002 2002 2002 2002 2002 2002 2002 
2002 2002 2002 2002 2002 2002 2002 2002 2002 
2002 2002 2002 2002 2002 2002 2002 2002 2002 
2002 2002 2002 2002 2002 2002 2002 2002 2002 
2002 2002 2002 2002 2002 2002 2002 2002 2002 
2002 2002 2002 2002 2002 2002 2002 2002 2002 
2002 2002 2002 2002 2002 2002 2002 2002 2002 
2002 2002 2002 2002 2002 2002 2002 2002 2002 
2002 2002 2002 2002 2002 2002 2002 2002 2002 
2002 2002 2002 2002 2002 2002 2002 2002 2002 
2002 2002 2002 2002 2002 2002 2002 2002 2002 
2002 2002 2002 2002 2002 2002 2002 2002 2002 
2002 2002 2002 2002 2002 2002 2002 2002 2002 
2002 2002 2002 2002 2002 2002 2002 2002 2002 
2002 2002 2002 2002 2002 2002 2002 2002 2002 
2002 2002 2002 2002 2002 2002 2002 2002 2002 
2002 2002 2002 2002 2002 2002 2002 2002 2002 
2002 2002 2002 2002 2002 2002 2002 2002 2002 
2002 2002 2002 2002 2002 2002 2002 2002 2002 
2002 2002 2002 2002 2002 2002 2002 2002 2002 
2002 2002 2002 2002 2002 2002 2002 2002 2002 
2002 2002 2002 2002 2002 2002 2002 2002 2002 
2002 2002 2002 2002 2002 2002 2002 2002 2002 
2002 2002 2002 2002 2002 2002 2002 2002 2002 
2002 2002 2002 2002 2002 2002 2002 2002 2002 
2002 2002 2002 2002 2002 2002 2002 2002 2002 
2002 2002 2002 2002 2002 2002 2002 2002 2002 
2002 2002 2002 2002 2002 2002 2002 2002 2002 
2002 2002 2002 2002 2002 2002 2002 2002 2002 
2002 2002 2002 2002 2002 2002 2002 2002 2002 
2002 2002 2002 2002 2002 2002 2002 2002 2002 
2002 2002 2002 2002 2002 2002 2002 2002 2002 
2002 2002 2002 2002 2002 2002 2002 2002 2002 
2002 2002 2002 2002 2002 2002 2002 2002 2002 
2002 2002 2002 2002 2002 2002 2002 2002 2002 
2002 2002 2002 2002 2002 2002 2002 2002 2002 
2002 2002 2002 2002 2002 2002 2002 2002 2002 
2002 2002 2002 2002 2002 2002 2002 2002 2002 
2002 2002 2002 2002 2002 2002 2002 2002 2002 
2002 2002 2002 2002 2002 2002 2002 2002 2002 
2002 2002 2002 2002 2002 2002 2002 2002 2002 
2002 2002 2002 2002 2002 2002 2002 2002 2002 