# vtk DataFile Version 4.2
vtk output
ASCII
DATASET POLYDATA
POINTS 16336 float
-38.9455 -30.6501 37.8441 -39.3432 -30.1452 37.4637 -39.7299 -30.8436 37.5471 
-38.2586 -30.6695 37.8225 -38.3822 -29.9747 37.3581 -37.7541 -30.4655 37.4263 
-39.2725 -31.6664 37.9598 -39.9988 -31.6287 37.6155 -38.4224 -31.4737 37.9469 
-37.7689 -31.2109 37.5676 -40.0004 -32.4365 37.8218 -40.486 -32.1035 37.4456 
-40.6247 -32.5318 37.496 -39.1674 -32.7175 38.0611 -38.4638 -32.5331 37.9487 
-37.7834 -32.2409 37.5711 -40.4481 -33.0292 37.4005 -39.7975 -33.7072 37.4531 
-39.5332 -33.2976 37.8386 -38.6548 -33.4155 37.8468 -37.8741 -33.2227 37.5374 
-39.0024 -33.976 37.5294 -38.2223 -33.8859 37.4499 -42.1979 -28.7159 36.8613 
-42.4785 -28.1107 36.4942 -42.9869 -28.6155 36.613 -41.0977 -28.6064 36.8951 
-41.6115 -27.9515 36.5465 -40.0386 -28.6356 36.8932 -40.4329 -27.9522 36.4269 
-39.0675 -28.7377 36.8362 -39.3564 -28.1725 36.3856 -38.6723 -28.4054 36.3725 
-43.038 -29.3847 36.7816 -43.5634 -29.0425 36.4515 -43.6568 -29.6474 36.4273 
-42.1785 -29.6741 37.0002 -41.3277 -29.5107 37.0274 -40.4718 -29.3112 37.0456 
-39.4178 -29.4679 37.1578 -38.3988 -28.8843 36.5993 -38.5366 -29.3137 36.9661 
-37.8701 -29.5213 36.3118 -43.1953 -30.0804 36.5592 -42.7707 -30.6712 36.418 
-42.3787 -30.4093 36.8053 -41.3584 -30.5028 37.0076 -40.2829 -30.2133 37.1564 
-37.2778 -30.8402 36.973 -37.4818 -30.223 36.7961 -37.0466 -30.7984 36.2354 
-42.1722 -31.1355 36.5215 -41.845 -31.8901 36.4439 -41.52 -31.3425 36.8293 
-40.5711 -31.3466 37.1782 -37.2475 -31.7548 37.0208 -36.9351 -31.3592 36.4543 
-41.0784 -32.3078 36.9714 -41.6098 -32.6412 36.3879 -37.0965 -32.8378 37.0322 
-36.6967 -32.1976 36.3445 -41.066 -33.1203 36.6833 -40.3518 -33.7088 37.0092 
-40.8757 -33.8701 36.5085 -37.3331 -33.8589 37.1381 -36.4212 -32.9813 36.5897 
-36.4273 -33.6345 36.829 -35.9875 -33.3444 36.2595 -40.181 -34.4859 36.8045 
-40.6855 -34.4496 36.4902 -39.3536 -34.4911 37.1468 -38.1541 -34.5596 37.1621 
-37.1276 -34.7301 37.0305 -36.4157 -34.537 36.8938 -35.7812 -34.2551 36.376 
-40.3774 -35.0368 36.407 -39.7783 -35.5808 36.5408 -39.352 -35.4305 36.86 
-38.3004 -35.5406 37.0487 -37.2673 -35.5844 37.0342 -36.3961 -35.5383 36.9002 
-35.7654 -35.2905 36.5452 -39.3869 -36.0638 36.4341 -38.7721 -36.5454 36.5371 
-38.4746 -36.29 36.836 -37.3916 -36.5719 36.9154 -36.4134 -36.5523 36.8928 
-35.7534 -36.317 36.5486 -38.2127 -36.9625 36.399 -37.1857 -37.2643 36.6193 
-36.658 -37.7379 36.4748 -36.5083 -37.3239 36.7557 -35.8153 -37.2618 36.5213 
-36.0812 -37.833 36.4415 -43.2285 -27.5875 35.8338 -43.3398 -27.1706 35.1656 
-43.9016 -27.6088 35.6078 -42.196 -27.5699 36.0545 -42.3013 -27.1246 35.3762 
-41.0418 -27.474 36.035 -41.2847 -27.1201 35.4071 -40.198 -27.5435 35.862 
-40.3537 -27.2031 35.3862 -39.6923 -27.4369 35.3543 -44.0684 -28.2404 35.8334 
-44.3298 -27.9549 35.5461 -44.7362 -28.6472 35.4609 -43.3194 -28.3296 36.2133 
-39.3524 -27.8112 35.6353 -38.1962 -28.64 36.0934 -38.555 -28.1743 35.7194 
-37.9628 -28.6385 35.4084 -44.2328 -29.4578 36.0093 -45.0561 -29.6293 35.5956 
-37.6427 -29.34 35.2798 -45.0238 -30.4562 35.785 -45.5446 -30.1291 35.4606 
-45.6569 -30.5574 35.511 -44.1601 -30.6965 36.0031 -43.47 -30.4805 36.18 
-37.3596 -30.3761 36.0876 -37.5169 -30.2256 35.5635 -45.4379 -31.0524 35.4198 
-44.8353 -31.5627 35.5481 -44.3565 -31.4518 35.8418 -43.3208 -31.5331 36.011 
-42.5752 -31.3647 36.1844 -37.0618 -30.8108 35.382 -36.665 -31.4681 35.6301 
-44.3862 -32.0502 35.4318 -43.7579 -32.562 35.5371 -43.318 -32.4444 35.8339 
-42.2933 -32.4457 36.0788 -36.3322 -32.1401 35.6464 -36.2209 -32.6979 36.086 
-35.9585 -32.5099 35.3814 -43.3577 -33.0626 35.415 -42.7535 -33.5804 35.5084 
-42.3301 -33.4265 35.8309 -41.5566 -33.3516 36.182 -35.6182 -33.4188 35.476 
-42.3723 -34.0577 35.3924 -41.7721 -34.551 35.5026 -41.3472 -34.302 36.0031 
-35.3772 -34.1418 35.7098 -35.2976 -34.8729 35.9649 -35.0099 -34.3241 35.249 
-41.281 -35.0463 35.5058 -40.2775 -35.5718 36.0304 -40.7813 -35.5444 35.5036 
-35.2591 -35.8279 36.0358 -34.7977 -35.251 35.3367 -40.2972 -36.0416 35.5043 
-39.2759 -36.5522 36.0295 -39.8034 -36.5331 35.5064 -35.2573 -36.8388 36.0351 
-34.7752 -36.298 35.5082 -39.2913 -37.0172 35.5005 -38.2067 -37.5927 35.8932 
-38.7814 -37.5051 35.5076 -37.3074 -37.7102 36.2584 -35.4191 -37.8521 36.0178 
-34.7632 -37.2897 35.5099 -38.3908 -38.0336 35.4249 -37.8713 -38.8903 35.5528 
-37.3353 -38.5028 35.9419 -36.3194 -38.3246 36.1519 -35.512 -38.7613 35.8222 
-34.817 -38.2393 35.4849 -37.2999 -39.3749 35.801 -37.7971 -39.5784 35.4075 
-36.4529 -39.3367 35.8563 -35.6704 -39.4363 35.6162 -35.0688 -38.9903 35.4587 
-37.2366 -39.906 35.414 -36.3529 -39.9667 35.3707 -44.3533 -27.6555 35.1225 
-44.2414 -27.1231 34.301 -44.8545 -27.6342 34.561 -43.2835 -26.9871 34.4785 
-42.5757 -26.8779 34.4727 -41.5491 -26.8379 34.6534 -40.5494 -26.8447 34.6577 
-39.1033 -27.5609 34.9074 -39.5905 -27.0516 34.655 -38.7909 -27.3074 34.1266 
-45.2515 -28.4332 34.8781 -45.4651 -28.0635 34.428 -45.9112 -28.6607 34.5463 
-38.3106 -27.988 34.6169 -37.6206 -28.5641 34.5355 -46.0837 -29.3454 34.7897 
-46.5237 -29.1399 34.4225 -46.801 -29.8814 34.4816 -45.4987 -29.4456 35.1999 
-37.3376 -29.0985 34.6222 -37.313 -29.8755 34.9327 -36.9653 -29.3189 34.1803 
-46.1277 -30.3211 35.018 -46.7735 -30.4826 34.5036 -37.284 -30.4846 35.1041 
-36.7911 -30.3044 34.4273 -46.3582 -31.0487 34.5013 -45.3208 -31.5652 35.0339 
-45.8081 -31.5516 34.5011 -36.2268 -31.7285 35.0741 -36.4482 -31.104 34.7494 
-35.954 -31.4714 34.376 -45.2926 -32.0328 34.5018 -44.2671 -32.5459 35.0316 
-44.777 -32.5224 34.5031 -35.6265 -32.3927 34.4277 -44.2903 -33.029 34.5015 
-43.2699 -33.5577 35.0184 -43.7843 -33.5271 34.5018 -35.1963 -33.0303 34.4011 
-35.2361 -33.6941 35.0977 -34.8135 -33.657 34.4933 -43.2966 -34.0335 34.4883 
-42.2813 -34.5568 34.9947 -42.7926 -34.5291 34.4887 -34.5971 -34.4351 34.6291 
-42.2962 -35.0303 34.4917 -41.301 -35.5295 34.9873 -41.8132 -35.5182 34.4882 
-34.3818 -35.1062 34.6716 -34.3207 -35.848 34.9187 -34.0055 -35.3197 34.2374 
-41.3214 -36.0054 34.493 -40.3271 -36.5182 34.9837 -40.8537 -36.5013 34.4773 
-34.2741 -36.779 35.0058 -33.7934 -36.2661 34.3387 -40.3316 -37.0045 34.4887 
-39.2963 -37.4963 35.0062 -39.81 -37.4999 34.4804 -34.259 -37.7561 35.0101 
-33.7647 -37.2888 34.5151 -30.3355 -37.425 34.6998 -30.24 -37.2333 34.2201 
-30.5688 -37.7325 34.3172 -29.9315 -37.3667 34.4671 -39.2982 -38.018 34.492 
-38.4541 -38.5533 35.0412 -38.8442 -38.8593 34.3239 -34.4274 -38.8105 35.0166 
-33.7592 -38.2672 34.5235 -30.1741 -37.7028 34.5485 -38.289 -39.2501 34.965 
-38.5382 -39.5394 34.2832 -35.3376 -39.7082 35.2161 -34.57 -39.7645 34.8449 
-33.8464 -39.2219 34.5078 -38.0252 -39.8807 34.742 -37.2692 -40.2775 34.6623 
-36.2583 -40.4025 34.9159 -36.9039 -40.6498 34.3763 -35.3852 -40.4301 34.8414 
-34.7187 -40.3973 34.6187 -34.1288 -39.9691 34.4765 -36.137 -40.8858 34.3074 
-35.084 -40.8559 34.2957 -41.9578 -26.4893 33.9085 -42.3666 -26.1334 33.0963 
-42.7444 -26.5719 33.661 -40.9788 -26.4402 33.9877 -41.2956 -26.0792 33.3179 
-39.9908 -26.4557 33.9953 -40.4103 -26.102 33.4548 -39.2628 -26.6453 33.987 
-39.5805 -26.2347 33.4261 -38.9832 -26.7016 33.6119 -46.266 -27.6024 33.8056 
-46.2418 -27.0744 33.5057 -46.8473 -27.4855 33.4984 -45.3699 -27.5518 34.1203 
-45.4153 -26.9579 33.5978 -44.456 -26.7776 33.4807 -43.4755 -26.8035 33.738 
-38.5868 -27.1989 33.3067 -47.0926 -28.3085 33.8034 -47.3826 -28.0271 33.5152 
-47.7782 -28.7258 33.466 -46.2891 -28.3883 34.1625 -38.0735 -27.7583 33.4739 
-37.1664 -28.6449 34.0166 -37.4748 -28.1907 33.6432 -36.9376 -28.6475 33.3707 
-47.2184 -29.2989 34.0055 -47.9168 -29.8421 33.5269 -36.8059 -29.4897 33.3999 
-47.2886 -30.3723 33.9967 -47.8165 -30.4944 33.5037 -36.4666 -30.1491 33.4296 
-36.2176 -30.6822 34.0668 -36.0074 -30.6604 33.4202 -47.3808 -31.0557 33.5024 
-46.3411 -31.55 33.9785 -46.8774 -31.5476 33.4716 -35.6373 -31.379 33.4306 
-46.3433 -32.0202 33.4868 -45.3167 -32.5164 33.9801 -45.8618 -32.5102 33.4717 
-35.1898 -31.9871 33.3852 -35.3119 -32.5162 33.965 -34.8139 -32.5198 33.5028 
-45.3443 -32.9985 33.4869 -44.3221 -33.5147 33.9771 -44.865 -33.4977 33.4653 
-34.295 -33.8432 33.9294 -34.502 -33.0881 33.7314 -33.9726 -33.2708 33.1903 
-44.3342 -34.0064 33.4768 -43.3069 -34.5204 33.9804 -43.8251 -34.5157 33.468 
-34.2193 -34.6079 34.1657 -33.7825 -34.3572 33.4279 -43.3215 -35.0286 33.4794 
-42.306 -35.5204 33.995 -42.8764 -35.581 33.3488 -33.5898 -35.4543 33.6431 
-42.1991 -35.9922 33.5009 -41.3307 -36.4923 33.9832 -41.7789 -36.6617 33.153 
-33.3675 -36.1321 33.6845 -33.3217 -36.8804 33.9289 -33.0266 -36.3589 33.2296 
-41.1014 -37.053 33.668 -40.333 -37.5051 33.9718 -40.8685 -37.4889 33.4827 
-33.2915 -37.8262 33.994 -32.9626 -37.3228 33.3155 -30.0554 -37.0408 33.3816 
-30.8141 -37.4324 33.4392 -29.4576 -37.8108 34.0246 -29.5637 -37.191 33.737 
-29.0511 -37.5137 33.2766 -40.3298 -38.0059 33.4739 -39.4419 -38.4604 33.8929 
-39.8056 -38.5093 33.4591 -33.2884 -38.7967 34.0019 -32.8117 -38.2893 33.2673 
-30.069 -38.4597 34.1689 -30.8552 -38.633 33.647 -29.0842 -38.7258 33.9686 
-28.7406 -38.2999 33.2891 -39.4711 -38.9239 33.4159 -38.8623 -39.405 33.7164 
-33.4681 -39.8254 34.008 -32.7914 -39.3169 33.4542 -30.2232 -39.5244 33.9263 
-30.8632 -39.8263 33.4832 -29.466 -39.3536 34.1037 -28.4223 -39.0339 33.5542 
-28.6282 -39.6483 33.8639 -28.0406 -39.6049 33.2315 -38.3534 -40.0736 33.6393 
-37.5028 -40.5249 33.9376 -37.9079 -40.6107 33.3241 -34.2111 -40.501 34.1662 
-33.5554 -40.5533 33.7425 -32.8593 -40.452 33.3178 -30.2959 -40.3364 33.7737 
-30.6439 -40.6547 33.4401 -29.4718 -40.2923 33.896 -28.6397 -40.5966 33.3903 
-28.1878 -40.1091 33.4116 -37.1945 -40.8826 33.5692 -36.3169 -41.198 33.4501 
-35.3293 -41.218 33.6758 -34.1611 -41.0629 33.4703 -33.3964 -40.8425 33.3653 
-29.9758 -41.0008 33.5508 -29.2669 -41.0761 33.3977 -46.2351 -26.645 33.0078 
-46.509 -26.146 32.2531 -46.9153 -26.6132 32.5805 -45.0407 -26.4535 32.9985 
-45.4826 -26.2293 32.3219 -44.0305 -26.4584 33.0014 -44.3361 -26.2676 32.511 
[...]
CELL_DATA 32704
SCALARS scalars float
LOOKUP_TABLE default
2015 2015 2015 2015 2015 2015 2015 2015 2015 
2015 2015 2015 2015 2015 2015 2015 2015 2015 
2015 2015 2015 2015 2015 2015 2015 2015 2015 
2015 2015 2015 2015 2015 2015 2015 2015 2015 
2015 2015 2015 2015 2015 2015 2015 2015 2015 
2015 2015 2015 2015 2015 2015 2015 2015 2015 
2015 2015 2015 2015 2015 2015 2015 2015 2015 
2015 2015 2015 2015 2015 2015 2015 2015 2015 
2015 2015 2015 2015 2015 2015 2015 2015 2015 
2015 2015 2015 2015 2015 2015 2015 2015 2015 
2015 2015 2015 2015 2015 2015 2015 2015 2015 
2015 2015 2015 2015 2015 2015 2015 2015 2015 
2015 2015 2015 2015 2015 2015 2015 2015 2015 
2015 2015 2015 2015 2015 2015 2015 2015 2015 
2015 2015 2015 2015 2015 2015 2015 2015 2015 
2015 2015 2015 2015 2015 2015 2015 2015 2015 
2015 2015 2015 2015 2015 2015 2015 2015 2015 
2015 2015 2015 2015 2015 2015 2015 2015 2015 
2015 2015 2015 2015 2015 2015 2015 2015 2015 
2015 2015 2015 2015 2015 2015 2015 2015 2015 
2015 2015 2015 2015 2015 2015 2015 2015 2015 
2015 2015 2015 2015 2015 2015 2015 2015 2015 
2015 2015 2015 2015 2015 2015 2015 2015 2015 
2015 2015 2015 2015 2015 2015 2015 2015 2015 
2015 2015 2015 2015 2015 2015 2015 2015 2015 
2015 2015 2015 2015 2015 2015 2015 2015 2015 
2015 2015 2015 2015 2015 2015 2015 2015 2015 
2015 2015 2015 2015 2015 2015 2015 2015 2015 
2015 2015 2015 2015 2015 2015 2015 2015 2015 
2015 2015 2015 2015 2015 2015 2015 2015 2015 
2015 2015 2015 2015 2015 2015 2015 2015 2015 
2015 2015 2015 2015 2015 2015 2015 2015 2015 
2015 2015 2015 2015 2015 2015 2015 2015 2015 
2015 2015 2015 2015 2015 2015 2015 2015 2015 
2015 2015 2015 2015 2015 2015 2015 2015 2015 
2015 2015 2015 2015 2015 2015 2015 2015 2015 
2015 2015 2015 2015 2015 2015 2015 2015 2015 
2015 2015 2015 2015 2015 2015 2015 2015 2015 
2015 2015 2015 2015 2015 2015 2015 2015 2015 
2015 2015 2015 2015 2015 2015 2015 2015 2015 
2015 2015 2015 2015 2015 2015 2015 2015 2015 
2015 2015 2015 2015 2015 2015 2015 2015 2015 
2015 2015 2015 2015 2015 2015 2015 2015 2015 
2015 2015 2015 2015 2015 2015 2015 2015 2015 
2015 2015 2015 2015 2015 2015 2015 2015 2015 
2015 2015 2015 2015 2015 2015 2015 2015 2015 
2015 2015 2015 2015 2015 2015 2015 2015 2015 
2015 2015 2015 2015 2015 2015 2015 2015 2015 
2015 2015 2015 2015 2015 2015 2015 2015 2015 
2015 2015 2015 2015 2015 2015 2015 2015 2015 
2015 2015 2015 2015 2015 2015 2015 2015 2015 
2015 2015 2015 2015 2015 2015 2015 2015 2015 
2015 2015 2015 2015 2015 2015 2015 2015 2015 
2015 2015 2015 2015 2015 2015 2015 2015 2015 
2015 2015 2015 2015 2015 2015 2015 2015 2015 
2015 2015 2015 2015 2015 2015 2015 2015 2015 
2015 2015 2015 2015 2015 2015 2015 2015 2015 
2015 2015 2015 2015 2015 2015 2015 2015 2015 
2015 2015 2015 2015 2015 2015 2015 2015 2015 
2015 2015 2015 2015 2015 2015 2015 2015 2015 
2015 2015 2015 2015 2015 2015 2015 2015 2015 
2015 2015 2015 2015 2015 2015 2015 2015 2015 
2015 2015 2015 2015 2015 2015 2015 2015 2015 
2015 2015 2015 2015 2015 2015 2015 2015 2015 
2015 2015 2015 2015 2015 2015 2015 2015 2015 
2015 2015 2015 2015 2015 2015 2015 2015 2015 
2015 2015 2015 2015 2015 2015 2015 2015 2015 
2015 2015 2015 2015 2015 2015 2015 2015 2015 
2015 2015 2015 2015 2015 2015 2015 2015 2015 
2015 2015 2015 2015 2015 2015 2015 2015 2015 
2015 2015 2015 2015 2015 2015 2015 2015 2015 
2015 2015 2015 2015 2015 2015 2015 2015 2015 
2015 2015 2015 2015 2015 2015 2015 2015 2015 
2015 2015 2015 2015 2015 2015 2015 2015 2015 
2015 2015 2015 2015 2015 2015 2015 2015 2015 
2015 2015 2015 2015 2015 2015 2015 2015 2015 
2015 2015 2015 2015 2015 2015 2015 2015 2015 
2015 2015 2015 2015 2015 2015 2015 2015 2015 
2015 2015 2015 2015 2015 2015 2015 2015 2015 
2015 2015 2015 2015 2015 2015 2015 2015 2015 
2015 2015 2015 2015 2015 2015 2015 2015 2015 
2015 2015 2015 2015 2015 2015 2015 2015 2015 
2015 2015 2015 2015 2015 2015 2015 2015 2015 
2015 2015 2015 2015 2015 2015 2015 2015 2015 
2015 2015 2015 2015 2015 2015 2015 2015 2015 
2015 2015 2015 2015 2015 2015 2015 2015 2015 
2015 2015 2015 2015 2015 2015 2015 2015 2015 
2015 2015 2015 2015 2015 2015 2015 2015 2015 
2015 2015 2015 2015 2015 2015 2015 2015 2015 
2015 2015 2015 2015 2015 2015 2015 2015 2015 
2015 2015 2015 2015 2015 2015 2015 2015 2015 
2015 2015 2015 2015 2015 2015 2015 2015 2015 
2015 2015 2015 2015 2015 2015 2015 2015 2015 
2015 2015 2015 2015 2015 2015 2015 2015 2015 
2015 2015 2015 2015 2015 2015 2015 2015 2015 
2015 2015 2015 2015 2015 2015 2015 2015 2015 
2015 2015 2015 2015 2015 2015 2015 2015 2015 
2015 2015 2015 2015 2015 2015 2015 2015 2015 
2015 2015 2015 2015 2015 2015 2015 2015 2015 
2015 2015 2015 2015 2015 2015 2015 2015 2015 
2015 2015 2015 2015 2015 2015 2015 2015 2015 
2015 2015 2015 2015 2015 2015 2015 2015 2015 
2015 2015 2015 2015 2015 2015 2015 2015 2015 
2015 2015 2015 2015 2015 2015 2015 2015 2015 
2015 2015 2015 2015 2015 2015 2015 2015 2015 
2015 2015 2015 2015 2015 2015 2015 2015 2015 
2015 2015 2015 2015 2015 2015 2015 2015 2015 
2015 2015 2015 2015 2015 2015 2015 2015 2015 
2015 2015 2015 2015 2015 2015 2015 2015 2015 
2015 2015 2015 2015 2015 2015 2015 2015 2015 
2015 2015 2015 2015 2015 2015 2015 2015 2015 
2015 2015 2015 2015 2015 2015 2015 2015 2015 
2015 2015 2015 2015 2015 2015 2015 2015 2015 
2015 2015 2015 2015 2015 2015 2015 2015 2015 
2015 2015 2015 2015 2015 2015 2015 2015 2015 
2015 2015 2015 2015 2015 2015 2015 2015 2015 
2015 2015 2015 2015 2015 2015 2015 2015 2015 
2015 2015 2015 2015 2015 2015 2015 2015 2015 
2015 2015 2015 2015 2015 2015 2015 2015 2015 
2015 2015 2015 2015 2015 2015 2015 2015 2015 
2015 2015 2015 2015 2015 2015 2015 2015 2015 
2015 2015 2015 2015 2015 2015 2015 2015 2015 
2015 2015 2015 2015 2015 2015 2015 2015 2015 
2015 2015 2015 2015 2015 2015 2015 2015 2015 
2015 2015 2015 2015 2015 2015 2015 2015 2015 
2015 2015 2015 2015 2015 2015 2015 2015 2015 
2015 2015 2015 2015 2015 2015 2015 2015 2015 
2015 2015 2015 2015 2015 2015 2015 2015 2015 
2015 2015 2015 2015 2015 2015 2015 2015 2015 
2015 2015 2015 2015 2015 2015 2015 2015 2015 
2015 2015 2015 2015 2015 2015 2015 2015 2015 
2015 2015 2015 2015 2015 2015 2015 2015 2015 
2015 2015 2015 2015 2015 2015 2015 2015 2015 
2015 2015 2015 2015 2015 2015 2015 2015 2015 
2015 2015 2015 2015 2015 2015 2015 2015 2015 
2015 2015 2015 2015 2015 2015 2015 2015 2015 
2015 2015 2015 2015 2015 2015 2015 2015 2015 
2015 2015 2015 2015 2015 2015 2015 2015 2015 
2015 2015 2015 2015 2015 2015 2015 2015 2015 
2015 2015 2015 2015 2015 2015 2015 2015 2015 
2015 2015 2015 2015 2015 2015 2015 2015 2015 
2015 2015 2015 2015 2015 2015 2015 2015 2015 
2015 2015 2015 2015 2015 2015 2015 2015 2015 
2015 2015 2015 2015 2015 2015 2015 2015 2015 
2015 2015 2015 2015 2015 2015 2015 2015 2015 
2015 2015 2015 2015 2015 2015 2015 2015 2015 
2015 2015 2015 2015 2015 2015 2015 2015 2015 
2015 2015 2015 2015 2015 2015 2015 2015 2015 
2015 2015 2015 2015 2015 2015 2015 2015 2015 
2015 2015 2015 2015 2015 2015 2015 2015 2015 
2015 2015 2015 2015 2015 2015 2015 2015 2015 
2015 2015 2015 2015 2015 2015 2015 2015 2015 
2015 2015 2015 2015 2015 2015 2015 2015 2015 
2015 2015 2015 2015 2015 2015 2015 2015 2015 
2015 2015 2015 2015 2015 2015 2015 2015 2015 
2015 2015 2015 2015 2015 2015 2015 2015 2015 
2015 2015 2015 2015 2015 2015 2015 2015 2015 
2015 2015 2015 2015 2015 2015 2015 2015 2015 
2015 2015 2015 2015 2015 2015 2015 2015 2015 
2015 2015 2015 2015 2015 2015 2015 2015 2015 
2015 2015 2015 2015 2015 2015 2015 2015 2015 
2015 2015 2015 2015 2015 2015 2015 2015 2015 
2015 2015 2015 2015 2015 2015 2015 2015 2015 
2015 2015 2015 2015 2015 2015 2015 2015 2015 
2015 2015 2015 2015 2015 2015 2015 2015 2015 
2015 2015 2015 2015 2015 2015 2015 2015 2015 
2015 2015 2015 2015 2015 2015 2015 2015 2015 
2015 2015 2015 2015 2015 2015 2015 2015 2015 
2015 2015 2015 2015 2015 2015 2015 2015 2015 
2015 2015 2015 2015 2015 2015 2015 2015 2015 
2015 2015 2015 2015 2015 2015 2015 2015 2015 
2015 2015 2015 2015 2015 2015 2015 2015 2015 
2015 2015 2015 2015 2015 2015 2015 2015 2015 
2015 2015 2015 2015 2015 2015 2015 2015 2015 
2015 2015 2015 2015 2015 2015 2015 2015 2015 
2015 2015 2015 2015 2015 2015 2015 2015 2015 
2015 2015 2015 2015 2015 2015 2015 2015 2015 
2015 2015 2015 2015 2015 2015 2015 2015 2015 
2015 2015 2015 2015 2015 2015 2015 2015 2015 
2015 2015 2015 2015 2015 2015 2015 2015 2015 
2015 2015 2015 2015 2015 2015 2015 2015 2015 
2015 2015 2015 2015 2015 2015 2015 2015 2015 
2015 2015 2015 2015 2015 2015 2015 2015 2015 
2015 2015 2015 2015 2015 2015 2015 2015 2015 
2015 2015 2015 2015 2015 2015 2015 2015 2015 
2015 2015 2015 2015 2015 2015 2015 2015 2015 
2015 2015 2015 2015 2015 2015 2015 2015 2015 
2015 2015 2015 2015 2015 2015 2015 2015 2015 
2015 2015 2015 2015 2015 2015 2015 2015 2015 
2015 2015 2015 2015 2015 2015 2015 2015 2015 
2015 2015 2015 2015 2015 2015 2015 2015 2015 
2015 2015 2015 2015 2015 2015 2015 2015 2015 
2015 2015 2015 2015 2015 2015 2015 2015 2015 
2015 2015 2015 2015 2015 2015 2015 2015 2015 
2015 2015 2015 2015 2015 2015 2015 2015 2015 
2015 2015 2015 2015 2015 2015 2015 2015 2015 
2015 2015 2015 2015 2015 2015 2015 2015 2015 
2015 2015 2015 2015 2015 2015 2015 2015 2015 
2015 2015 2015 2015 2015 2015 2015 2015 2015 
2015 2015 2015 2015 2015 2015 2015 2015 2015 
2015 2015 2015 2015 2015 2015 2015 2015 2015 
2015 2015 2015 2015 2015 2015 2015 2015 2015 
2015 2015 2015 2015 2015 2015 2015 2015 2015 
2015 2015 2015 2015 2015 2015 2015 2015 2015 
2015 2015 2015 2015 2015 2015 2015 2015 2015 
2015 2015 2015 2015 2015 2015 2015 2015 2015 
2015 2015 2015 2015 2015 2015 2015 2015 2015 
2015 2015 2015 2015 2015 2015 2015 2015 2015 
2015 2015 2015 2015 2015 2015 2015 2015 2015 
2015 2015 2015 2015 2015 2015 2015 2015 2015 
2015 2015 2015 2015 2015 2015 2015 2015 2015 
2015 2015 2015 2015 2015 2015 2015 2015 2015 
2015 2015 2015 2015 2015 2015 2015 2015 2015 
2015 2015 2015 2015 2015 2015 2015 2015 2015 
2015 2015 2015 2015 2015 2015 2015 2015 2015 
2015 2015 2015 2015 2015 2015 2015 2015 2015 
2015 2015 2015 2015 2015 2015 2015 2015 2015 
2015 2015 2015 2015 2015 2015 2015 2015 2015 
2015 2015 2015 2015 2015 2015 2015 2015 2015 
2015 2015 2015 2015 2015 2015 2015 2015 2015 
2015 2015 2015 2015 2015 2015 2015 2015 2015 
2015 2015 2015 2015 2015 2015 2015 2015 2015 
2015 2015 2015 2015 2015 2015 2015 2015 2015 
2015 2015 2015 2015 2015 2015 2015 2015 2015 
2015 2015 2015 2015 2015 2015 2015 2015 2015 
2015 2015 2015 2015 2015 2015 2015 2015 2015 
2015 2015 2015 2015 2015 2015 2015 2015 2015 
2015 2015 2015 2015 2015 2015 2015 2015 2015 
2015 2015 2015 2015 2015 2015 2015 2015 2015 
2015 2015 2015 2015 2015 2015 2015 2015 2015 
2015 2015 2015 2015 2015 2015 2015 2015 2015 
2015 2015 2015 2015 2015 2015 2015 2015 2015 
2015 2015 2015 2015 2015 2015 2015 2015 2015 
2015 2015 2015 2015 2015 2015 2015 2015 2015 
2015 2015 2015 2015 2015 2015 2015 2015 2015 
2015 2015 2015 2015 2015 2015 2015 2015 2015 
2015 2015 2015 2015 2015 2015 2015 2015 2015 
2015 2015 2015 2015 2015 2015 2015 2015 2015 
2015 2015 2015 2015 2015 2015 2015 2015 2015 
2015 2015 2015 2015 2015 2015 2015 2015 2015 
2015 2015 2015 2015 2015 2015 2015 2015 2015 
2015 2015 2015 2015 2015 2015 2015 2015 2015 
2015 2015 2015 2015 2015 2015 2015 2015 2015 
2015 2015 2015 2015 2015 2015 2015 2015 2015 
2015 2015 2015 2015 2015 2015 2015 2015 2015 
2015 2015 2015 2015 2015 2015 2015 2015 2015 
2015 2015 2015 2015 2015 2015 2015 2015 2015 
2015 2015 2015 2015 2015 2015 2015 2015 2015 
2015 2015 2015 2015 2015 2015 2015 2015 2015 
2015 2015 2015 2015 2015 2015 2015 2015 2015 
2015 2015 2015 2015 2015 2015 2015 2015 2015 
2015 2015 2015 2015 2015 2015 2015 2015 2015 
2015 2015 2015 2015 2015 2015 2015 2015 2015 
2015 2015 2015 2015 2015 2015 2015 2015 2015 
2015 2015 2015 2015 2015 2015 2015 2015 2015 
2015 2015 2015 2015 2015 2015 2015 2015 2015 
2015 2015 2015 2015 2015 2015 2015 2015 2015 
2015 2015 2015 2015 2015 2015 2015 2015 2015 
2015 2015 2015 2015 2015 2015 2015 2015 2015 
2015 2015 2015 2015 2015 2015 2015 2015 2015 
2015 2015 2015 2015 2015 2015 2015 2015 2015 
2015 2015 2015 2015 2015 2015 2015 2015 2015 
2015 2015 2015 2015 2015 2015 2015 2015 2015 
2015 2015 2015 2015 2015 2015 2015 2015 2015 
2015 2015 2015 2015 2015 2015 2015 2015 2015 
2015 2015 2015 2015 2015 2015 2015 2015 2015 
2015 2015 2015 2015 2015 2015 2015 2015 2015 
2015 2015 2015 2015 2015 2015 2015 2015 2015 
2015 2015 2015 2015 2015 2015 2015 2015 2015 
2015 2015 2015 2015 2015 2015 2015 2015 2015 
2015 2015 2015 2015 2015 2015 2015 2015 2015 
2015 2015 2015 2015 2015 2015 2015 2015 2015 
2015 2015 2015 2015 2015 2015 2015 2015 2015 
2015 2015 2015 2015 2015 2015 2015 2015 2015 
2015 2015 2015 2015 2015 2015 2015 2015 2015 
2015 2015 2015 2015 2015 2015 2015 2015 2015 
2015 2015 2015 2015 2015 2015 2015 2015 2015 
2015 2015 2015 2015 2015 2015 2015 2015 2015 
2015 2015 2015 2015 2015 2015 2015 2015 2015 
2015 2015 2015 2015 2015 2015 2015 2015 2015 
2015 2015 2015 2015 2015 2015 2015 2015 2015 
2015 2015 2015 2015 2015 2015 2015 2015 2015 
2015 2015 2015 2015 2015 2015 2015 2015 2015 
2015 2015 2015 2015 2015 2015 2015 2015 2015 
2015 2015 2015 2015 2015 2015 2015 2015 2015 
2015 2015 2015 2015 2015 2015 2015 2015 2015 
2015 2015 2015 2015 2015 2015 2015 2015 2015 
2015 2015 2015 2015 2015 2015 2015 2015 2015 
2015 2015 2015 2015 2015 2015 2015 2015 2015 
2015 2015 2015 2015 2015 2015 2015 2015 2015 
2015 2015 2015 2015 2015 2015 2015 2015 2015 
2015 2015 2015 2015 2015 2015 2015 2015 2015 
2015 2015 2015 2015 2015 2015 2015 2015 2015 
2015 2015 2015 2015 2015 2015 2015 2015 2015 
2015 2015 2015 2015 2015 2015 2015 2015 2015 
2015 2015 2015 2015 2015 2015 2015 2015 2015 
2015 2015 2015 2015 2015 2015 2015 2015 2015 
2015 2015 2015 2015 2015 2015 2015 2015 2015 
2015 2015 2015 2015 2015 2015 2015 2015 2015 
2015 2015 2015 2015 2015 2015 2015 2015 2015 
2015 2015 2015 2015 2015 2015 2015 2015 2015 
2015 2015 2015 2015 2015 2015 2015 2015 2015 
2015 2015 2015 2015 2015 2015 2015 2015 2015 
2015 2015 2015 2015 2015 2015 2015 2015 2015 
2015 2015 2015 2015 2015 2015 2015 2015 2015 
2015 2015 2015 2015 2015 2015 2015 2015 2015 
2015 2015 2015 2015 2015 2015 2015 2015 2015 
2015 2015 2015 2015 2015 2015 2015 2015 2015 
2015 2015 2015 2015 2015 2015 2015 2015 2015 
2015 2015 2015 2015 2015 2015 2015 2015 2015 
2015 2015 2015 2015 2015 2015 2015 2015 2015 
2015 2015 2015 2015 2015 2015 2015 2015 2015 
2015 2015 2015 2015 2015 2015 2015 2015 2015 
2015 2015 2015 2015 2015 2015 2015 2015 2015 
2015 2015 2015 2015 2015 2015 2015 2015 2015 
2015 2015 2015 2015 2015 2015 2015 2015 2015 
2015 2015 2015 2015 2015 2015 2015 2015 2015 
2015 2015 2015 2015 2015 2015 2015 2015 2015 
2015 2015 2015 2015 2015 2015 2015 2015 2015 
2015 2015 2015 2015 2015 2015 2015 2015 2015 
2015 2015 2015 2015 2015 2015 2015 2015 2015 
2015 2015 2015 2015 2015 2015 2015 2015 2015 
2015 2015 2015 2015 2015 2015 2015 2015 2015 
2015 2015 2015 2015 2015 2015 2015 2015 2015 
2015 2015 2015 2015 2015 2015 2015 2015 2015 
2015 2015 2015 2015 2015 2015 2015 2015 2015 
2015 2015 2015 2015 2015 2015 2015 2015 2015 
2015 2015 2015 2015 2015 2015 2015 2015 2015 
2015 2015 2015 2015 2015 2015 2015 2015 2015 
2015 2015 2015 2015 2015 2015 2015 2015 2015 
2015 2015 2015 2015 2015 2015 2015 2015 2015 
2015 2015 2015 2015 2015 2015 2015 2015 2015 
2015 2015 2015 2015 2015 2015 2015 2015 2015 
2015 2015 2015 2015 2015 2015 2015 2015 2015 
2015 2015 2015 2015 2015 2015 2015 2015 2015 
2015 2015 2015 2015 2015 2015 2015 2015 2015 
2015 2015 2015 2015 2015 2015 2015 2015 2015 
2015 2015 2015 2015 2015 2015 2015 2015 2015 
2015 2015 2015 2015 2015 2015 2015 2015 2015 
2015 2015 2015 2015 2015 2015 2015 2015 2015 
2015 2015 2015 2015 2015 2015 2015 2015 2015 
2015 2015 2015 2015 2015 2015 2015 2015 2015 
2015 2015 2015 2015 2015 2015 2015 2015 2015 
2015 2015 2015 2015 2015 2015 2015 2015 2015 
2015 2015 2015 2015 2015 2015 2015 2015 2015 
2015 2015 2015 2015 2015 2015 2015 2015 2015 
2015 2015 2015 2015 2015 2015 2015 2015 2015 
2015 2015 2015 2015 2015 2015 2015 2015 2015 
2015 2015 2015 2015 2015 2015 2015 2015 2015 
2015 2015 2015 2015 2015 2015 2015 2015 2015 
2015 2015 2015 2015 2015 2015 2015 2015 2015 
2015 2015 2015 2015 2015 2015 2015 2015 2015 
2015 2015 2015 2015 2015 2015 2015 2015 2015 
2015 2015 2015 2015 2015 2015 2015 2015 2015 
2015 2015 2015 2015 2015 2015 2015 2015 2015 
2015 2015 2015 2015 2015 2015 2015 2015 2015 
2015 2015 2015 2015 2015 2015 2015 2015 2015 
2015 2015 2015 2015 2015 2015 2015 2015 2015 
2015 2015 2015 2015 2015 2015 2015 2015 2015 
2015 2015 2015 2015 2015 2015 2015 2015 2015 
2015 2015 2015 2015 2015 2015 2015 2015 2015 
2015 2015 2015 2015 2015 2015 2015 2015 2015 
2015 2015 2015 2015 2015 2015 2015 2015 2015 
2015 2015 2015 2015 2015 2015 2015 2015 2015 
2015 2015 2015 2015 2015 2015 2015 2015 2015 
2015 2015 2015 2015 2015 2015 2015 2015 2015 
2015 2015 2015 2015 2015 2015 2015 2015 2015 
2015 2015 2015 2015 2015 2015 2015 2015 2015 
2015 2015 2015 2015 2015 2015 2015 2015 2015 
2015 2015 2015 2015 2015 2015 2015 2015 2015 
2015 2015 2015 2015 2015 2015 2015 2015 2015 
2015 2015 2015 2015 2015 2015 2015 2015 2015 
2015 2015 2015 2015 2015 2015 2015 2015 2015 
2015 2015 2015 2015 2015 2015 2015 2015 2015 
2015 2015 2015 2015 2015 2015 2015 2015 2015 
2015 2015 2015 2015 2015 2015 2015 2015 2015 
2015 2015 2015 2015 2015 2015 2015 2015 2015 
2015 2015 2015 2015 2015 2015 2015 2015 2015 
2015 2015 2015 2015 2015 2015 2015 2015 2015 
2015 2015 2015 2015 2015 2015 2015 2015 2015 
2015 2015 2015 2015 2015 2015 2015 2015 2015 
2015 2015 2015 2015 2015 2015 2015 2015 2015 
2015 2015 2015 2015 2015 2015 2015 2015 2015 
2015 2015 2015 2015 2015 2015 2015 2015 2015 
2015 2015 2015 2015 2015 2015 2015 2015 2015 
2015 2015 2015 2015 2015 2015 2015 2015 2015 
2015 2015 2015 2015 2015 2015 2015 2015 2015 
2015 2015 2015 2015 2015 2015 2015 2015 2015 
2015 2015 2015 2015 2015 2015 2015 2015 2015 
2015 2015 2015 2015 2015 2015 2015 2015 2015 
2015 2015 2015 2015 2015 2015 2015 2015 2015 
2015 2015 2015 2015 2015 2015 2015 2015 2015 
2015 2015 2015 2015 2015 2015 2015 2015 2015 
2015 2015 2015 2015 2015 2015 2015 2015 2015 
2015 2015 2015 2015 2015 2015 2015 2015 2015 
2015 2015 2015 2015 2015 2015 2015 2015 2015 
2015 2015 2015 2015 2015 2015 2015 2015 2015 
2015 2015 2015 2015 2015 2015 2015 2015 2015 
2015 2015 2015 2015 2015 2015 2015 2015 2015 
2015 2015 2015 2015 2015 2015 2015 2015 2015 
2015 2015 2015 2015 2015 2015 2015 2015 2015 
2015 2015 2015 2015 2015 2015 2015 2015 2015 
2015 2015 2015 2015 2015 2015 2015 2015 2015 
2015 2015 2015 2015 2015 2015 2015 2015 2015 
2015 2015 2015 2015 2015 2015 2015 2015 2015 
2015 2015 2015 2015 2015 2015 2015 2015 2015 
2015 2015 2015 2015 2015 2015 2015 2015 2015 
2015 2015 2015 2015 2015 2015 2015 2015 2015 
2015 2015 2015 2015 2015 2015 2015 2015 2015 
2015 2015 2015 2015 2015 2015 2015 2015 2015 
2015 2015 2015 2015 2015 2015 2015 2015 2015 
2015 2015 2015 2015 2015 2015 2015 2015 2015 
2015 2015 2015 2015 2015 2015 2015 2015 2015 
2015 2015 2015 2015 2015 2015 2015 2015 2015 
2015 2015 2015 2015 2015 2015 2015 2015 2015 
2015 2015 2015 2015 2015 2015 2015 2015 2015 
2015 2015 2015 2015 2015 2015 2015 2015 2015 
2015 2015 2015 2015 2015 2015 2015 2015 2015 
2015 2015 2015 2015 2015 2015 2015 2015 2015 
2015 2015 2015 2015 2015 2015 2015 2015 2015 
2015 2015 2015 2015 2015 2015 2015 2015 2015 
2015 2015 2015 2015 2015 2015 2015 2015 2015 
2015 2015 2015 2015 2015 2015 2015 2015 2015 
2015 2015 2015 2015 2015 2015 2015 2015 2015 
2015 2015 2015 2015 2015 2015 2015 2015 2015 
2015 2015 2015 2015 2015 2015 2015 2015 2015 
2015 2015 2015 2015 2015 2015 2015 2015 2015 
2015 2015 2015 2015 2015 2015 2015 2015 2015 
2015 2015 2015 2015 2015 2015 2015 2015 2015 
2015 2015 2015 2015 2015 2015 2015 2015 2015 
2015 2015 2015 2015 2015 2015 2015 2015 2015 
2015 2015 2015 2015 2015 2015 2015 2015 2015 
2015 2015 2015 2015 2015 2015 2015 2015 2015 