# vtk DataFile Version 4.2
vtk output
ASCII
DATASET POLYDATA
POINTS 5914 float
-29.3493 -15.8777 17.8669 -29.2475 -15.7498 17.7006 -28.9182 -15.8448 17.5918 
-29.8123 -15.9039 17.921 -29.6368 -15.6172 17.6584 -30.2936 -15.9587 17.8759 
-30.2178 -15.6349 17.7566 -30.6791 -15.9323 17.6035 -29.2544 -16.087 17.7069 
-29.8898 -16.2219 17.7166 -30.4338 -16.2171 17.6725 -30.5383 -14.8167 17.3435 
-30.3602 -14.4529 17.0864 -30.0541 -14.7698 17.1406 -31.0335 -14.8144 17.3029 
-30.8456 -14.3979 17.1409 -31.2248 -14.5596 16.9876 -28.6783 -15.4604 17.3149 
-28.5874 -15.1496 17.109 -28.3336 -15.4012 17.0865 -28.8403 -15.201 17.078 
-30.0107 -15.1999 17.3886 -29.7041 -15.0319 17.0466 -29.5371 -15.3416 17.2082 
-30.5681 -15.3948 17.5389 -31.0781 -15.3344 17.3955 -31.3493 -15.1693 17.0268 
-28.4981 -15.7723 17.3389 -28.2403 -15.8786 17.0556 -29.1467 -15.5146 17.3403 
-31.0094 -15.7542 17.4586 -31.5387 -15.6359 17.1695 -31.4577 -15.8871 17.2903 
-31.7915 -15.9722 16.9525 -28.6373 -16.1039 17.191 -29.209 -16.328 17.2217 
-29.7445 -16.5009 17.3537 -29.413 -16.5729 17.0329 -30.2404 -16.5191 17.4044 
-30.716 -16.4104 17.3048 -31.1877 -16.2233 17.2152 -31.6628 -16.2344 17.0305 
-29.8929 -16.7262 16.9703 -30.5397 -16.723 16.9636 -29.8716 -14.162 16.6727 
-29.7697 -13.8838 16.4699 -29.4565 -14.1814 16.5441 -30.509 -14.1246 16.8215 
-30.3728 -13.7713 16.4437 -31.0569 -14.1541 16.8387 -30.9219 -13.9047 16.5378 
-31.2303 -14.1582 16.4973 -28.6833 -14.8784 16.7921 -28.5586 -14.5162 16.4493 
-28.2744 -14.8048 16.5321 -29.3339 -14.5698 16.7097 -29.0093 -14.3603 16.4984 
-29.843 -14.6006 16.8901 -31.3415 -14.6849 16.5045 -28.1111 -15.1934 16.722 
-27.9187 -15.0529 16.4475 -27.7364 -15.5054 16.4945 -29.2643 -15.0795 16.9364 
-31.4581 -15.1724 16.4258 -27.9784 -15.705 16.7764 -27.7861 -15.9739 16.476 
-31.6463 -15.6018 16.7511 -31.8681 -15.8069 16.417 -28.188 -16.1838 16.626 
-28.7991 -16.3547 16.4823 -29.0578 -16.481 16.767 -28.989 -16.4892 16.5047 
-31.0082 -16.5899 16.9266 -31.4746 -16.5337 16.7957 -31.9423 -16.3169 16.5292 
-29.319 -16.6376 16.6568 -29.7965 -16.7138 16.4414 -30.3183 -16.8268 16.5984 
-31.0133 -16.8307 16.5218 -31.6937 -16.7316 16.4946 -26.9119 -13.6351 16.1227 
-26.8287 -13.2524 15.8307 -26.4387 -13.5473 15.9921 -27.5632 -13.5694 16.1255 
-27.2937 -13.2714 15.9168 -28.1668 -13.5777 16.1275 -27.8219 -13.1747 15.8289 
-28.7676 -13.5731 16.1483 -28.4323 -13.1855 15.9295 -29.3043 -13.4834 16.1363 
-29.0264 -13.1838 15.9435 -29.8923 -13.5459 16.2113 -29.7318 -13.1804 15.8655 
-30.4992 -13.5015 16.1072 -30.3881 -13.2921 15.8276 -30.8061 -13.4209 15.8072 
-25.6663 -14.1935 16.1445 -25.5709 -13.9124 15.7956 -25.262 -14.2084 15.8693 
-26.3447 -14.0475 16.1685 -25.9801 -13.7201 15.8478 -26.8929 -14.1945 16.2088 
-27.4053 -14.09 16.2108 -27.9336 -13.9915 16.2157 -28.554 -14.0884 16.2755 
-29.251 -13.8915 16.3274 -30.9531 -13.7225 16.1091 -31.2744 -14.0502 15.863 
-25.1656 -14.6424 16.1632 -24.9769 -14.5089 15.8391 -24.8087 -14.8745 15.8873 
-25.672 -14.7662 16.2689 -26.1885 -14.6894 16.2344 -26.7954 -14.6918 16.2084 
-27.302 -14.5969 16.208 -27.969 -14.5727 16.289 -31.4276 -14.6378 15.8684 
-25.0349 -15.2533 16.1261 -24.8021 -15.3041 15.7991 -25.5657 -15.2785 16.2648 
-26.1906 -15.3155 16.25 -26.8081 -15.31 16.2205 -27.4354 -15.1477 16.2657 
-31.5709 -15.0833 16.0034 -31.6684 -15.4325 16.2865 -31.8126 -15.2919 15.8465 
-25.0463 -15.6121 15.9258 -25.2594 -15.867 15.7775 -25.4512 -15.7471 16.1204 
-26.1326 -15.9062 16.1751 -26.8027 -15.9165 16.2191 -27.4061 -15.8727 16.2799 
-32.0234 -15.8962 15.8653 -25.6634 -16.1898 15.8411 -26.2794 -16.3158 15.988 
-26.5944 -16.6117 15.9005 -26.723 -16.3638 16.108 -27.2793 -16.4418 16.1372 
-27.925 -16.5229 16.2066 -28.5227 -16.6352 16.1967 -28.8046 -16.6216 15.9375 
-29.1882 -16.2554 15.8657 -29.2999 -16.4453 16.2555 -29.68 -16.2976 15.8767 
-29.8511 -16.5195 16.0777 -30.1082 -16.5849 15.6863 -32.2327 -16.3009 16.0025 
-32.1611 -16.7077 16.2133 -32.4293 -16.5092 15.7973 -27.0399 -16.7874 15.9116 
-27.6103 -16.8739 15.8235 -28.0943 -16.9301 15.8907 -28.4416 -17.0496 15.7811 
-28.466 -17.016 16.0237 -28.7345 -17.0244 15.9492 -30.4031 -16.833 16.1067 
-30.9601 -17.0586 16.1184 -30.7507 -17.1911 15.866 -31.571 -17.0522 16.2241 
-32.1128 -17.0973 16.107 -32.4524 -16.9072 15.839 -28.6591 -17.2252 15.8898 
-31.2139 -17.3636 15.8045 -31.8067 -17.3172 15.8521 -32.2736 -17.2363 15.7947 
-26.3304 -12.8876 15.5079 -26.1292 -12.6777 15.1533 -25.9272 -13.0711 15.2628 
-26.7666 -12.9769 15.5556 -26.7401 -12.6999 15.255 -27.1426 -12.8272 15.2446 
-28.1795 -12.8789 15.5786 -27.9781 -12.6834 15.1004 -27.7433 -12.9163 15.4184 
-28.745 -12.8638 15.6551 -28.6077 -12.6419 15.2327 -29.3489 -12.8737 15.6407 
-29.2188 -12.6303 15.2455 -29.864 -12.9043 15.5322 -29.7785 -12.681 15.2392 
-30.1773 -12.8173 15.2263 -26.2972 -13.2706 15.6902 -25.9445 -13.4685 15.3942 
-27.3167 -13.0352 15.5305 -30.3924 -13.064 15.3894 -31.0884 -13.5627 15.6428 
-30.8775 -13.292 15.4163 -31.2229 -13.5554 15.2354 -25.677 -13.7807 15.2497 
-25.3835 -14.0692 15.4388 -31.4338 -14.0103 15.2423 -24.8876 -14.7701 15.5521 
-25.1614 -14.5385 15.2776 -31.5795 -14.4461 15.3917 -31.6404 -14.8107 15.6584 
-31.8081 -14.665 15.2406 -24.9921 -15.0167 15.1924 -24.8127 -15.1498 15.4619 
-31.9207 -15.3081 15.3132 -24.959 -15.578 15.5135 -25.179 -15.9218 15.2364 
-28.8018 -15.9106 15.452 -28.3666 -16.1052 15.3001 -28.5925 -15.6943 15.2821 
-29.1103 -15.5721 15.2523 -29.2276 -15.9816 15.5208 -29.52 -15.8612 15.2114 
-31.9968 -15.933 15.1525 -25.1676 -16.4653 15.5158 -24.9875 -16.3409 15.2156 
-24.8801 -16.501 15.342 -25.68 -16.6478 15.6922 -26.1761 -16.6095 15.776 
-28.6485 -16.4745 15.5904 -28.2409 -16.4823 15.3083 -29.7418 -16.2011 15.4969 
-30.0024 -16.6133 15.2999 -32.259 -16.2399 15.5223 -32.4662 -16.6909 15.2877 
-25.0294 -16.7479 15.3842 -25.2849 -17.1355 15.1257 -25.4512 -16.9573 15.5163 
-26.0473 -17.0476 15.5665 -26.6755 -17.0333 15.6267 -27.2504 -17.1493 15.5628 
-27.594 -17.111 15.3887 -28.0124 -16.8509 15.4546 -28.7035 -17.0107 15.7931 
-30.4708 -17.1403 15.6876 -30.1414 -17.171 15.3637 -32.5014 -17.1876 15.3135 
-25.7844 -17.4285 15.3135 -26.4092 -17.4749 15.2113 -26.9435 -17.3631 15.285 
-27.2898 -17.3028 15.1276 -30.4802 -17.7184 15.5481 -30.1257 -17.8789 15.3367 
-30.8877 -17.6621 15.6143 -31.3119 -17.7082 15.4184 -31.6915 -17.5404 15.3998 
-32.1938 -17.4522 15.3572 -30.4164 -18.1942 15.4832 -30.2048 -18.3826 15.2853 
-30.7938 -18.2138 15.4965 -31.2437 -18.1128 15.3318 -30.5949 -18.5768 15.2229 
-31.1352 -18.4921 15.1703 -19.6652 -19.6864 15.5264 -19.6972 -19.317 15.2156 
-19.2369 -19.4329 15.2895 -19.9902 -19.4276 15.2509 -19.1617 -20.0801 15.5887 
-18.8832 -19.7253 15.2769 -18.7675 -20.1513 15.2863 -19.5724 -20.1185 15.6887 
-20.2563 -19.6921 15.2349 -19.9859 -20.1399 15.5192 -20.4478 -20.0128 15.2443 
-19.0384 -20.6949 15.5598 -18.8103 -20.5671 15.2038 -19.653 -20.696 15.6182 
-20.0381 -20.5876 15.3929 -20.3013 -20.3204 15.2824 -19.1226 -20.9579 15.2611 
-19.4229 -21.2968 15.2869 -19.5318 -21.2956 15.5748 -20.1085 -20.9738 15.3846 
-20.0856 -21.3892 15.5227 -20.3982 -21.2805 15.2785 -19.6579 -21.6171 15.414 
-19.9121 -21.8438 15.1262 -20.028 -21.8062 15.4799 -20.4638 -21.7572 15.3161 
-20.3492 -22.0967 15.1622 -24.4236 -24.2837 15.4311 -24.2761 -24.1323 15.2155 
-24.291 -24.373 15.3421 -24.5646 -24.3122 15.1474 -24.5063 -24.5203 15.2785 
-23.1859 -25.5156 15.4095 -23.1706 -25.3912 15.1928 -23.0866 -25.5506 15.2278 
-23.4475 -25.5097 15.1812 -23.1915 -25.6243 15.3125 -25.6536 -12.8376 14.9942 
-25.6885 -12.6518 14.6253 -25.4498 -12.9026 14.5943 -26.2575 -12.5451 14.6498 
-26.7777 -12.5574 14.7385 -27.4986 -12.8246 15.1662 -27.4355 -12.6274 14.7849 
-28.0993 -12.5626 14.5834 -28.6029 -12.5615 14.6866 -29.2307 -12.5509 14.7042 
-29.8332 -12.5614 14.7237 -30.5465 -12.8967 14.9551 -30.2862 -12.6842 14.8209 
-30.7146 -12.8716 14.486 -25.6145 -13.0868 14.7777 -25.7663 -13.4301 14.7734 
-31.0124 -13.1606 14.7734 -31.4258 -13.5047 14.717 -25.6322 -13.8022 14.5146 
-25.4073 -14.1484 14.8576 -31.6105 -13.8106 14.7701 -31.6617 -14.1693 15.0372 
-31.8357 -14.0339 14.6116 -25.3736 -14.5491 14.5758 -27.5762 -14.7259 14.907 
-27.1134 -14.8523 14.7229 -27.3704 -14.4368 14.5237 -28.0158 -14.4043 14.6434 
-28.1642 -14.735 14.9597 -28.6043 -14.4543 14.6383 -28.7651 -14.8068 14.9038 
-29.0195 -14.59 14.6193 -31.9174 -14.683 14.7139 -25.0002 -15.3917 15.1448 
-25.2637 -15.1852 14.8105 -27.4699 -15.2781 14.9485 -27.0915 -15.4553 14.7087 
-27.8962 -15.1498 15.057 -28.5416 -15.2693 15.1175 -29.1813 -14.8893 14.7685 
-29.0887 -15.1678 15.0001 -29.3945 -15.2801 14.7495 -31.8981 -15.3074 14.7244 
-25.361 -15.785 14.6813 -27.489 -15.9088 14.9125 -27.1269 -16.0901 14.6701 
-28.0246 -15.7191 15.1027 -29.2215 -15.591 14.5374 -29.0588 -16.0211 14.7199 
-29.3601 -15.9139 14.9295 -31.8902 -15.812 14.6103 -24.9766 -16.6063 15.174 
-25.2903 -16.4538 14.7716 -27.4422 -16.4455 14.8697 -27.1563 -16.7059 14.665 
-27.8829 -16.4082 15.0995 -29.3002 -16.4813 14.9315 -28.9645 -16.485 14.6499 
-29.6913 -16.3492 15.1349 -32.2044 -16.4034 15.0609 -31.9951 -16.4818 14.5864 
-25.273 -17.0758 14.653 -27.5393 -16.943 15.0158 -27.1577 -17.1686 14.7596 
-29.2823 -17.0825 14.9164 -28.8901 -17.1534 14.6343 -29.7399 -16.9227 15.0862 
-32.296 -16.7606 14.798 -32.4563 -17.1668 14.7727 -25.5979 -17.7044 15.0277 
-25.4015 -17.5735 14.6615 -26.0122 -17.8117 14.9737 -26.3843 -17.7596 14.7792 
-26.8068 -17.4752 14.8186 -29.294 -17.6991 14.9305 -28.9109 -17.8604 14.7107 
-29.7382 -17.5402 15.103 -31.6985 -17.9226 15.1402 -32.177 -17.8094 14.9997 
-32.4543 -17.7351 14.6931 -25.7513 -17.9134 14.7524 -26.0893 -17.9148 14.6397 
-29.3035 -18.306 14.9351 -28.9024 -18.4591 14.7251 -29.8013 -18.24 15.098 
-31.5878 -18.3153 15.0629 -32.0715 -18.2458 14.8736 -32.4419 -18.1794 14.6814 
-19.1027 -18.9902 14.9115 -19.044 -18.729 14.5171 -18.8249 -19.0201 14.7366 
-19.3624 -18.7923 14.6259 -29.2406 -18.9706 14.9537 -28.8036 -18.9416 14.7651 
-29.7039 -18.797 15.0187 -30.1927 -18.8959 14.9833 -30.6336 -18.8496 14.8045 
[...]
CELL_DATA 11848
SCALARS scalars float
LOOKUP_TABLE default
1018 1018 1018 1018 1018 1018 1018 1018 1018 
1018 1018 1018 1018 1018 1018 1018 1018 1018 
1018 1018 1018 1018 1018 1018 1018 1018 1018 
1018 1018 1018 1018 1018 1018 1018 1018 1018 
1018 1018 1018 1018 1018 1018 1018 1018 1018 
1018 1018 1018 1018 1018 1018 1018 1018 1018 
1018 1018 1018 1018 1018 1018 1018 1018 1018 
1018 1018 1018 1018 1018 1018 1018 1018 1018 
1018 1018 1018 1018 1018 1018 1018 1018 1018 
1018 1018 1018 1018 1018 1018 1018 1018 1018 
1018 1018 1018 1018 1018 1018 1018 1018 1018 
1018 1018 1018 1018 1018 1018 1018 1018 1018 
1018 1018 1018 1018 1018 1018 1018 1018 1018 
1018 1018 1018 1018 1018 1018 1018 1018 1018 
1018 1018 1018 1018 1018 1018 1018 1018 1018 
1018 1018 1018 1018 1018 1018 1018 1018 1018 
1018 1018 1018 1018 1018 1018 1018 1018 1018 
1018 1018 1018 1018 1018 1018 1018 1018 1018 
1018 1018 1018 1018 1018 1018 1018 1018 1018 
1018 1018 1018 1018 1018 1018 1018 1018 1018 
1018 1018 1018 1018 1018 1018 1018 1018 1018 
1018 1018 1018 1018 1018 1018 1018 1018 1018 
1018 1018 1018 1018 1018 1018 1018 1018 1018 
1018 1018 1018 1018 1018 1018 1018 1018 1018 
1018 1018 1018 1018 1018 1018 1018 1018 1018 
1018 1018 1018 1018 1018 1018 1018 1018 1018 
1018 1018 1018 1018 1018 1018 1018 1018 1018 
1018 1018 1018 1018 1018 1018 1018 1018 1018 
1018 1018 1018 1018 1018 1018 1018 1018 1018 
1018 1018 1018 1018 1018 1018 1018 1018 1018 
1018 1018 1018 1018 1018 1018 1018 1018 1018 
1018 1018 1018 1018 1018 1018 1018 1018 1018 
1018 1018 1018 1018 1018 1018 1018 1018 1018 
1018 1018 1018 1018 1018 1018 1018 1018 1018 
1018 1018 1018 1018 1018 1018 1018 1018 1018 
1018 1018 1018 1018 1018 1018 1018 1018 1018 
1018 1018 1018 1018 1018 1018 1018 1018 1018 
1018 1018 1018 1018 1018 1018 1018 1018 1018 
1018 1018 1018 1018 1018 1018 1018 1018 1018 
1018 1018 1018 1018 1018 1018 1018 1018 1018 
1018 1018 1018 1018 1018 1018 1018 1018 1018 
1018 1018 1018 1018 1018 1018 1018 1018 1018 
1018 1018 1018 1018 1018 1018 1018 1018 1018 
1018 1018 1018 1018 1018 1018 1018 1018 1018 
1018 1018 1018 1018 1018 1018 1018 1018 1018 
1018 1018 1018 1018 1018 1018 1018 1018 1018 
1018 1018 1018 1018 1018 1018 1018 1018 1018 
1018 1018 1018 1018 1018 1018 1018 1018 1018 
1018 1018 1018 1018 1018 1018 1018 1018 1018 
1018 1018 1018 1018 1018 1018 1018 1018 1018 
1018 1018 1018 1018 1018 1018 1018 1018 1018 
1018 1018 1018 1018 1018 1018 1018 1018 1018 
1018 1018 1018 1018 1018 1018 1018 1018 1018 
1018 1018 1018 1018 1018 1018 1018 1018 1018 
1018 1018 1018 1018 1018 1018 1018 1018 1018 
1018 1018 1018 1018 1018 1018 1018 1018 1018 
1018 1018 1018 1018 1018 1018 1018 1018 1018 
1018 1018 1018 1018 1018 1018 1018 1018 1018 
1018 1018 1018 1018 1018 1018 1018 1018 1018 
1018 1018 1018 1018 1018 1018 1018 1018 1018 
1018 1018 1018 1018 1018 1018 1018 1018 1018 
1018 1018 1018 1018 1018 1018 1018 1018 1018 
1018 1018 1018 1018 1018 1018 1018 1018 1018 
1018 1018 1018 1018 1018 1018 1018 1018 1018 
1018 1018 1018 1018 1018 1018 1018 1018 1018 
1018 1018 1018 1018 1018 1018 1018 1018 1018 
1018 1018 1018 1018 1018 1018 1018 1018 1018 
1018 1018 1018 1018 1018 1018 1018 1018 1018 
1018 1018 1018 1018 1018 1018 1018 1018 1018 
1018 1018 1018 1018 1018 1018 1018 1018 1018 
1018 1018 1018 1018 1018 1018 1018 1018 1018 
1018 1018 1018 1018 1018 1018 1018 1018 1018 
1018 1018 1018 1018 1018 1018 1018 1018 1018 
1018 1018 1018 1018 1018 1018 1018 1018 1018 
1018 1018 1018 1018 1018 1018 1018 1018 1018 
1018 1018 1018 1018 1018 1018 1018 1018 1018 
1018 1018 1018 1018 1018 1018 1018 1018 1018 
1018 1018 1018 1018 1018 1018 1018 1018 1018 
1018 1018 1018 1018 1018 1018 1018 1018 1018 
1018 1018 1018 1018 1018 1018 1018 1018 1018 
1018 1018 1018 1018 1018 1018 1018 1018 1018 
1018 1018 1018 1018 1018 1018 1018 1018 1018 
1018 1018 1018 1018 1018 1018 1018 1018 1018 
1018 1018 1018 1018 1018 1018 1018 1018 1018 
1018 1018 1018 1018 1018 1018 1018 1018 1018 
1018 1018 1018 1018 1018 1018 1018 1018 1018 
1018 1018 1018 1018 1018 1018 1018 1018 1018 
1018 1018 1018 1018 1018 1018 1018 1018 1018 
1018 1018 1018 1018 1018 1018 1018 1018 1018 
1018 1018 1018 1018 1018 1018 1018 1018 1018 
1018 1018 1018 1018 1018 1018 1018 1018 1018 
1018 1018 1018 1018 1018 1018 1018 1018 1018 
1018 1018 1018 1018 1018 1018 1018 1018 1018 
1018 1018 1018 1018 1018 1018 1018 1018 1018 
1018 1018 1018 1018 1018 1018 1018 1018 1018 
1018 1018 1018 1018 1018 1018 1018 1018 1018 
1018 1018 1018 1018 1018 1018 1018 1018 1018 
1018 1018 1018 1018 1018 1018 1018 1018 1018 
1018 1018 1018 1018 1018 1018 1018 1018 1018 
1018 1018 1018 1018 1018 1018 1018 1018 1018 
1018 1018 1018 1018 1018 1018 1018 1018 1018 
1018 1018 1018 1018 1018 1018 1018 1018 1018 
1018 1018 1018 1018 1018 1018 1018 1018 1018 
1018 1018 1018 1018 1018 1018 1018 1018 1018 
1018 1018 1018 1018 1018 1018 1018 1018 1018 
1018 1018 1018 1018 1018 1018 1018 1018 1018 
1018 1018 1018 1018 1018 1018 1018 1018 1018 
1018 1018 1018 1018 1018 1018 1018 1018 1018 
1018 1018 1018 1018 1018 1018 1018 1018 1018 
1018 1018 1018 1018 1018 1018 1018 1018 1018 
1018 1018 1018 1018 1018 1018 1018 1018 1018 
1018 1018 1018 1018 1018 1018 1018 1018 1018 
1018 1018 1018 1018 1018 1018 1018 1018 1018 
1018 1018 1018 1018 1018 1018 1018 1018 1018 
1018 1018 1018 1018 1018 1018 1018 1018 1018 
1018 1018 1018 1018 1018 1018 1018 1018 1018 
1018 1018 1018 1018 1018 1018 1018 1018 1018 
1018 1018 1018 1018 1018 1018 1018 1018 1018 
1018 1018 1018 1018 1018 1018 1018 1018 1018 
1018 1018 1018 1018 1018 1018 1018 1018 1018 
1018 1018 1018 1018 1018 1018 1018 1018 1018 
1018 1018 1018 1018 1018 1018 1018 1018 1018 
1018 1018 1018 1018 1018 1018 1018 1018 1018 
1018 1018 1018 1018 1018 1018 1018 1018 1018 
1018 1018 1018 1018 1018 1018 1018 1018 1018 
1018 1018 1018 1018 1018 1018 1018 1018 1018 
1018 1018 1018 1018 1018 1018 1018 1018 1018 
1018 1018 1018 1018 1018 1018 1018 1018 1018 
1018 1018 1018 1018 1018 1018 1018 1018 1018 
1018 1018 1018 1018 1018 1018 1018 1018 1018 
1018 1018 1018 1018 1018 1018 1018 1018 1018 
1018 1018 1018 1018 1018 1018 1018 1018 1018 
1018 1018 1018 1018 1018 1018 1018 1018 1018 
1018 1018 1018 1018 1018 1018 1018 1018 1018 
1018 1018 1018 1018 1018 1018 1018 1018 1018 
1018 1018 1018 1018 1018 1018 1018 1018 1018 
1018 1018 1018 1018 1018 1018 1018 1018 1018 
1018 1018 1018 1018 1018 1018 1018 1018 1018 
1018 1018 1018 1018 1018 1018 1018 1018 1018 
1018 1018 1018 1018 1018 1018 1018 1018 1018 
1018 1018 1018 1018 1018 1018 1018 1018 1018 
1018 1018 1018 1018 1018 1018 1018 1018 1018 
1018 1018 1018 1018 1018 1018 1018 1018 1018 
1018 1018 1018 1018 1018 1018 1018 1018 1018 
1018 1018 1018 1018 1018 1018 1018 1018 1018 
1018 1018 1018 1018 1018 1018 1018 1018 1018 
1018 1018 1018 1018 1018 1018 1018 1018 1018 
1018 1018 1018 1018 1018 1018 1018 1018 1018 
1018 1018 1018 1018 1018 1018 1018 1018 1018 
1018 1018 1018 1018 1018 1018 1018 1018 1018 
1018 1018 1018 1018 1018 1018 1018 1018 1018 
1018 1018 1018 1018 1018 1018 1018 1018 1018 
1018 1018 1018 1018 1018 1018 1018 1018 1018 
1018 1018 1018 1018 1018 1018 1018 1018 1018 
1018 1018 1018 1018 1018 1018 1018 1018 1018 
1018 1018 1018 1018 1018 1018 1018 1018 1018 
1018 1018 1018 1018 1018 1018 1018 1018 1018 
1018 1018 1018 1018 1018 1018 1018 1018 1018 
1018 1018 1018 1018 1018 1018 1018 1018 1018 
1018 1018 1018 1018 1018 1018 1018 1018 1018 
1018 1018 1018 1018 1018 1018 1018 1018 1018 
1018 1018 1018 1018 1018 1018 1018 1018 1018 
1018 1018 1018 1018 1018 1018 1018 1018 1018 
1018 1018 1018 1018 1018 1018 1018 1018 1018 
1018 1018 1018 1018 1018 1018 1018 1018 1018 
1018 1018 1018 1018 1018 1018 1018 1018 1018 
1018 1018 1018 1018 1018 1018 1018 1018 1018 
1018 1018 1018 1018 1018 1018 1018 1018 1018 
1018 1018 1018 1018 1018 1018 1018 1018 1018 
1018 1018 1018 1018 1018 1018 1018 1018 1018 
1018 1018 1018 1018 1018 1018 1018 1018 1018 
1018 1018 1018 1018 1018 1018 1018 1018 1018 
1018 1018 1018 1018 1018 1018 1018 1018 1018 
1018 1018 1018 1018 1018 1018 1018 1018 1018 
1018 1018 1018 1018 1018 1018 1018 1018 1018 
1018 1018 1018 1018 1018 1018 1018 1018 1018 
1018 1018 1018 1018 1018 1018 1018 1018 1018 
1018 1018 1018 1018 1018 1018 1018 1018 1018 
1018 1018 1018 1018 1018 1018 1018 1018 1018 
1018 1018 1018 1018 1018 1018 1018 1018 1018 
1018 1018 1018 1018 1018 1018 1018 1018 1018 
1018 1018 1018 1018 1018 1018 1018 1018 1018 
1018 1018 1018 1018 1018 1018 1018 1018 1018 
1018 1018 1018 1018 1018 1018 1018 1018 1018 
1018 1018 1018 1018 1018 1018 1018 1018 1018 
1018 1018 1018 1018 1018 1018 1018 1018 1018 
1018 1018 1018 1018 1018 1018 1018 1018 1018 
1018 1018 1018 1018 1018 1018 1018 1018 1018 
1018 1018 1018 1018 1018 1018 1018 1018 1018 
1018 1018 1018 1018 1018 1018 1018 1018 1018 
1018 1018 1018 1018 1018 1018 1018 1018 1018 
1018 1018 1018 1018 1018 1018 1018 1018 1018 
1018 1018 1018 1018 1018 1018 1018 1018 1018 
1018 1018 1018 1018 1018 1018 1018 1018 1018 
1018 1018 1018 1018 1018 1018 1018 1018 1018 
1018 1018 1018 1018 1018 1018 1018 1018 1018 
1018 1018 1018 1018 1018 1018 1018 1018 1018 
1018 1018 1018 1018 1018 1018 1018 1018 1018 
1018 1018 1018 1018 1018 1018 1018 1018 1018 
1018 1018 1018 1018 1018 1018 1018 1018 1018 
1018 1018 1018 1018 1018 1018 1018 1018 1018 
1018 1018 1018 1018 1018 1018 1018 1018 1018 
1018 1018 1018 1018 1018 1018 1018 1018 1018 
1018 1018 1018 1018 1018 1018 1018 1018 1018 
1018 1018 1018 1018 1018 1018 1018 1018 1018 
1018 1018 1018 1018 1018 1018 1018 1018 1018 
1018 1018 1018 1018 1018 1018 1018 1018 1018 
1018 1018 1018 1018 1018 1018 1018 1018 1018 
1018 1018 1018 1018 1018 1018 1018 1018 1018 
1018 1018 1018 1018 1018 1018 1018 1018 1018 
1018 1018 1018 1018 1018 1018 1018 1018 1018 
1018 1018 1018 1018 1018 1018 1018 1018 1018 
1018 1018 1018 1018 1018 1018 1018 1018 1018 
1018 1018 1018 1018 1018 1018 1018 1018 1018 
1018 1018 1018 1018 1018 1018 1018 1018 1018 
1018 1018 1018 1018 1018 1018 1018 1018 1018 
1018 1018 1018 1018 1018 1018 1018 1018 1018 
1018 1018 1018 1018 1018 1018 1018 1018 1018 
1018 1018 1018 1018 1018 1018 1018 1018 1018 
1018 1018 1018 1018 1018 1018 1018 1018 1018 
1018 1018 1018 1018 1018 1018 1018 1018 1018 
1018 1018 1018 1018 1018 1018 1018 1018 1018 
1018 1018 1018 1018 1018 1018 1018 1018 1018 
1018 1018 1018 1018 1018 1018 1018 1018 1018 
1018 1018 1018 1018 1018 1018 1018 1018 1018 
1018 1018 1018 1018 1018 1018 1018 1018 1018 
1018 1018 1018 1018 1018 1018 1018 1018 1018 
1018 1018 1018 1018 1018 1018 1018 1018 1018 
1018 1018 1018 1018 1018 1018 1018 1018 1018 
1018 1018 1018 1018 1018 1018 1018 1018 1018 
1018 1018 1018 1018 1018 1018 1018 1018 1018 
1018 1018 1018 1018 1018 1018 1018 1018 1018 
1018 1018 1018 1018 1018 1018 1018 1018 1018 
1018 1018 1018 1018 1018 1018 1018 1018 1018 
1018 1018 1018 1018 1018 1018 1018 1018 1018 
1018 1018 1018 1018 1018 1018 1018 1018 1018 
1018 1018 1018 1018 1018 1018 1018 1018 1018 
1018 1018 1018 1018 1018 1018 1018 1018 1018 
1018 1018 1018 1018 1018 1018 1018 1018 1018 
1018 1018 1018 1018 1018 1018 1018 1018 1018 
1018 1018 1018 1018 1018 1018 1018 1018 1018 
1018 1018 1018 1018 1018 1018 1018 1018 1018 
1018 1018 1018 1018 1018 1018 1018 1018 1018 
1018 1018 1018 1018 1018 1018 1018 1018 1018 
1018 1018 1018 1018 1018 1018 1018 1018 1018 
1018 1018 1018 1018 1018 1018 1018 1018 1018 
1018 1018 1018 1018 1018 1018 1018 1018 1018 
1018 1018 1018 1018 1018 1018 1018 1018 1018 
1018 1018 1018 1018 1018 1018 1018 1018 1018 
1018 1018 1018 1018 1018 1018 1018 1018 1018 
1018 1018 1018 1018 1018 1018 1018 1018 1018 
1018 1018 1018 1018 1018 1018 1018 1018 1018 
1018 1018 1018 1018 1018 1018 1018 1018 1018 
1018 1018 1018 1018 1018 1018 1018 1018 1018 
1018 1018 1018 1018 1018 1018 1018 1018 1018 
1018 1018 1018 1018 1018 1018 1018 1018 1018 
1018 1018 1018 1018 1018 1018 1018 1018 1018 
1018 1018 1018 1018 1018 1018 1018 1018 1018 
1018 1018 1018 1018 1018 1018 1018 1018 1018 
1018 1018 1018 1018 1018 1018 1018 1018 1018 
1018 1018 1018 1018 1018 1018 1018 1018 1018 
1018 1018 1018 1018 1018 1018 1018 1018 1018 
1018 1018 1018 1018 1018 1018 1018 1018 1018 
1018 1018 1018 1018 1018 1018 1018 1018 1018 
1018 1018 1018 1018 1018 1018 1018 1018 1018 
1018 1018 1018 1018 1018 1018 1018 1018 1018 
1018 1018 1018 1018 1018 1018 1018 1018 1018 
1018 1018 1018 1018 1018 1018 1018 1018 1018 
1018 1018 1018 1018 1018 1018 1018 1018 1018 
1018 1018 1018 1018 1018 1018 1018 1018 1018 
1018 1018 1018 1018 1018 1018 1018 1018 1018 
1018 1018 1018 1018 1018 1018 1018 1018 1018 
1018 1018 1018 1018 1018 1018 1018 1018 1018 
1018 1018 1018 1018 1018 1018 1018 1018 1018 
1018 1018 1018 1018 1018 1018 1018 1018 1018 
1018 1018 1018 1018 1018 1018 1018 1018 1018 
1018 1018 1018 1018 1018 1018 1018 1018 1018 
1018 1018 1018 1018 1018 1018 1018 1018 1018 
1018 1018 1018 1018 1018 1018 1018 1018 1018 
1018 1018 1018 1018 1018 1018 1018 1018 1018 
1018 1018 1018 1018 1018 1018 1018 1018 1018 
1018 1018 1018 1018 1018 1018 1018 1018 1018 
1018 1018 1018 1018 1018 1018 1018 1018 1018 
1018 1018 1018 1018 1018 1018 1018 1018 1018 
1018 1018 1018 1018 1018 1018 1018 1018 1018 
1018 1018 1018 1018 1018 1018 1018 1018 1018 
1018 1018 1018 1018 1018 1018 1018 1018 1018 
1018 1018 1018 1018 1018 1018 1018 1018 1018 
1018 1018 1018 1018 1018 1018 1018 1018 1018 
1018 1018 1018 1018 1018 1018 1018 1018 1018 
1018 1018 1018 1018 1018 1018 1018 1018 1018 
1018 1018 1018 1018 1018 1018 1018 1018 1018 
1018 1018 1018 1018 1018 1018 1018 1018 1018 
1018 1018 1018 1018 1018 1018 1018 1018 1018 
1018 1018 1018 1018 1018 1018 1018 1018 1018 
1018 1018 1018 1018 1018 1018 1018 1018 1018 
1018 1018 1018 1018 1018 1018 1018 1018 1018 
1018 1018 1018 1018 1018 1018 1018 1018 1018 
1018 1018 1018 1018 1018 1018 1018 1018 1018 
1018 1018 1018 1018 1018 1018 1018 1018 1018 
1018 1018 1018 1018 1018 1018 1018 1018 1018 
1018 1018 1018 1018 1018 1018 1018 1018 1018 
1018 1018 1018 1018 1018 1018 1018 1018 1018 
1018 1018 1018 1018 1018 1018 1018 1018 1018 
1018 1018 1018 1018 1018 1018 1018 1018 1018 
1018 1018 1018 1018 1018 1018 1018 1018 1018 
1018 1018 1018 1018 1018 1018 1018 1018 1018 
1018 1018 1018 1018 1018 1018 1018 1018 1018 
1018 1018 1018 1018 1018 1018 1018 1018 1018 
1018 1018 1018 1018 1018 1018 1018 1018 1018 
1018 1018 1018 1018 1018 1018 1018 1018 1018 
1018 1018 1018 1018 1018 1018 1018 1018 1018 
1018 1018 1018 1018 1018 1018 1018 1018 1018 
1018 1018 1018 1018 1018 1018 1018 1018 1018 
1018 1018 1018 1018 1018 1018 1018 1018 1018 
1018 1018 1018 1018 1018 1018 1018 1018 1018 
1018 1018 1018 1018 1018 1018 1018 1018 1018 
1018 1018 1018 1018 1018 1018 1018 1018 1018 
1018 1018 1018 1018 1018 1018 1018 1018 1018 
1018 1018 1018 1018 1018 1018 1018 1018 1018 
1018 1018 1018 1018 1018 1018 1018 1018 1018 
1018 1018 1018 1018 1018 1018 1018 1018 1018 
1018 1018 1018 1018 1018 1018 1018 1018 1018 
1018 1018 1018 1018 1018 1018 1018 1018 1018 
1018 1018 1018 1018 1018 1018 1018 1018 1018 
1018 1018 1018 1018 1018 1018 1018 1018 1018 
1018 1018 1018 1018 1018 1018 1018 1018 1018 
1018 1018 1018 1018 1018 1018 1018 1018 1018 
1018 1018 1018 1018 1018 1018 1018 1018 1018 
1018 1018 1018 1018 1018 1018 1018 1018 1018 
1018 1018 1018 1018 1018 1018 1018 1018 1018 
1018 1018 1018 1018 1018 1018 1018 1018 1018 
1018 1018 1018 1018 1018 1018 1018 1018 1018 
1018 1018 1018 1018 1018 1018 1018 1018 1018 
1018 1018 1018 1018 1018 1018 1018 1018 1018 
1018 1018 1018 1018 1018 1018 1018 1018 1018 
1018 1018 1018 1018 1018 1018 1018 1018 1018 
1018 1018 1018 1018 1018 1018 1018 1018 1018 
1018 1018 1018 1018 1018 1018 1018 1018 1018 
1018 1018 1018 1018 1018 1018 1018 1018 1018 
1018 1018 1018 1018 1018 1018 1018 1018 1018 
1018 1018 1018 1018 1018 1018 1018 1018 1018 
1018 1018 1018 1018 1018 1018 1018 1018 1018 
1018 1018 1018 1018 1018 1018 1018 1018 1018 
1018 1018 1018 1018 1018 1018 1018 1018 1018 
1018 1018 1018 1018 1018 1018 1018 1018 1018 
1018 1018 1018 1018 1018 1018 1018 1018 1018 
1018 1018 1018 1018 1018 1018 1018 1018 1018 
1018 1018 1018 1018 1018 1018 1018 1018 1018 
1018 1018 1018 1018 1018 1018 1018 1018 1018 
1018 1018 1018 1018 1018 1018 1018 1018 1018 
1018 1018 1018 1018 1018 1018 1018 1018 1018 
1018 1018 1018 1018 1018 1018 1018 1018 1018 
1018 1018 1018 1018 1018 1018 1018 1018 1018 
1018 1018 1018 1018 1018 1018 1018 1018 1018 
1018 1018 1018 1018 1018 1018 1018 1018 1018 
1018 1018 1018 1018 1018 1018 1018 1018 1018 
1018 1018 1018 1018 1018 1018 1018 1018 1018 
1018 1018 1018 1018 1018 1018 1018 1018 1018 
1018 1018 1018 1018 1018 1018 1018 1018 1018 
1018 1018 1018 1018 1018 1018 1018 1018 1018 
1018 1018 1018 1018 1018 1018 1018 1018 1018 
1018 1018 1018 1018 1018 1018 1018 1018 1018 
1018 1018 1018 1018 1018 1018 1018 1018 1018 
1018 1018 1018 1018 1018 1018 1018 1018 1018 
1018 1018 1018 1018 1018 1018 1018 1018 1018 
1018 1018 1018 1018 1018 1018 1018 1018 1018 
1018 1018 1018 1018 1018 1018 1018 1018 1018 
1018 1018 1018 1018 1018 1018 1018 1018 1018 
1018 1018 1018 1018 1018 1018 1018 1018 1018 
1018 1018 1018 1018 1018 1018 1018 1018 1018 
1018 1018 1018 1018 1018 1018 1018 1018 1018 
1018 1018 1018 1018 1018 1018 1018 1018 1018 
1018 1018 1018 1018 1018 1018 1018 1018 1018 
1018 1018 1018 1018 1018 1018 1018 1018 1018 
1018 1018 1018 1018 1018 1018 1018 1018 1018 
1018 1018 1018 1018 1018 1018 1018 1018 1018 
1018 1018 1018 1018 1018 1018 1018 1018 1018 
1018 1018 1018 1018 1018 1018 1018 1018 1018 
1018 1018 1018 1018 1018 1018 1018 1018 1018 
1018 1018 1018 1018 1018 1018 1018 1018 1018 
1018 1018 1018 1018 1018 1018 1018 1018 1018 
1018 1018 1018 1018 1018 1018 1018 1018 1018 
1018 1018 1018 1018 1018 1018 1018 1018 1018 
1018 1018 1018 1018 1018 1018 1018 1018 1018 
1018 1018 1018 1018 1018 1018 1018 1018 1018 
1018 1018 1018 1018 1018 1018 1018 1018 1018 
1018 1018 1018 1018 1018 1018 1018 1018 1018 
1018 1018 1018 1018 1018 1018 1018 1018 1018 
1018 1018 1018 1018 1018 1018 1018 1018 1018 
1018 1018 1018 1018 1018 1018 1018 1018 1018 
1018 1018 1018 1018 1018 1018 1018 1018 1018 
1018 1018 1018 1018 1018 1018 1018 1018 1018 
1018 1018 1018 1018 1018 1018 1018 1018 1018 
1018 1018 1018 1018 1018 1018 1018 1018 1018 
1018 1018 1018 1018 1018 1018 1018 1018 1018 
1018 1018 1018 1018 1018 1018 1018 1018 1018 
1018 1018 1018 1018 1018 1018 1018 1018 1018 
1018 1018 1018 1018 1018 1018 1018 1018 1018 
1018 1018 1018 1018 1018 1018 1018 1018 1018 
1018 1018 1018 1018 1018 1018 1018 1018 1018 
1018 1018 1018 1018 1018 1018 1018 1018 1018 
1018 1018 1018 1018 1018 1018 1018 1018 1018 
1018 1018 1018 1018 1018 1018 1018 1018 1018 
1018 1018 1018 1018 1018 1018 1018 1018 1018 
1018 1018 1018 1018 1018 1018 1018 1018 1018 
1018 1018 1018 1018 1018 1018 1018 1018 1018 
1018 1018 1018 1018 1018 1018 1018 1018 1018 
1018 1018 1018 1018 1018 1018 1018 1018 1018 
1018 1018 1018 1018 1018 1018 1018 1018 1018 
1018 1018 1018 1018 1018 1018 1018 1018 1018 
1018 1018 1018 1018 1018 1018 1018 1018 1018 
1018 1018 1018 1018 1018 1018 1018 1018 1018 
1018 1018 1018 1018 1018 1018 1018 1018 1018 
1018 1018 1018 1018 1018 1018 1018 1018 1018 
1018 1018 1018 1018 1018 1018 1018 1018 1018 
1018 1018 1018 1018 1018 1018 1018 1018 1018 
1018 1018 1018 1018 1018 1018 1018 1018 1018 
1018 1018 1018 1018 1018 1018 1018 1018 1018 
1018 1018 1018 1018 1018 1018 1018 1018 1018 
1018 1018 1018 1018 1018 1018 1018 1018 1018 
1018 1018 1018 1018 1018 1018 1018 1018 1018 
1018 1018 1018 1018 1018 1018 1018 1018 1018 
1018 1018 1018 1018 1018 1018 1018 1018 1018 
1018 1018 1018 1018 1018 1018 1018 1018 1018 
1018 1018 1018 1018 1018 1018 1018 1018 1018 
1018 1018 1018 1018 1018 1018 1018 1018 1018 
1018 1018 1018 1018 1018 1018 1018 1018 1018 
1018 1018 1018 1018 1018 1018 1018 1018 1018 
1018 1018 1018 1018 1018 1018 1018 1018 1018 
1018 1018 1018 1018 1018 1018 1018 1018 1018 
1018 1018 1018 1018 1018 1018 1018 1018 1018 
1018 1018 1018 1018 1018 1018 1018 1018 1018 