# vtk DataFile Version 4.2
vtk output
ASCII
DATASET POLYDATA
POINTS 12586 float
-17.2326 -47.49 1.9892 -17.0557 -47.8156 2.14336 -17.1954 -47.7036 2.2334 
-17.4565 -47.6423 2.07459 -17.2892 -47.857 2.14294 -16.1905 -45.9049 1.69942 
-16.0642 -45.5515 1.42719 -15.8092 -45.7605 1.43853 -16.6185 -45.9998 1.72077 
-16.5536 -45.6779 1.49088 -16.9098 -45.8666 1.45469 -15.9682 -46.2102 1.48053 
-16.2625 -46.6974 1.55291 -16.6099 -46.4859 1.73533 -16.9689 -46.2799 1.55248 
-16.556 -47.1113 1.77662 -16.2167 -47.1698 1.58617 -17.1116 -46.7381 1.59609 
-17.0022 -47.1095 1.8109 -17.4465 -47.0468 1.40121 -16.2042 -47.6754 1.70189 
-15.8889 -47.4826 1.47843 -15.7254 -47.8103 1.42501 -16.7795 -47.6885 1.94219 
-17.786 -47.7978 1.86993 -17.8217 -47.4426 1.56943 -18.2797 -47.8411 1.66719 
-18.2789 -47.5447 1.51861 -18.6032 -47.7338 1.30863 -15.9586 -48.07 1.44009 
-16.3051 -48.3554 1.32237 -16.4803 -48.1746 1.7251 -17.1825 -48.2465 1.87545 
-17.9083 -48.3024 1.76484 -18.2709 -48.2262 1.60267 -18.4594 -47.9624 1.5256 
-16.728 -48.5115 1.55072 -17.1661 -48.7408 1.52044 -17.4945 -48.9636 1.51661 
-17.6519 -48.7778 1.67106 -18.1081 -48.7106 1.5543 -17.7428 -49.1017 1.40774 
-16.056 -45.3238 1.11783 -15.9213 -45.1808 0.804066 -15.7706 -45.4282 1.09908 
-16.2485 -45.267 0.731223 -15.6163 -45.8587 0.977133 -16.5454 -45.4827 0.985995 
-17.2372 -46.0454 1.18064 -17.1411 -45.6568 0.959294 -17.554 -45.8584 0.805815 
-15.5551 -46.4941 1.15392 -15.3442 -46.2265 0.701921 -15.1789 -46.6603 0.884775 
-15.9456 -46.5557 1.36713 -17.2687 -46.533 1.3301 -17.5385 -46.4222 0.966403 
-15.3475 -47.0079 1.10393 -15.1653 -47.082 0.783247 -15.8431 -47.006 1.33764 
-17.6567 -46.9582 0.888602 -15.4382 -47.5175 1.16607 -15.251 -47.5846 0.84494 
-17.8948 -47.2962 0.925195 -18.4058 -47.4667 0.959665 -18.8234 -47.623 0.854929 
-15.5049 -47.8983 1.08438 -15.8707 -48.0582 1.00069 -16.2864 -48.2087 0.757571 
-18.5968 -48.3426 1.34885 -18.9457 -47.9678 1.03999 -19.031 -48.4291 1.09458 
-19.2632 -48.3256 0.820029 -16.7011 -48.6478 1.09831 -17.2126 -48.9627 1.23296 
-16.9318 -48.9224 0.734843 -18.3032 -49.0397 1.34093 -18.8482 -48.9638 1.14127 
-19.2201 -48.8599 0.845874 -17.3598 -49.2318 0.985126 -17.8661 -49.4147 1.16023 
-17.5454 -49.5283 0.741275 -18.3914 -49.4583 1.13719 -18.8182 -49.5752 0.833917 
-19.0935 -49.2641 0.842175 -17.9671 -49.6843 0.931027 -18.3594 -49.8387 0.807243 
-16.0636 -44.9814 0.232874 -15.7328 -45.2584 0.415901 -16.4083 -45.2621 0.277592 
-15.6605 -45.7567 0.262473 -16.6093 -45.4446 0.464658 -17.1401 -45.6496 0.297597 
-17.9366 -46.0751 0.561356 -17.7046 -45.7109 0.46718 -18.0485 -45.8691 0.323199 
-15.4667 -46.1778 0.286981 -15.2023 -46.5313 0.495168 -17.8228 -46.6106 0.69007 
-18.2084 -46.1691 0.17412 -18.2041 -46.6106 0.44258 -18.5848 -46.4983 0.0936813 
-15.3516 -46.7914 0.399069 -15.4905 -47.266 0.582623 -15.8066 -46.829 0.291605 
-15.9946 -47.249 0.456606 -16.2272 -46.9492 0.145775 -17.9567 -47.052 0.582257 
-18.2591 -47.0573 0.334653 -18.4242 -46.8567 0.277872 -19.6195 -47.2765 0.49937 
-19.6433 -46.9022 0.336914 -19.3429 -47.0939 0.320087 -19.8415 -46.938 0.19417 
-15.4975 -47.7454 0.771323 -15.9006 -47.7017 0.655138 -16.2739 -47.6072 0.291756 
-18.2917 -47.3172 0.445532 -19.2398 -47.6916 0.664243 -18.8276 -47.3595 0.394899 
-19.6403 -47.804 0.565819 -19.8705 -47.5289 0.283978 -16.4514 -48.1166 0.196037 
-19.5332 -48.2853 0.567773 -19.8347 -48.2097 0.218861 -16.6077 -48.5471 0.496953 
-16.8854 -48.9042 0.116341 -19.4369 -48.8915 0.41564 -19.6838 -48.692 0.253331 
-17.1814 -49.254 0.484021 -17.409 -49.5245 0.384604 -19.0657 -49.5339 0.624532 
-19.2311 -49.3509 0.464232 -17.7672 -49.8413 0.412321 -18.3115 -50.1102 0.503389 
-18.0575 -50.2033 0.241658 -18.6569 -50.0332 0.460291 -19.0055 -49.7712 0.236961 
-18.3933 -50.3001 0.144507 -15.9594 -44.6504 -0.110074 -15.9258 -44.4012 -0.367287 
-15.7794 -44.7264 -0.261855 -16.1958 -44.6251 -0.227394 -15.8085 -45.1784 -0.331375 
-16.7247 -45.4279 -0.00805664 -16.4715 -45.0542 -0.131511 -16.7812 -45.1847 -0.469849 
-18.5596 -45.205 -0.0860458 -18.5722 -45.0764 -0.408838 -18.3147 -45.3693 -0.213748 
-18.8498 -45.3891 -0.110857 -18.8831 -45.0495 -0.255304 -19.2013 -45.2951 -0.479613 
-15.9807 -45.5908 -0.230045 -15.9307 -46.0653 -0.0450989 -16.2326 -45.7668 -0.473973 
-17.0311 -45.7283 -0.341414 -17.377 -46.0174 -0.0304779 -17.7952 -45.9327 0.172993 
-18.4823 -45.761 0.00651855 -18.2348 -45.9338 -0.283969 -18.6768 -45.9736 -0.252786 
-18.8289 -45.5693 -0.470792 -15.585 -46.4434 0.17141 -16.0361 -46.5162 0.044696 
-16.2994 -46.4147 -0.306432 -17.3132 -46.2135 -0.231487 -17.7515 -46.3849 -0.0769089 
-17.5289 -46.4867 -0.476779 -18.0503 -46.4527 -0.22928 -18.7718 -46.4329 -0.346417 
-19.5854 -46.6756 0.00675201 -19.5663 -46.341 -0.340906 -19.2886 -46.6014 -0.259785 
-19.8745 -46.4314 -0.347699 -16.3648 -47.0896 -0.282491 -17.8417 -46.6926 -0.408971 
-18.6137 -47.0653 0.122246 -18.9193 -46.7345 -0.198001 -19.1023 -46.954 -0.00809784 
-19.967 -47.0679 -0.250127 -16.4088 -47.7865 -0.372665 -19.9611 -47.7175 -0.251317 
-16.5885 -48.1218 -0.187843 -16.6553 -48.3813 0.0643387 -16.7439 -48.4849 -0.249783 
-19.9605 -48.2204 -0.357262 -16.8216 -49.0077 -0.424278 -19.6088 -49.0509 -0.0134674 
-19.8478 -48.732 -0.255116 -17.2307 -49.4615 0.102058 -17.0143 -49.422 -0.334909 
-19.3368 -49.4407 -0.114436 -19.6405 -49.2058 -0.493112 -17.3395 -49.8212 -0.185197 
-17.7025 -50.1107 -0.00983276 -17.5247 -50.152 -0.485403 -18.7254 -50.1592 -0.129419 
-19.0276 -49.8631 -0.465399 -18.0107 -50.36 -0.268236 -18.4297 -50.3729 -0.374199 
-16.5813 -43.6485 -0.717101 -16.6726 -43.1352 -1.06811 -16.3001 -43.5317 -1.00206 
-16.9257 -43.4668 -0.934355 -16.1953 -44.0794 -0.595624 -16.0263 -43.9156 -0.956429 
-15.8112 -44.2813 -0.809514 -16.6136 -44.1598 -0.645918 -16.9327 -43.9437 -0.837978 
-15.7557 -44.825 -0.940544 -16.5433 -44.6432 -0.495021 -16.9137 -44.6321 -0.821306 
-15.9675 -45.114 -0.829683 -16.0874 -45.3465 -0.57323 -16.178 -45.4686 -0.880449 
-17.028 -45.2664 -0.83822 -18.4346 -45.4231 -0.475589 -18.7381 -45.3469 -0.829056 
-19.0014 -45.079 -0.685991 -19.2669 -45.2652 -0.953412 -16.275 -46.0399 -0.831317 
-17.1491 -45.677 -0.787358 -17.2287 -46.0514 -0.523572 -17.3869 -45.9293 -0.941226 
-18.4361 -45.921 -0.536453 -18.7728 -45.7762 -0.868231 -19.1328 -45.8295 -0.640787 
-19.5172 -45.5709 -0.91387 -19.6076 -46.0166 -0.590767 -19.863 -45.94 -0.918256 
-16.2829 -46.6603 -0.796907 -17.5677 -46.5129 -1.02909 -18.5608 -46.1944 -0.878004 
-18.0995 -46.4713 -0.703038 -19.1241 -46.3427 -0.49948 -19.8985 -46.5415 -0.869009 
-16.2683 -47.2677 -0.80555 -17.7836 -46.7418 -0.870749 -19.8891 -47.2826 -0.897354 
-16.2408 -47.8096 -0.895129 -19.9692 -47.8343 -0.79053 -16.582 -48.2374 -0.478972 
-16.3274 -48.3947 -0.92363 -19.9676 -48.3123 -0.889435 -16.6298 -48.6968 -0.619977 
-16.4676 -48.912 -1.01454 -19.8777 -48.8481 -0.916608 -16.6635 -49.1049 -0.835318 
-16.8866 -49.4463 -0.942517 -19.3387 -49.5484 -0.779425 -19.6523 -49.2376 -1.07051 
-17.1834 -49.8259 -0.730042 -17.4783 -50.148 -1.06437 -18.7149 -50.1793 -0.766891 
-19.0254 -49.8568 -1.08566 -17.8579 -50.383 -0.910712 -18.324 -50.3926 -0.891321 
-16.6215 -42.8204 -1.29666 -16.6151 -42.781 -1.47039 -16.4579 -43.0613 -1.41622 
-16.7558 -42.8676 -1.38495 -16.289 -43.4616 -1.45543 -17.2416 -43.6835 -1.18138 
-17.0168 -43.1391 -1.48691 -17.4244 -43.3645 -1.62525 -15.9172 -44.1704 -1.22641 
-16.167 -43.8733 -1.44887 -17.2463 -44.2661 -1.16361 -17.4762 -43.9452 -1.55602 
-15.9921 -44.3498 -1.69 -15.7634 -44.5704 -1.37861 -17.2364 -44.8775 -1.19323 
-17.4614 -44.5463 -1.57933 -15.9486 -45.2233 -1.13579 -15.7754 -45.1917 -1.52251 
-17.2515 -45.3804 -1.09751 -17.4506 -45.2458 -1.49469 -18.9883 -45.3268 -1.15367 
-16.0291 -45.7174 -1.22254 -15.8161 -45.8719 -1.62726 -17.4997 -45.9534 -1.47608 
-19.036 -45.5269 -1.55349 -18.6677 -45.7634 -1.34236 -19.5925 -45.64 -1.4748 
-19.8122 -45.9987 -1.34001 -16.0553 -46.3329 -1.21295 -15.8151 -46.4999 -1.59201 
-17.574 -46.4944 -1.62055 -18.3153 -46.1301 -1.60151 -18.0564 -46.5115 -1.44359 
-19.7003 -46.4128 -1.28154 -19.4598 -46.5315 -1.59028 -19.6062 -46.1081 -1.59758 
-16.042 -46.9358 -1.19871 -15.7231 -47.1645 -1.55545 -17.7704 -46.7311 -1.4756 
-19.6531 -46.889 -1.2401 -19.4525 -47.0284 -1.69689 -16.0201 -47.5542 -1.18961 
-15.7093 -47.8694 -1.47654 -19.683 -47.2993 -1.45998 -19.8827 -47.732 -1.42428 
-16.0097 -48.1372 -1.2267 -15.752 -48.2804 -1.47616 -19.8921 -48.3794 -1.50541 
-15.8788 -48.5672 -1.50393 -16.2105 -48.9041 -1.44352 -19.8108 -48.9258 -1.37432 
-16.5348 -49.2236 -1.40656 -16.8859 -49.5259 -1.66846 -19.3402 -49.4668 -1.39016 
-19.6454 -49.1632 -1.44722 -17.2524 -49.8367 -1.43669 -17.6025 -50.1149 -1.55826 
-18.708 -50.0919 -1.39478 -19.0301 -49.7871 -1.47854 -17.7979 -50.3167 -1.37923 
-18.208 -50.3416 -1.42769 -16.6431 -42.9867 -1.68945 -17.2895 -42.9645 -1.81295 
-17.2545 -42.7156 -2.05827 -17.0164 -42.8365 -2.03357 -17.446 -42.84 -2.13986 
-16.6544 -43.0418 -2.09531 -16.3633 -43.3978 -1.99395 -17.5439 -43.4777 -2.08324 
-16.2333 -44.0197 -2.10431 -17.5415 -44.0894 -2.10125 -16.0418 -44.4354 -2.26747 
-15.8044 -44.7722 -1.94945 -17.5278 -44.6895 -2.11464 -15.7283 -45.3039 -2.11208 
-17.5033 -45.3274 -2.07318 -15.6594 -45.9683 -2.11149 -17.4979 -45.942 -2.06709 
-18.4625 -45.8252 -1.83615 -18.4914 -45.6882 -2.21541 -18.1734 -46.0872 -2.05618 
-19.0657 -45.6375 -2.0952 -19.5598 -45.7866 -1.76475 -19.2891 -46.0717 -2.01749 
-15.5982 -46.6226 -1.92572 -17.6226 -46.3882 -2.19063 -18.0718 -46.5156 -2.14622 
-19.255 -46.6766 -2.02117 -15.4549 -47.0569 -1.87632 -15.3214 -46.8364 -2.1176 
-15.1357 -47.3043 -2.17946 -17.8181 -46.7094 -2.03493 -19.3223 -47.0632 -2.05401 
-15.4076 -47.5624 -1.77366 -15.1887 -47.8079 -2.06656 -19.5235 -47.3858 -2.05426 
-19.7966 -47.8368 -1.96723 -15.4602 -48.191 -1.76067 -15.2204 -48.2416 -2.25525 
-19.7282 -48.2282 -1.93753 -19.4913 -48.3023 -2.21448 -19.6372 -47.9133 -2.23297 
-15.5229 -48.63 -2.00259 -15.8707 -48.8959 -1.83291 -15.7219 -48.9201 -2.28133 
[...]
CELL_DATA 25204
SCALARS scalars float
LOOKUP_TABLE default
1007 1007 1007 1007 1007 1007 1007 1007 1007 
1007 1007 1007 1007 1007 1007 1007 1007 1007 
1007 1007 1007 1007 1007 1007 1007 1007 1007 
1007 1007 1007 1007 1007 1007 1007 1007 1007 
1007 1007 1007 1007 1007 1007 1007 1007 1007 
1007 1007 1007 1007 1007 1007 1007 1007 1007 
1007 1007 1007 1007 1007 1007 1007 1007 1007 
1007 1007 1007 1007 1007 1007 1007 1007 1007 
1007 1007 1007 1007 1007 1007 1007 1007 1007 
1007 1007 1007 1007 1007 1007 1007 1007 1007 
1007 1007 1007 1007 1007 1007 1007 1007 1007 
1007 1007 1007 1007 1007 1007 1007 1007 1007 
1007 1007 1007 1007 1007 1007 1007 1007 1007 
1007 1007 1007 1007 1007 1007 1007 1007 1007 
1007 1007 1007 1007 1007 1007 1007 1007 1007 
1007 1007 1007 1007 1007 1007 1007 1007 1007 
1007 1007 1007 1007 1007 1007 1007 1007 1007 
1007 1007 1007 1007 1007 1007 1007 1007 1007 
1007 1007 1007 1007 1007 1007 1007 1007 1007 
1007 1007 1007 1007 1007 1007 1007 1007 1007 
1007 1007 1007 1007 1007 1007 1007 1007 1007 
1007 1007 1007 1007 1007 1007 1007 1007 1007 
1007 1007 1007 1007 1007 1007 1007 1007 1007 
1007 1007 1007 1007 1007 1007 1007 1007 1007 
1007 1007 1007 1007 1007 1007 1007 1007 1007 
1007 1007 1007 1007 1007 1007 1007 1007 1007 
1007 1007 1007 1007 1007 1007 1007 1007 1007 
1007 1007 1007 1007 1007 1007 1007 1007 1007 
1007 1007 1007 1007 1007 1007 1007 1007 1007 
1007 1007 1007 1007 1007 1007 1007 1007 1007 
1007 1007 1007 1007 1007 1007 1007 1007 1007 
1007 1007 1007 1007 1007 1007 1007 1007 1007 
1007 1007 1007 1007 1007 1007 1007 1007 1007 
1007 1007 1007 1007 1007 1007 1007 1007 1007 
1007 1007 1007 1007 1007 1007 1007 1007 1007 
1007 1007 1007 1007 1007 1007 1007 1007 1007 
1007 1007 1007 1007 1007 1007 1007 1007 1007 
1007 1007 1007 1007 1007 1007 1007 1007 1007 
1007 1007 1007 1007 1007 1007 1007 1007 1007 
1007 1007 1007 1007 1007 1007 1007 1007 1007 
1007 1007 1007 1007 1007 1007 1007 1007 1007 
1007 1007 1007 1007 1007 1007 1007 1007 1007 
1007 1007 1007 1007 1007 1007 1007 1007 1007 
1007 1007 1007 1007 1007 1007 1007 1007 1007 
1007 1007 1007 1007 1007 1007 1007 1007 1007 
1007 1007 1007 1007 1007 1007 1007 1007 1007 
1007 1007 1007 1007 1007 1007 1007 1007 1007 
1007 1007 1007 1007 1007 1007 1007 1007 1007 
1007 1007 1007 1007 1007 1007 1007 1007 1007 
1007 1007 1007 1007 1007 1007 1007 1007 1007 
1007 1007 1007 1007 1007 1007 1007 1007 1007 
1007 1007 1007 1007 1007 1007 1007 1007 1007 
1007 1007 1007 1007 1007 1007 1007 1007 1007 
1007 1007 1007 1007 1007 1007 1007 1007 1007 
1007 1007 1007 1007 1007 1007 1007 1007 1007 
1007 1007 1007 1007 1007 1007 1007 1007 1007 
1007 1007 1007 1007 1007 1007 1007 1007 1007 
1007 1007 1007 1007 1007 1007 1007 1007 1007 
1007 1007 1007 1007 1007 1007 1007 1007 1007 
1007 1007 1007 1007 1007 1007 1007 1007 1007 
1007 1007 1007 1007 1007 1007 1007 1007 1007 
1007 1007 1007 1007 1007 1007 1007 1007 1007 
1007 1007 1007 1007 1007 1007 1007 1007 1007 
1007 1007 1007 1007 1007 1007 1007 1007 1007 
1007 1007 1007 1007 1007 1007 1007 1007 1007 
1007 1007 1007 1007 1007 1007 1007 1007 1007 
1007 1007 1007 1007 1007 1007 1007 1007 1007 
1007 1007 1007 1007 1007 1007 1007 1007 1007 
1007 1007 1007 1007 1007 1007 1007 1007 1007 
1007 1007 1007 1007 1007 1007 1007 1007 1007 
1007 1007 1007 1007 1007 1007 1007 1007 1007 
1007 1007 1007 1007 1007 1007 1007 1007 1007 
1007 1007 1007 1007 1007 1007 1007 1007 1007 
1007 1007 1007 1007 1007 1007 1007 1007 1007 
1007 1007 1007 1007 1007 1007 1007 1007 1007 
1007 1007 1007 1007 1007 1007 1007 1007 1007 
1007 1007 1007 1007 1007 1007 1007 1007 1007 
1007 1007 1007 1007 1007 1007 1007 1007 1007 
1007 1007 1007 1007 1007 1007 1007 1007 1007 
1007 1007 1007 1007 1007 1007 1007 1007 1007 
1007 1007 1007 1007 1007 1007 1007 1007 1007 
1007 1007 1007 1007 1007 1007 1007 1007 1007 
1007 1007 1007 1007 1007 1007 1007 1007 1007 
1007 1007 1007 1007 1007 1007 1007 1007 1007 
1007 1007 1007 1007 1007 1007 1007 1007 1007 
1007 1007 1007 1007 1007 1007 1007 1007 1007 
1007 1007 1007 1007 1007 1007 1007 1007 1007 
1007 1007 1007 1007 1007 1007 1007 1007 1007 
1007 1007 1007 1007 1007 1007 1007 1007 1007 
1007 1007 1007 1007 1007 1007 1007 1007 1007 
1007 1007 1007 1007 1007 1007 1007 1007 1007 
1007 1007 1007 1007 1007 1007 1007 1007 1007 
1007 1007 1007 1007 1007 1007 1007 1007 1007 
1007 1007 1007 1007 1007 1007 1007 1007 1007 
1007 1007 1007 1007 1007 1007 1007 1007 1007 
1007 1007 1007 1007 1007 1007 1007 1007 1007 
1007 1007 1007 1007 1007 1007 1007 1007 1007 
1007 1007 1007 1007 1007 1007 1007 1007 1007 
1007 1007 1007 1007 1007 1007 1007 1007 1007 
1007 1007 1007 1007 1007 1007 1007 1007 1007 
1007 1007 1007 1007 1007 1007 1007 1007 1007 
1007 1007 1007 1007 1007 1007 1007 1007 1007 
1007 1007 1007 1007 1007 1007 1007 1007 1007 
1007 1007 1007 1007 1007 1007 1007 1007 1007 
1007 1007 1007 1007 1007 1007 1007 1007 1007 
1007 1007 1007 1007 1007 1007 1007 1007 1007 
1007 1007 1007 1007 1007 1007 1007 1007 1007 
1007 1007 1007 1007 1007 1007 1007 1007 1007 
1007 1007 1007 1007 1007 1007 1007 1007 1007 
1007 1007 1007 1007 1007 1007 1007 1007 1007 
1007 1007 1007 1007 1007 1007 1007 1007 1007 
1007 1007 1007 1007 1007 1007 1007 1007 1007 
1007 1007 1007 1007 1007 1007 1007 1007 1007 
1007 1007 1007 1007 1007 1007 1007 1007 1007 
1007 1007 1007 1007 1007 1007 1007 1007 1007 
1007 1007 1007 1007 1007 1007 1007 1007 1007 
1007 1007 1007 1007 1007 1007 1007 1007 1007 
1007 1007 1007 1007 1007 1007 1007 1007 1007 
1007 1007 1007 1007 1007 1007 1007 1007 1007 
1007 1007 1007 1007 1007 1007 1007 1007 1007 
1007 1007 1007 1007 1007 1007 1007 1007 1007 
1007 1007 1007 1007 1007 1007 1007 1007 1007 
1007 1007 1007 1007 1007 1007 1007 1007 1007 
1007 1007 1007 1007 1007 1007 1007 1007 1007 
1007 1007 1007 1007 1007 1007 1007 1007 1007 
1007 1007 1007 1007 1007 1007 1007 1007 1007 
1007 1007 1007 1007 1007 1007 1007 1007 1007 
1007 1007 1007 1007 1007 1007 1007 1007 1007 
1007 1007 1007 1007 1007 1007 1007 1007 1007 
1007 1007 1007 1007 1007 1007 1007 1007 1007 
1007 1007 1007 1007 1007 1007 1007 1007 1007 
1007 1007 1007 1007 1007 1007 1007 1007 1007 
1007 1007 1007 1007 1007 1007 1007 1007 1007 
1007 1007 1007 1007 1007 1007 1007 1007 1007 
1007 1007 1007 1007 1007 1007 1007 1007 1007 
1007 1007 1007 1007 1007 1007 1007 1007 1007 
1007 1007 1007 1007 1007 1007 1007 1007 1007 
1007 1007 1007 1007 1007 1007 1007 1007 1007 
1007 1007 1007 1007 1007 1007 1007 1007 1007 
1007 1007 1007 1007 1007 1007 1007 1007 1007 
1007 1007 1007 1007 1007 1007 1007 1007 1007 
1007 1007 1007 1007 1007 1007 1007 1007 1007 
1007 1007 1007 1007 1007 1007 1007 1007 1007 
1007 1007 1007 1007 1007 1007 1007 1007 1007 
1007 1007 1007 1007 1007 1007 1007 1007 1007 
1007 1007 1007 1007 1007 1007 1007 1007 1007 
1007 1007 1007 1007 1007 1007 1007 1007 1007 
1007 1007 1007 1007 1007 1007 1007 1007 1007 
1007 1007 1007 1007 1007 1007 1007 1007 1007 
1007 1007 1007 1007 1007 1007 1007 1007 1007 
1007 1007 1007 1007 1007 1007 1007 1007 1007 
1007 1007 1007 1007 1007 1007 1007 1007 1007 
1007 1007 1007 1007 1007 1007 1007 1007 1007 
1007 1007 1007 1007 1007 1007 1007 1007 1007 
1007 1007 1007 1007 1007 1007 1007 1007 1007 
1007 1007 1007 1007 1007 1007 1007 1007 1007 
1007 1007 1007 1007 1007 1007 1007 1007 1007 
1007 1007 1007 1007 1007 1007 1007 1007 1007 
1007 1007 1007 1007 1007 1007 1007 1007 1007 
1007 1007 1007 1007 1007 1007 1007 1007 1007 
1007 1007 1007 1007 1007 1007 1007 1007 1007 
1007 1007 1007 1007 1007 1007 1007 1007 1007 
1007 1007 1007 1007 1007 1007 1007 1007 1007 
1007 1007 1007 1007 1007 1007 1007 1007 1007 
1007 1007 1007 1007 1007 1007 1007 1007 1007 
1007 1007 1007 1007 1007 1007 1007 1007 1007 
1007 1007 1007 1007 1007 1007 1007 1007 1007 
1007 1007 1007 1007 1007 1007 1007 1007 1007 
1007 1007 1007 1007 1007 1007 1007 1007 1007 
1007 1007 1007 1007 1007 1007 1007 1007 1007 
1007 1007 1007 1007 1007 1007 1007 1007 1007 
1007 1007 1007 1007 1007 1007 1007 1007 1007 
1007 1007 1007 1007 1007 1007 1007 1007 1007 
1007 1007 1007 1007 1007 1007 1007 1007 1007 
1007 1007 1007 1007 1007 1007 1007 1007 1007 
1007 1007 1007 1007 1007 1007 1007 1007 1007 
1007 1007 1007 1007 1007 1007 1007 1007 1007 
1007 1007 1007 1007 1007 1007 1007 1007 1007 
1007 1007 1007 1007 1007 1007 1007 1007 1007 
1007 1007 1007 1007 1007 1007 1007 1007 1007 
1007 1007 1007 1007 1007 1007 1007 1007 1007 
1007 1007 1007 1007 1007 1007 1007 1007 1007 
1007 1007 1007 1007 1007 1007 1007 1007 1007 
1007 1007 1007 1007 1007 1007 1007 1007 1007 
1007 1007 1007 1007 1007 1007 1007 1007 1007 
1007 1007 1007 1007 1007 1007 1007 1007 1007 
1007 1007 1007 1007 1007 1007 1007 1007 1007 
1007 1007 1007 1007 1007 1007 1007 1007 1007 
1007 1007 1007 1007 1007 1007 1007 1007 1007 
1007 1007 1007 1007 1007 1007 1007 1007 1007 
1007 1007 1007 1007 1007 1007 1007 1007 1007 
1007 1007 1007 1007 1007 1007 1007 1007 1007 
1007 1007 1007 1007 1007 1007 1007 1007 1007 
1007 1007 1007 1007 1007 1007 1007 1007 1007 
1007 1007 1007 1007 1007 1007 1007 1007 1007 
1007 1007 1007 1007 1007 1007 1007 1007 1007 
1007 1007 1007 1007 1007 1007 1007 1007 1007 
1007 1007 1007 1007 1007 1007 1007 1007 1007 
1007 1007 1007 1007 1007 1007 1007 1007 1007 
1007 1007 1007 1007 1007 1007 1007 1007 1007 
1007 1007 1007 1007 1007 1007 1007 1007 1007 
1007 1007 1007 1007 1007 1007 1007 1007 1007 
1007 1007 1007 1007 1007 1007 1007 1007 1007 
1007 1007 1007 1007 1007 1007 1007 1007 1007 
1007 1007 1007 1007 1007 1007 1007 1007 1007 
1007 1007 1007 1007 1007 1007 1007 1007 1007 
1007 1007 1007 1007 1007 1007 1007 1007 1007 
1007 1007 1007 1007 1007 1007 1007 1007 1007 
1007 1007 1007 1007 1007 1007 1007 1007 1007 
1007 1007 1007 1007 1007 1007 1007 1007 1007 
1007 1007 1007 1007 1007 1007 1007 1007 1007 
1007 1007 1007 1007 1007 1007 1007 1007 1007 
1007 1007 1007 1007 1007 1007 1007 1007 1007 
1007 1007 1007 1007 1007 1007 1007 1007 1007 
1007 1007 1007 1007 1007 1007 1007 1007 1007 
1007 1007 1007 1007 1007 1007 1007 1007 1007 
1007 1007 1007 1007 1007 1007 1007 1007 1007 
1007 1007 1007 1007 1007 1007 1007 1007 1007 
1007 1007 1007 1007 1007 1007 1007 1007 1007 
1007 1007 1007 1007 1007 1007 1007 1007 1007 
1007 1007 1007 1007 1007 1007 1007 1007 1007 
1007 1007 1007 1007 1007 1007 1007 1007 1007 
1007 1007 1007 1007 1007 1007 1007 1007 1007 
1007 1007 1007 1007 1007 1007 1007 1007 1007 
1007 1007 1007 1007 1007 1007 1007 1007 1007 
1007 1007 1007 1007 1007 1007 1007 1007 1007 
1007 1007 1007 1007 1007 1007 1007 1007 1007 
1007 1007 1007 1007 1007 1007 1007 1007 1007 
1007 1007 1007 1007 1007 1007 1007 1007 1007 
1007 1007 1007 1007 1007 1007 1007 1007 1007 
1007 1007 1007 1007 1007 1007 1007 1007 1007 
1007 1007 1007 1007 1007 1007 1007 1007 1007 
1007 1007 1007 1007 1007 1007 1007 1007 1007 
1007 1007 1007 1007 1007 1007 1007 1007 1007 
1007 1007 1007 1007 1007 1007 1007 1007 1007 
1007 1007 1007 1007 1007 1007 1007 1007 1007 
1007 1007 1007 1007 1007 1007 1007 1007 1007 
1007 1007 1007 1007 1007 1007 1007 1007 1007 
1007 1007 1007 1007 1007 1007 1007 1007 1007 
1007 1007 1007 1007 1007 1007 1007 1007 1007 
1007 1007 1007 1007 1007 1007 1007 1007 1007 
1007 1007 1007 1007 1007 1007 1007 1007 1007 
1007 1007 1007 1007 1007 1007 1007 1007 1007 
1007 1007 1007 1007 1007 1007 1007 1007 1007 
1007 1007 1007 1007 1007 1007 1007 1007 1007 
1007 1007 1007 1007 1007 1007 1007 1007 1007 
1007 1007 1007 1007 1007 1007 1007 1007 1007 
1007 1007 1007 1007 1007 1007 1007 1007 1007 
1007 1007 1007 1007 1007 1007 1007 1007 1007 
1007 1007 1007 1007 1007 1007 1007 1007 1007 
1007 1007 1007 1007 1007 1007 1007 1007 1007 
1007 1007 1007 1007 1007 1007 1007 1007 1007 
1007 1007 1007 1007 1007 1007 1007 1007 1007 
1007 1007 1007 1007 1007 1007 1007 1007 1007 
1007 1007 1007 1007 1007 1007 1007 1007 1007 
1007 1007 1007 1007 1007 1007 1007 1007 1007 
1007 1007 1007 1007 1007 1007 1007 1007 1007 
1007 1007 1007 1007 1007 1007 1007 1007 1007 
1007 1007 1007 1007 1007 1007 1007 1007 1007 
1007 1007 1007 1007 1007 1007 1007 1007 1007 
1007 1007 1007 1007 1007 1007 1007 1007 1007 
1007 1007 1007 1007 1007 1007 1007 1007 1007 
1007 1007 1007 1007 1007 1007 1007 1007 1007 
1007 1007 1007 1007 1007 1007 1007 1007 1007 
1007 1007 1007 1007 1007 1007 1007 1007 1007 
1007 1007 1007 1007 1007 1007 1007 1007 1007 
1007 1007 1007 1007 1007 1007 1007 1007 1007 
1007 1007 1007 1007 1007 1007 1007 1007 1007 
1007 1007 1007 1007 1007 1007 1007 1007 1007 
1007 1007 1007 1007 1007 1007 1007 1007 1007 
1007 1007 1007 1007 1007 1007 1007 1007 1007 
1007 1007 1007 1007 1007 1007 1007 1007 1007 
1007 1007 1007 1007 1007 1007 1007 1007 1007 
1007 1007 1007 1007 1007 1007 1007 1007 1007 
1007 1007 1007 1007 1007 1007 1007 1007 1007 
1007 1007 1007 1007 1007 1007 1007 1007 1007 
1007 1007 1007 1007 1007 1007 1007 1007 1007 
1007 1007 1007 1007 1007 1007 1007 1007 1007 
1007 1007 1007 1007 1007 1007 1007 1007 1007 
1007 1007 1007 1007 1007 1007 1007 1007 1007 
1007 1007 1007 1007 1007 1007 1007 1007 1007 
1007 1007 1007 1007 1007 1007 1007 1007 1007 
1007 1007 1007 1007 1007 1007 1007 1007 1007 
1007 1007 1007 1007 1007 1007 1007 1007 1007 
1007 1007 1007 1007 1007 1007 1007 1007 1007 
1007 1007 1007 1007 1007 1007 1007 1007 1007 
1007 1007 1007 1007 1007 1007 1007 1007 1007 
1007 1007 1007 1007 1007 1007 1007 1007 1007 
1007 1007 1007 1007 1007 1007 1007 1007 1007 
1007 1007 1007 1007 1007 1007 1007 1007 1007 
1007 1007 1007 1007 1007 1007 1007 1007 1007 
1007 1007 1007 1007 1007 1007 1007 1007 1007 
1007 1007 1007 1007 1007 1007 1007 1007 1007 
1007 1007 1007 1007 1007 1007 1007 1007 1007 
1007 1007 1007 1007 1007 1007 1007 1007 1007 
1007 1007 1007 1007 1007 1007 1007 1007 1007 
1007 1007 1007 1007 1007 1007 1007 1007 1007 
1007 1007 1007 1007 1007 1007 1007 1007 1007 
1007 1007 1007 1007 1007 1007 1007 1007 1007 
1007 1007 1007 1007 1007 1007 1007 1007 1007 
1007 1007 1007 1007 1007 1007 1007 1007 1007 
1007 1007 1007 1007 1007 1007 1007 1007 1007 
1007 1007 1007 1007 1007 1007 1007 1007 1007 
1007 1007 1007 1007 1007 1007 1007 1007 1007 
1007 1007 1007 1007 1007 1007 1007 1007 1007 
1007 1007 1007 1007 1007 1007 1007 1007 1007 
1007 1007 1007 1007 1007 1007 1007 1007 1007 
1007 1007 1007 1007 1007 1007 1007 1007 1007 
1007 1007 1007 1007 1007 1007 1007 1007 1007 
1007 1007 1007 1007 1007 1007 1007 1007 1007 
1007 1007 1007 1007 1007 1007 1007 1007 1007 
1007 1007 1007 1007 1007 1007 1007 1007 1007 
1007 1007 1007 1007 1007 1007 1007 1007 1007 
1007 1007 1007 1007 1007 1007 1007 1007 1007 
1007 1007 1007 1007 1007 1007 1007 1007 1007 
1007 1007 1007 1007 1007 1007 1007 1007 1007 
1007 1007 1007 1007 1007 1007 1007 1007 1007 
1007 1007 1007 1007 1007 1007 1007 1007 1007 
1007 1007 1007 1007 1007 1007 1007 1007 1007 
1007 1007 1007 1007 1007 1007 1007 1007 1007 
1007 1007 1007 1007 1007 1007 1007 1007 1007 
1007 1007 1007 1007 1007 1007 1007 1007 1007 
1007 1007 1007 1007 1007 1007 1007 1007 1007 
1007 1007 1007 1007 1007 1007 1007 1007 1007 
1007 1007 1007 1007 1007 1007 1007 1007 1007 
1007 1007 1007 1007 1007 1007 1007 1007 1007 
1007 1007 1007 1007 1007 1007 1007 1007 1007 
1007 1007 1007 1007 1007 1007 1007 1007 1007 
1007 1007 1007 1007 1007 1007 1007 1007 1007 
1007 1007 1007 1007 1007 1007 1007 1007 1007 
1007 1007 1007 1007 1007 1007 1007 1007 1007 
1007 1007 1007 1007 1007 1007 1007 1007 1007 
1007 1007 1007 1007 1007 1007 1007 1007 1007 
1007 1007 1007 1007 1007 1007 1007 1007 1007 
1007 1007 1007 1007 1007 1007 1007 1007 1007 
1007 1007 1007 1007 1007 1007 1007 1007 1007 
1007 1007 1007 1007 1007 1007 1007 1007 1007 
1007 1007 1007 1007 1007 1007 1007 1007 1007 
1007 1007 1007 1007 1007 1007 1007 1007 1007 
1007 1007 1007 1007 1007 1007 1007 1007 1007 
1007 1007 1007 1007 1007 1007 1007 1007 1007 
1007 1007 1007 1007 1007 1007 1007 1007 1007 
1007 1007 1007 1007 1007 1007 1007 1007 1007 
1007 1007 1007 1007 1007 1007 1007 1007 1007 
1007 1007 1007 1007 1007 1007 1007 1007 1007 
1007 1007 1007 1007 1007 1007 1007 1007 1007 
1007 1007 1007 1007 1007 1007 1007 1007 1007 
1007 1007 1007 1007 1007 1007 1007 1007 1007 
1007 1007 1007 1007 1007 1007 1007 1007 1007 
1007 1007 1007 1007 1007 1007 1007 1007 1007 
1007 1007 1007 1007 1007 1007 1007 1007 1007 
1007 1007 1007 1007 1007 1007 1007 1007 1007 
1007 1007 1007 1007 1007 1007 1007 1007 1007 
1007 1007 1007 1007 1007 1007 1007 1007 1007 
1007 1007 1007 1007 1007 1007 1007 1007 1007 
1007 1007 1007 1007 1007 1007 1007 1007 1007 
1007 1007 1007 1007 1007 1007 1007 1007 1007 
1007 1007 1007 1007 1007 1007 1007 1007 1007 
1007 1007 1007 1007 1007 1007 1007 1007 1007 
1007 1007 1007 1007 1007 1007 1007 1007 1007 
1007 1007 1007 1007 1007 1007 1007 1007 1007 
1007 1007 1007 1007 1007 1007 1007 1007 1007 
1007 1007 1007 1007 1007 1007 1007 1007 1007 
1007 1007 1007 1007 1007 1007 1007 1007 1007 
1007 1007 1007 1007 1007 1007 1007 1007 1007 
1007 1007 1007 1007 1007 1007 1007 1007 1007 
1007 1007 1007 1007 1007 1007 1007 1007 1007 
1007 1007 1007 1007 1007 1007 1007 1007 1007 
1007 1007 1007 1007 1007 1007 1007 1007 1007 
1007 1007 1007 1007 1007 1007 1007 1007 1007 
1007 1007 1007 1007 1007 1007 1007 1007 1007 
1007 1007 1007 1007 1007 1007 1007 1007 1007 
1007 1007 1007 1007 1007 1007 1007 1007 1007 
1007 1007 1007 1007 1007 1007 1007 1007 1007 
1007 1007 1007 1007 1007 1007 1007 1007 1007 
1007 1007 1007 1007 1007 1007 1007 1007 1007 
1007 1007 1007 1007 1007 1007 1007 1007 1007 
1007 1007 1007 1007 1007 1007 1007 1007 1007 
1007 1007 1007 1007 1007 1007 1007 1007 1007 
1007 1007 1007 1007 1007 1007 1007 1007 1007 
1007 1007 1007 1007 1007 1007 1007 1007 1007 
1007 1007 1007 1007 1007 1007 1007 1007 1007 
1007 1007 1007 1007 1007 1007 1007 1007 1007 
1007 1007 1007 1007 1007 1007 1007 1007 1007 
1007 1007 1007 1007 1007 1007 1007 1007 1007 
1007 1007 1007 1007 1007 1007 1007 1007 1007 
1007 1007 1007 1007 1007 1007 1007 1007 1007 
1007 1007 1007 1007 1007 1007 1007 1007 1007 
1007 1007 1007 1007 1007 1007 1007 1007 1007 
1007 1007 1007 1007 1007 1007 1007 1007 1007 
1007 1007 1007 1007 1007 1007 1007 1007 1007 
1007 1007 1007 1007 1007 1007 1007 1007 1007 
1007 1007 1007 1007 1007 1007 1007 1007 1007 
1007 1007 1007 1007 1007 1007 1007 1007 1007 
1007 1007 1007 1007 1007 1007 1007 1007 1007 
1007 1007 1007 1007 1007 1007 1007 1007 1007 
1007 1007 1007 1007 1007 1007 1007 1007 1007 
1007 1007 1007 1007 1007 1007 1007 1007 1007 
1007 1007 1007 1007 1007 1007 1007 1007 1007 
1007 1007 1007 1007 1007 1007 1007 1007 1007 
1007 1007 1007 1007 1007 1007 1007 1007 1007 
1007 1007 1007 1007 1007 1007 1007 1007 1007 
1007 1007 1007 1007 1007 1007 1007 1007 1007 
1007 1007 1007 1007 1007 1007 1007 1007 1007 
1007 1007 1007 1007 1007 1007 1007 1007 1007 
1007 1007 1007 1007 1007 1007 1007 1007 1007 
1007 1007 1007 1007 1007 1007 1007 1007 1007 
1007 1007 1007 1007 1007 1007 1007 1007 1007 
1007 1007 1007 1007 1007 1007 1007 1007 1007 
1007 1007 1007 1007 1007 1007 1007 1007 1007 
1007 1007 1007 1007 1007 1007 1007 1007 1007 
1007 1007 1007 1007 1007 1007 1007 1007 1007 
1007 1007 1007 1007 1007 1007 1007 1007 1007 
1007 1007 1007 1007 1007 1007 1007 1007 1007 
1007 1007 1007 1007 1007 1007 1007 1007 1007 
1007 1007 1007 1007 1007 1007 1007 1007 1007 
1007 1007 1007 1007 1007 1007 1007 1007 1007 
1007 1007 1007 1007 1007 1007 1007 1007 1007 
1007 1007 1007 1007 1007 1007 1007 1007 1007 
1007 1007 1007 1007 1007 1007 1007 1007 1007 
1007 1007 1007 1007 1007 1007 1007 1007 1007 
1007 1007 1007 1007 1007 1007 1007 1007 1007 
1007 1007 1007 1007 1007 1007 1007 1007 1007 
1007 1007 1007 1007 1007 1007 1007 1007 1007 
1007 1007 1007 1007 1007 1007 1007 1007 1007 
1007 1007 1007 1007 1007 1007 1007 1007 1007 
1007 1007 1007 1007 1007 1007 1007 1007 1007 
1007 1007 1007 1007 1007 1007 1007 1007 1007 
1007 1007 1007 1007 1007 1007 1007 1007 1007 
1007 1007 1007 1007 1007 1007 1007 1007 1007 
1007 1007 1007 1007 1007 1007 1007 1007 1007 
1007 1007 1007 1007 1007 1007 1007 1007 1007 
1007 1007 1007 1007 1007 1007 1007 1007 1007 