# vtk DataFile Version 4.2
vtk output
ASCII
DATASET POLYDATA
POINTS 7222 float
25.1215 46.718 5.33304 25.2139 46.4589 5.75796 25.7087 46.4265 5.43347 
24.9522 46.3264 5.54409 25.2272 46.7929 4.52439 25.77 46.5716 4.23625 
24.8448 46.4158 4.76488 27.2399 46.6811 3.25973 27.4815 46.4587 3.75895 
27.7335 46.5527 3.14662 26.9742 46.4377 3.57378 25.3028 46.7433 3.69358 
25.5759 46.4876 3.34923 24.8907 46.3284 3.61226 27.3705 46.6899 2.72763 
27.7126 46.5435 2.57251 26.823 46.3631 2.59683 25.1389 46.3748 3.00858 
28.3275 46.6334 1.40686 28.4822 46.4872 1.67777 28.7077 46.3816 1.34946 
27.4526 46.3729 2.30787 28.1372 46.3806 1.59083 28.3453 46.1709 1.22244 
26.1927 45.7077 7.333 26.5489 45.2833 7.82686 26.7553 45.5642 7.24202 
25.9972 45.3031 7.59521 26.261 45.9052 6.38572 26.9808 45.6131 6.4559 
25.7323 45.2754 6.61076 27.1161 45.8654 5.46725 27.4024 45.356 6.09101 
27.7976 45.3618 5.47475 26.3899 46.1196 5.57781 25.3536 45.8901 5.92148 
24.9381 45.6875 5.17166 28.1834 45.8349 4.56736 28.5039 45.1994 4.93147 
28.9321 45.6074 4.36065 27.2659 46.1472 4.26896 26.4346 46.19 4.78155 
24.8653 45.6741 4.16612 29.0024 45.8492 3.59102 29.361 45.5587 4.00049 
29.7769 45.4502 3.35356 28.1096 46.1734 3.69657 26.2689 46.262 3.45976 
24.9016 45.5323 3.23029 29.3689 45.8318 2.6416 29.9196 45.4881 2.20841 
28.2455 46.1643 2.37225 26.0238 46.108 2.26635 25.3841 46.039 2.4309 
24.9172 45.5246 2.37844 29.1832 45.9737 1.76401 29.6915 45.4303 1.35503 
27.2235 45.8085 1.82744 27.8604 45.7822 1.50956 26.3403 45.8705 1.67411 
26.662 45.4286 1.27435 25.5235 45.7838 1.52112 24.9754 45.4903 1.59274 
28.9519 45.657 1.02441 28.1865 45.4859 1.04437 25.8874 45.2909 0.992973 
25.1927 45.24 1.10808 27.1713 45.0185 7.57542 27.0808 44.3239 7.91392 
27.575 44.4991 7.32794 26.2911 44.709 7.92708 25.8779 44.5272 7.4328 
27.3403 45.1116 6.86982 27.7098 44.5804 6.43768 25.7277 44.3089 6.66397 
27.9964 44.5962 5.60282 25.318 45.1928 5.58163 25.637 44.4736 5.60236 
29.4021 45.1636 4.34005 29.1827 44.4827 4.80349 29.8187 44.5372 4.39381 
28.5277 44.3376 5.17234 25.2479 45.0088 4.69283 25.6507 44.3619 4.44565 
30.1507 44.8712 3.73881 30.3221 44.1629 3.98751 30.6195 44.5001 3.32239 
25.2545 45.0038 3.67912 25.6456 44.3455 3.44178 30.4733 45.0011 2.62568 
30.9807 44.4641 2.60102 25.2246 44.9025 2.73725 25.5734 44.1217 2.36174 
30.9821 44.8354 1.56027 31.3155 44.494 2.02832 31.71 44.4855 1.31243 
30.231 45.1272 1.44492 27.403 45.2234 1.09839 25.1323 44.6324 1.9806 
24.9739 44.8314 1.43734 31.3033 44.9106 0.329961 32.0234 44.6323 0.352343 
30.3033 45.0274 0.440936 29.3762 45.1272 0.49371 28.2973 45.112 0.565861 
27.4851 44.8551 0.261289 26.5774 44.9448 0.609326 25.8355 44.3185 0.499665 
25.394 44.551 1.01886 32.1013 44.7676 -0.313263 32.5345 44.4824 -0.132455 
32.6467 44.5101 -0.545817 31.4545 44.8677 -0.550508 30.3951 44.9427 -0.576535 
29.4821 45.0206 -0.394141 28.4847 44.8506 -0.50013 27.6471 44.3218 -0.591795 
26.9471 44.5383 -0.0882933 26.2693 44.3731 -0.0171892 32.2869 44.372 -0.94357 
31.0707 44.552 -1.07528 30.1986 44.6247 -1.23631 29.841 44.3622 -1.63422 
29.375 44.7997 -1.21838 28.6736 44.6036 -1.40303 28.1962 44.3716 -1.16061 
29.1145 44.1934 -1.84414 27.1639 43.2884 8.17042 27.6946 43.5842 7.52048 
26.4051 43.7836 7.93472 25.8986 43.4953 7.37613 27.9104 43.5601 6.39645 
25.7529 43.4515 6.47773 28.1765 43.9421 5.60095 28.2543 43.157 5.85334 
28.579 43.584 5.36632 25.7822 43.4907 5.45259 29.1585 43.4241 4.95395 
29.8049 43.763 4.50781 25.8192 43.5321 4.4311 30.3014 43.2387 4.00632 
30.8309 43.7728 3.36138 25.9288 43.5271 3.34246 31.4496 44.0178 2.41131 
31.288 43.2041 2.95848 31.8132 43.5012 2.37144 25.9735 43.4987 2.27733 
32.2593 43.9197 1.56239 32.3027 43.2171 1.93632 32.831 43.526 1.35886 
25.2978 44.2115 1.54146 25.7531 43.5656 1.25356 33.1056 43.8394 0.703075 
33.5316 43.2017 0.956528 33.8424 43.5068 0.194227 32.4927 44.2494 0.552188 
25.707 43.4937 0.444005 33.1215 44.0383 -0.309357 33.7362 43.4661 -0.617607 
27.1698 44.1427 -0.507997 26.6115 43.9681 -0.519175 25.7168 43.33 -0.374199 
33.0962 43.7014 -1.13379 32.411 43.8256 -1.4989 32.7477 43.4298 -1.73518 
31.5809 43.9954 -1.53619 30.6038 44.1145 -1.57572 28.427 44.114 -1.6534 
27.9105 43.5436 -1.4673 27.264 43.5101 -0.940933 26.4527 43.2234 -1.00339 
31.991 43.4754 -1.99385 31.0544 43.5245 -2.04433 30.0002 43.6907 -2.0667 
29.1142 43.5153 -2.24221 28.4351 43.4925 -2.06892 27.1458 42.7242 8.54154 
27.3736 42.2769 8.77225 27.6188 42.6826 8.31649 26.8407 42.1601 8.62555 
27.9415 42.5013 7.43729 26.4498 42.7614 8.08838 25.8855 42.4689 7.3858 
28.0558 42.6727 6.48069 25.7585 42.4327 6.50864 28.3647 42.3781 6.12082 
28.771 42.5786 5.52601 25.777 42.4911 5.50897 29.2985 42.2039 4.93513 
29.7772 42.5912 4.35328 25.9136 42.5752 4.44427 30.2012 42.4158 3.80929 
30.6946 42.7928 3.48974 26.2261 42.8899 3.56009 26.55 42.554 3.23911 
26.2625 42.1878 3.90731 31.1176 42.2111 2.9952 31.7825 42.7417 2.51586 
26.4382 43.0484 2.60281 26.8847 42.4077 2.53136 32.2994 42.2643 1.99904 
32.8343 42.7904 1.50263 27.0582 42.7299 1.72926 27.4917 42.42 1.41073 
27.3223 42.1946 1.87883 26.4365 43.0039 1.60381 34.2446 43.0256 0.511745 
34.0251 42.3844 0.80812 34.6173 42.4929 0.216227 33.3226 42.3749 1.17099 
27.2173 42.3644 1.00824 26.2825 42.6503 0.96606 25.7972 42.807 0.458319 
34.3068 43.0306 -0.384647 34.7278 42.5075 -0.632843 25.4817 42.4021 -0.161377 
25.1666 42.7706 -0.546851 25.0757 42.4801 -0.562843 34.2574 42.7936 -1.44817 
34.6997 42.1679 -1.58713 33.5029 43.1751 -1.47983 27.5618 42.7314 -1.49727 
27.0589 42.7451 -1.28098 26.4611 42.7244 -1.43265 26.7534 42.3938 -1.69892 
25.6516 42.3294 -1.32789 25.2326 42.659 -0.791455 34.1889 42.5681 -2.14952 
33.8278 42.5273 -2.58343 33.5619 42.8111 -2.29256 32.5972 43.0037 -2.39449 
31.5288 43.0099 -2.5599 30.5601 43.0153 -2.5469 29.554 43.0175 -2.56607 
28.6325 42.9082 -2.56517 27.8492 42.4782 -2.3965 26.2205 42.3224 -1.91929 
33.2632 42.3901 -2.98769 32.0482 42.5414 -3.10005 31.0273 42.3425 -3.07103 
30.023 42.333 -2.89673 29.0171 42.3546 -2.90093 28.3736 42.3774 -2.83713 
27.311 41.5124 8.83191 27.8145 41.6724 8.32966 26.7418 41.2337 8.60581 
28.2053 41.7683 7.6382 28.2052 41.3041 7.81771 28.5003 41.3829 7.16595 
26.2402 41.7578 8.09177 25.8562 41.4436 7.39483 28.2916 42.0027 6.84291 
28.6574 41.6916 6.2663 25.7246 41.4074 6.52281 29.021 41.547 5.57302 
25.7255 41.4682 5.53249 29.3774 41.3499 5.09641 29.6566 41.4869 4.5567 
25.8942 41.4587 4.63379 30.4415 42.0654 3.40483 30.0151 41.6217 3.79008 
26.6504 41.797 3.32108 26.2694 41.2281 3.97793 31.3042 41.3266 2.82344 
31.7903 41.7542 2.48531 30.6221 41.3615 3.19762 27.0267 41.5991 2.58437 
32.307 41.2308 1.97372 32.7996 41.7779 1.49583 27.7815 41.7965 1.44282 
27.346 41.636 2.03229 34.4304 41.9315 0.380088 33.9827 41.5664 0.596859 
33.3974 41.4089 0.995746 29.1456 41.7275 0.556805 29.5625 41.5095 0.459663 
29.3823 41.3311 0.734754 28.6923 41.3781 1.03934 28.3015 41.8777 0.5743 
27.4524 41.8993 0.386021 26.4256 42.0723 0.415049 34.3349 41.1658 0.0874218 
34.7764 41.7883 -0.438319 29.2835 41.4535 0.00890595 28.095 41.526 -0.0494571 
27.0395 41.4643 -0.025426 26.0469 41.6364 -0.165975 25.3913 42.1188 -0.608453 
25.7997 41.4741 -0.704316 34.9988 41.3837 -1.50337 27.2139 42.2436 -1.88226 
25.4069 41.4159 -1.12047 25.1994 41.7984 -1.49626 24.9809 41.1679 -1.57598 
34.2306 42.1649 -2.53437 34.7419 41.5864 -2.48281 27.0997 42.0253 -2.70823 
26.479 41.9792 -2.48627 25.7208 41.7876 -2.39133 25.1785 41.5202 -2.02909 
34.0867 41.741 -3.15697 33.411 41.8731 -3.52523 33.9288 41.3707 -3.66283 
32.5689 42.0496 -3.59699 31.625 41.9832 -3.59526 30.9896 41.6035 -3.48644 
30.2764 41.3439 -3.12122 29.2753 41.4758 -2.98388 28.2749 41.7381 -3.0583 
27.414 41.8224 -3.27336 27.7253 41.1225 -3.68209 26.6293 41.7664 -3.38618 
25.8493 41.4916 -3.22808 33.1593 41.2824 -3.89497 32.063 41.3815 -3.93578 
31.3174 41.2964 -3.82265 26.9421 41.4806 -3.95805 26.1773 41.426 -3.88643 
27.4877 40.4424 8.88164 27.8096 40.5035 8.41941 26.7398 40.1748 8.3988 
28.3846 40.8772 7.35323 28.0175 40.6918 7.81069 26.2049 40.7796 7.98576 
25.8875 40.3499 7.1702 28.5026 40.1143 7.0593 28.8665 40.7989 6.47067 
25.6915 40.5619 6.33822 29.2686 40.871 5.63335 29.3941 40.3118 6.05769 
29.6369 40.5083 5.32432 25.7209 40.4701 5.48235 29.8946 40.5583 4.39109 
25.9448 40.5172 4.61494 30.2071 40.9369 3.61566 30.2652 40.1888 3.84978 
30.6103 40.5863 3.36293 26.7716 40.6399 3.40762 26.3067 40.3704 4.12964 
31.1776 40.4044 2.92668 31.8017 40.7521 2.45373 27.4051 41.0353 2.34469 
27.7805 40.4875 2.29546 27.2944 40.1722 2.88673 32.2981 40.223 1.98071 
32.7922 40.7282 1.46978 28.1247 40.9804 1.72011 28.6661 40.6061 1.41628 
28.2822 40.2064 1.9007 33.2801 40.2284 0.973956 33.7831 40.7089 0.495839 
29.8348 40.8765 0.361521 29.2547 40.4472 0.971659 34.2656 40.1999 -0.00775782 
34.8377 40.7302 -0.661089 30.1702 40.864 -0.357043 30.6104 40.2789 -0.601343 
30.4293 40.2095 -0.0939285 29.5739 40.9812 -0.629087 28.6522 41.0376 -0.564906 
27.595 40.9519 -0.512212 26.5934 40.9918 -0.483558 35.2622 40.8151 -1.4561 
35.3164 40.1573 -1.07703 35.5913 40.4847 -1.77739 30.08 40.404 -0.854579 
29.0951 40.3901 -0.942476 28.0382 40.33 -0.900218 27.0082 40.307 -0.838629 
26.0457 40.6653 -0.841978 25.3511 40.5698 -1.16797 24.9578 40.4659 -1.67296 
35.2678 41.0004 -2.41476 35.8278 40.4139 -2.66779 25.1948 41.0766 -2.8811 
24.8949 40.4883 -2.50242 35.3475 40.7872 -3.33348 35.667 40.4665 -3.66536 
34.6786 41.0957 -3.39782 30.7382 40.7792 -3.5403 29.9976 40.1995 -3.16932 
29.4284 40.562 -2.95862 28.5168 40.6021 -3.13556 28.032 40.3906 -3.69217 
25.3617 40.9772 -3.86107 24.8745 40.4779 -3.42791 35.0376 40.5437 -4.01765 
34.0617 40.509 -4.0527 33.1613 40.3103 -4.02736 32.2939 40.4531 -4.04111 
31.2236 40.3876 -3.92619 27.1219 41.0754 -4.57793 27.7804 40.5525 -4.62371 
26.1197 41.153 -4.5827 25.2224 40.8557 -4.78469 24.9263 40.372 -4.45583 
30.0149 40.8492 -5.66486 30.3444 40.3045 -5.21798 30.6073 40.5494 -5.6999 
29.3283 40.7921 -5.80092 29.6242 40.2926 -5.0564 28.9584 40.3934 -5.45271 
[...]
CELL_DATA 14464
SCALARS scalars float
LOOKUP_TABLE default
2035 2035 2035 2035 2035 2035 2035 2035 2035 
2035 2035 2035 2035 2035 2035 2035 2035 2035 
2035 2035 2035 2035 2035 2035 2035 2035 2035 
2035 2035 2035 2035 2035 2035 2035 2035 2035 
2035 2035 2035 2035 2035 2035 2035 2035 2035 
2035 2035 2035 2035 2035 2035 2035 2035 2035 
2035 2035 2035 2035 2035 2035 2035 2035 2035 
2035 2035 2035 2035 2035 2035 2035 2035 2035 
2035 2035 2035 2035 2035 2035 2035 2035 2035 
2035 2035 2035 2035 2035 2035 2035 2035 2035 
2035 2035 2035 2035 2035 2035 2035 2035 2035 
2035 2035 2035 2035 2035 2035 2035 2035 2035 
2035 2035 2035 2035 2035 2035 2035 2035 2035 
2035 2035 2035 2035 2035 2035 2035 2035 2035 
2035 2035 2035 2035 2035 2035 2035 2035 2035 
2035 2035 2035 2035 2035 2035 2035 2035 2035 
2035 2035 2035 2035 2035 2035 2035 2035 2035 
2035 2035 2035 2035 2035 2035 2035 2035 2035 
2035 2035 2035 2035 2035 2035 2035 2035 2035 
2035 2035 2035 2035 2035 2035 2035 2035 2035 
2035 2035 2035 2035 2035 2035 2035 2035 2035 
2035 2035 2035 2035 2035 2035 2035 2035 2035 
2035 2035 2035 2035 2035 2035 2035 2035 2035 
2035 2035 2035 2035 2035 2035 2035 2035 2035 
2035 2035 2035 2035 2035 2035 2035 2035 2035 
2035 2035 2035 2035 2035 2035 2035 2035 2035 
2035 2035 2035 2035 2035 2035 2035 2035 2035 
2035 2035 2035 2035 2035 2035 2035 2035 2035 
2035 2035 2035 2035 2035 2035 2035 2035 2035 
2035 2035 2035 2035 2035 2035 2035 2035 2035 
2035 2035 2035 2035 2035 2035 2035 2035 2035 
2035 2035 2035 2035 2035 2035 2035 2035 2035 
2035 2035 2035 2035 2035 2035 2035 2035 2035 
2035 2035 2035 2035 2035 2035 2035 2035 2035 
2035 2035 2035 2035 2035 2035 2035 2035 2035 
2035 2035 2035 2035 2035 2035 2035 2035 2035 
2035 2035 2035 2035 2035 2035 2035 2035 2035 
2035 2035 2035 2035 2035 2035 2035 2035 2035 
2035 2035 2035 2035 2035 2035 2035 2035 2035 
2035 2035 2035 2035 2035 2035 2035 2035 2035 
2035 2035 2035 2035 2035 2035 2035 2035 2035 
2035 2035 2035 2035 2035 2035 2035 2035 2035 
2035 2035 2035 2035 2035 2035 2035 2035 2035 
2035 2035 2035 2035 2035 2035 2035 2035 2035 
2035 2035 2035 2035 2035 2035 2035 2035 2035 
2035 2035 2035 2035 2035 2035 2035 2035 2035 
2035 2035 2035 2035 2035 2035 2035 2035 2035 
2035 2035 2035 2035 2035 2035 2035 2035 2035 
2035 2035 2035 2035 2035 2035 2035 2035 2035 
2035 2035 2035 2035 2035 2035 2035 2035 2035 
2035 2035 2035 2035 2035 2035 2035 2035 2035 
2035 2035 2035 2035 2035 2035 2035 2035 2035 
2035 2035 2035 2035 2035 2035 2035 2035 2035 
2035 2035 2035 2035 2035 2035 2035 2035 2035 
2035 2035 2035 2035 2035 2035 2035 2035 2035 
2035 2035 2035 2035 2035 2035 2035 2035 2035 
2035 2035 2035 2035 2035 2035 2035 2035 2035 
2035 2035 2035 2035 2035 2035 2035 2035 2035 
2035 2035 2035 2035 2035 2035 2035 2035 2035 
2035 2035 2035 2035 2035 2035 2035 2035 2035 
2035 2035 2035 2035 2035 2035 2035 2035 2035 
2035 2035 2035 2035 2035 2035 2035 2035 2035 
2035 2035 2035 2035 2035 2035 2035 2035 2035 
2035 2035 2035 2035 2035 2035 2035 2035 2035 
2035 2035 2035 2035 2035 2035 2035 2035 2035 
2035 2035 2035 2035 2035 2035 2035 2035 2035 
2035 2035 2035 2035 2035 2035 2035 2035 2035 
2035 2035 2035 2035 2035 2035 2035 2035 2035 
2035 2035 2035 2035 2035 2035 2035 2035 2035 
2035 2035 2035 2035 2035 2035 2035 2035 2035 
2035 2035 2035 2035 2035 2035 2035 2035 2035 
2035 2035 2035 2035 2035 2035 2035 2035 2035 
2035 2035 2035 2035 2035 2035 2035 2035 2035 
2035 2035 2035 2035 2035 2035 2035 2035 2035 
2035 2035 2035 2035 2035 2035 2035 2035 2035 
2035 2035 2035 2035 2035 2035 2035 2035 2035 
2035 2035 2035 2035 2035 2035 2035 2035 2035 
2035 2035 2035 2035 2035 2035 2035 2035 2035 
2035 2035 2035 2035 2035 2035 2035 2035 2035 
2035 2035 2035 2035 2035 2035 2035 2035 2035 
2035 2035 2035 2035 2035 2035 2035 2035 2035 
2035 2035 2035 2035 2035 2035 2035 2035 2035 
2035 2035 2035 2035 2035 2035 2035 2035 2035 
2035 2035 2035 2035 2035 2035 2035 2035 2035 
2035 2035 2035 2035 2035 2035 2035 2035 2035 
2035 2035 2035 2035 2035 2035 2035 2035 2035 
2035 2035 2035 2035 2035 2035 2035 2035 2035 
2035 2035 2035 2035 2035 2035 2035 2035 2035 
2035 2035 2035 2035 2035 2035 2035 2035 2035 
2035 2035 2035 2035 2035 2035 2035 2035 2035 
2035 2035 2035 2035 2035 2035 2035 2035 2035 
2035 2035 2035 2035 2035 2035 2035 2035 2035 
2035 2035 2035 2035 2035 2035 2035 2035 2035 
2035 2035 2035 2035 2035 2035 2035 2035 2035 
2035 2035 2035 2035 2035 2035 2035 2035 2035 
2035 2035 2035 2035 2035 2035 2035 2035 2035 
2035 2035 2035 2035 2035 2035 2035 2035 2035 
2035 2035 2035 2035 2035 2035 2035 2035 2035 
2035 2035 2035 2035 2035 2035 2035 2035 2035 
2035 2035 2035 2035 2035 2035 2035 2035 2035 
2035 2035 2035 2035 2035 2035 2035 2035 2035 
2035 2035 2035 2035 2035 2035 2035 2035 2035 
2035 2035 2035 2035 2035 2035 2035 2035 2035 
2035 2035 2035 2035 2035 2035 2035 2035 2035 
2035 2035 2035 2035 2035 2035 2035 2035 2035 
2035 2035 2035 2035 2035 2035 2035 2035 2035 
2035 2035 2035 2035 2035 2035 2035 2035 2035 
2035 2035 2035 2035 2035 2035 2035 2035 2035 
2035 2035 2035 2035 2035 2035 2035 2035 2035 
2035 2035 2035 2035 2035 2035 2035 2035 2035 
2035 2035 2035 2035 2035 2035 2035 2035 2035 
2035 2035 2035 2035 2035 2035 2035 2035 2035 
2035 2035 2035 2035 2035 2035 2035 2035 2035 
2035 2035 2035 2035 2035 2035 2035 2035 2035 
2035 2035 2035 2035 2035 2035 2035 2035 2035 
2035 2035 2035 2035 2035 2035 2035 2035 2035 
2035 2035 2035 2035 2035 2035 2035 2035 2035 
2035 2035 2035 2035 2035 2035 2035 2035 2035 
2035 2035 2035 2035 2035 2035 2035 2035 2035 
2035 2035 2035 2035 2035 2035 2035 2035 2035 
2035 2035 2035 2035 2035 2035 2035 2035 2035 
2035 2035 2035 2035 2035 2035 2035 2035 2035 
2035 2035 2035 2035 2035 2035 2035 2035 2035 
2035 2035 2035 2035 2035 2035 2035 2035 2035 
2035 2035 2035 2035 2035 2035 2035 2035 2035 
2035 2035 2035 2035 2035 2035 2035 2035 2035 
2035 2035 2035 2035 2035 2035 2035 2035 2035 
2035 2035 2035 2035 2035 2035 2035 2035 2035 
2035 2035 2035 2035 2035 2035 2035 2035 2035 
2035 2035 2035 2035 2035 2035 2035 2035 2035 
2035 2035 2035 2035 2035 2035 2035 2035 2035 
2035 2035 2035 2035 2035 2035 2035 2035 2035 
2035 2035 2035 2035 2035 2035 2035 2035 2035 
2035 2035 2035 2035 2035 2035 2035 2035 2035 
2035 2035 2035 2035 2035 2035 2035 2035 2035 
2035 2035 2035 2035 2035 2035 2035 2035 2035 
2035 2035 2035 2035 2035 2035 2035 2035 2035 
2035 2035 2035 2035 2035 2035 2035 2035 2035 
2035 2035 2035 2035 2035 2035 2035 2035 2035 
2035 2035 2035 2035 2035 2035 2035 2035 2035 
2035 2035 2035 2035 2035 2035 2035 2035 2035 
2035 2035 2035 2035 2035 2035 2035 2035 2035 
2035 2035 2035 2035 2035 2035 2035 2035 2035 
2035 2035 2035 2035 2035 2035 2035 2035 2035 
2035 2035 2035 2035 2035 2035 2035 2035 2035 
2035 2035 2035 2035 2035 2035 2035 2035 2035 
2035 2035 2035 2035 2035 2035 2035 2035 2035 
2035 2035 2035 2035 2035 2035 2035 2035 2035 
2035 2035 2035 2035 2035 2035 2035 2035 2035 
2035 2035 2035 2035 2035 2035 2035 2035 2035 
2035 2035 2035 2035 2035 2035 2035 2035 2035 
2035 2035 2035 2035 2035 2035 2035 2035 2035 
2035 2035 2035 2035 2035 2035 2035 2035 2035 
2035 2035 2035 2035 2035 2035 2035 2035 2035 
2035 2035 2035 2035 2035 2035 2035 2035 2035 
2035 2035 2035 2035 2035 2035 2035 2035 2035 
2035 2035 2035 2035 2035 2035 2035 2035 2035 
2035 2035 2035 2035 2035 2035 2035 2035 2035 
2035 2035 2035 2035 2035 2035 2035 2035 2035 
2035 2035 2035 2035 2035 2035 2035 2035 2035 
2035 2035 2035 2035 2035 2035 2035 2035 2035 
2035 2035 2035 2035 2035 2035 2035 2035 2035 
2035 2035 2035 2035 2035 2035 2035 2035 2035 
2035 2035 2035 2035 2035 2035 2035 2035 2035 
2035 2035 2035 2035 2035 2035 2035 2035 2035 
2035 2035 2035 2035 2035 2035 2035 2035 2035 
2035 2035 2035 2035 2035 2035 2035 2035 2035 
2035 2035 2035 2035 2035 2035 2035 2035 2035 
2035 2035 2035 2035 2035 2035 2035 2035 2035 
2035 2035 2035 2035 2035 2035 2035 2035 2035 
2035 2035 2035 2035 2035 2035 2035 2035 2035 
2035 2035 2035 2035 2035 2035 2035 2035 2035 
2035 2035 2035 2035 2035 2035 2035 2035 2035 
2035 2035 2035 2035 2035 2035 2035 2035 2035 
2035 2035 2035 2035 2035 2035 2035 2035 2035 
2035 2035 2035 2035 2035 2035 2035 2035 2035 
2035 2035 2035 2035 2035 2035 2035 2035 2035 
2035 2035 2035 2035 2035 2035 2035 2035 2035 
2035 2035 2035 2035 2035 2035 2035 2035 2035 
2035 2035 2035 2035 2035 2035 2035 2035 2035 
2035 2035 2035 2035 2035 2035 2035 2035 2035 
2035 2035 2035 2035 2035 2035 2035 2035 2035 
2035 2035 2035 2035 2035 2035 2035 2035 2035 
2035 2035 2035 2035 2035 2035 2035 2035 2035 
2035 2035 2035 2035 2035 2035 2035 2035 2035 
2035 2035 2035 2035 2035 2035 2035 2035 2035 
2035 2035 2035 2035 2035 2035 2035 2035 2035 
2035 2035 2035 2035 2035 2035 2035 2035 2035 
2035 2035 2035 2035 2035 2035 2035 2035 2035 
2035 2035 2035 2035 2035 2035 2035 2035 2035 
2035 2035 2035 2035 2035 2035 2035 2035 2035 
2035 2035 2035 2035 2035 2035 2035 2035 2035 
2035 2035 2035 2035 2035 2035 2035 2035 2035 
2035 2035 2035 2035 2035 2035 2035 2035 2035 
2035 2035 2035 2035 2035 2035 2035 2035 2035 
2035 2035 2035 2035 2035 2035 2035 2035 2035 
2035 2035 2035 2035 2035 2035 2035 2035 2035 
2035 2035 2035 2035 2035 2035 2035 2035 2035 
2035 2035 2035 2035 2035 2035 2035 2035 2035 
2035 2035 2035 2035 2035 2035 2035 2035 2035 
2035 2035 2035 2035 2035 2035 2035 2035 2035 
2035 2035 2035 2035 2035 2035 2035 2035 2035 
2035 2035 2035 2035 2035 2035 2035 2035 2035 
2035 2035 2035 2035 2035 2035 2035 2035 2035 
2035 2035 2035 2035 2035 2035 2035 2035 2035 
2035 2035 2035 2035 2035 2035 2035 2035 2035 
2035 2035 2035 2035 2035 2035 2035 2035 2035 
2035 2035 2035 2035 2035 2035 2035 2035 2035 
2035 2035 2035 2035 2035 2035 2035 2035 2035 
2035 2035 2035 2035 2035 2035 2035 2035 2035 
2035 2035 2035 2035 2035 2035 2035 2035 2035 
2035 2035 2035 2035 2035 2035 2035 2035 2035 
2035 2035 2035 2035 2035 2035 2035 2035 2035 
2035 2035 2035 2035 2035 2035 2035 2035 2035 
2035 2035 2035 2035 2035 2035 2035 2035 2035 
2035 2035 2035 2035 2035 2035 2035 2035 2035 
2035 2035 2035 2035 2035 2035 2035 2035 2035 
2035 2035 2035 2035 2035 2035 2035 2035 2035 
2035 2035 2035 2035 2035 2035 2035 2035 2035 
2035 2035 2035 2035 2035 2035 2035 2035 2035 
2035 2035 2035 2035 2035 2035 2035 2035 2035 
2035 2035 2035 2035 2035 2035 2035 2035 2035 
2035 2035 2035 2035 2035 2035 2035 2035 2035 
2035 2035 2035 2035 2035 2035 2035 2035 2035 
2035 2035 2035 2035 2035 2035 2035 2035 2035 
2035 2035 2035 2035 2035 2035 2035 2035 2035 
2035 2035 2035 2035 2035 2035 2035 2035 2035 
2035 2035 2035 2035 2035 2035 2035 2035 2035 
2035 2035 2035 2035 2035 2035 2035 2035 2035 
2035 2035 2035 2035 2035 2035 2035 2035 2035 
2035 2035 2035 2035 2035 2035 2035 2035 2035 
2035 2035 2035 2035 2035 2035 2035 2035 2035 
2035 2035 2035 2035 2035 2035 2035 2035 2035 
2035 2035 2035 2035 2035 2035 2035 2035 2035 
2035 2035 2035 2035 2035 2035 2035 2035 2035 
2035 2035 2035 2035 2035 2035 2035 2035 2035 
2035 2035 2035 2035 2035 2035 2035 2035 2035 
2035 2035 2035 2035 2035 2035 2035 2035 2035 
2035 2035 2035 2035 2035 2035 2035 2035 2035 
2035 2035 2035 2035 2035 2035 2035 2035 2035 
2035 2035 2035 2035 2035 2035 2035 2035 2035 
2035 2035 2035 2035 2035 2035 2035 2035 2035 
2035 2035 2035 2035 2035 2035 2035 2035 2035 
2035 2035 2035 2035 2035 2035 2035 2035 2035 
2035 2035 2035 2035 2035 2035 2035 2035 2035 
2035 2035 2035 2035 2035 2035 2035 2035 2035 
2035 2035 2035 2035 2035 2035 2035 2035 2035 
2035 2035 2035 2035 2035 2035 2035 2035 2035 
2035 2035 2035 2035 2035 2035 2035 2035 2035 
2035 2035 2035 2035 2035 2035 2035 2035 2035 
2035 2035 2035 2035 2035 2035 2035 2035 2035 
2035 2035 2035 2035 2035 2035 2035 2035 2035 
2035 2035 2035 2035 2035 2035 2035 2035 2035 
2035 2035 2035 2035 2035 2035 2035 2035 2035 
2035 2035 2035 2035 2035 2035 2035 2035 2035 
2035 2035 2035 2035 2035 2035 2035 2035 2035 
2035 2035 2035 2035 2035 2035 2035 2035 2035 
2035 2035 2035 2035 2035 2035 2035 2035 2035 
2035 2035 2035 2035 2035 2035 2035 2035 2035 
2035 2035 2035 2035 2035 2035 2035 2035 2035 
2035 2035 2035 2035 2035 2035 2035 2035 2035 
2035 2035 2035 2035 2035 2035 2035 2035 2035 
2035 2035 2035 2035 2035 2035 2035 2035 2035 
2035 2035 2035 2035 2035 2035 2035 2035 2035 
2035 2035 2035 2035 2035 2035 2035 2035 2035 
2035 2035 2035 2035 2035 2035 2035 2035 2035 
2035 2035 2035 2035 2035 2035 2035 2035 2035 
2035 2035 2035 2035 2035 2035 2035 2035 2035 
2035 2035 2035 2035 2035 2035 2035 2035 2035 
2035 2035 2035 2035 2035 2035 2035 2035 2035 
2035 2035 2035 2035 2035 2035 2035 2035 2035 
2035 2035 2035 2035 2035 2035 2035 2035 2035 
2035 2035 2035 2035 2035 2035 2035 2035 2035 
2035 2035 2035 2035 2035 2035 2035 2035 2035 
2035 2035 2035 2035 2035 2035 2035 2035 2035 
2035 2035 2035 2035 2035 2035 2035 2035 2035 
2035 2035 2035 2035 2035 2035 2035 2035 2035 
2035 2035 2035 2035 2035 2035 2035 2035 2035 
2035 2035 2035 2035 2035 2035 2035 2035 2035 
2035 2035 2035 2035 2035 2035 2035 2035 2035 
2035 2035 2035 2035 2035 2035 2035 2035 2035 
2035 2035 2035 2035 2035 2035 2035 2035 2035 
2035 2035 2035 2035 2035 2035 2035 2035 2035 
2035 2035 2035 2035 2035 2035 2035 2035 2035 
2035 2035 2035 2035 2035 2035 2035 2035 2035 
2035 2035 2035 2035 2035 2035 2035 2035 2035 
2035 2035 2035 2035 2035 2035 2035 2035 2035 
2035 2035 2035 2035 2035 2035 2035 2035 2035 
2035 2035 2035 2035 2035 2035 2035 2035 2035 
2035 2035 2035 2035 2035 2035 2035 2035 2035 
2035 2035 2035 2035 2035 2035 2035 2035 2035 
2035 2035 2035 2035 2035 2035 2035 2035 2035 
2035 2035 2035 2035 2035 2035 2035 2035 2035 
2035 2035 2035 2035 2035 2035 2035 2035 2035 
2035 2035 2035 2035 2035 2035 2035 2035 2035 
2035 2035 2035 2035 2035 2035 2035 2035 2035 
2035 2035 2035 2035 2035 2035 2035 2035 2035 
2035 2035 2035 2035 2035 2035 2035 2035 2035 
2035 2035 2035 2035 2035 2035 2035 2035 2035 
2035 2035 2035 2035 2035 2035 2035 2035 2035 
2035 2035 2035 2035 2035 2035 2035 2035 2035 
2035 2035 2035 2035 2035 2035 2035 2035 2035 
2035 2035 2035 2035 2035 2035 2035 2035 2035 
2035 2035 2035 2035 2035 2035 2035 2035 2035 
2035 2035 2035 2035 2035 2035 2035 2035 2035 
2035 2035 2035 2035 2035 2035 2035 2035 2035 
2035 2035 2035 2035 2035 2035 2035 2035 2035 
2035 2035 2035 2035 2035 2035 2035 2035 2035 
2035 2035 2035 2035 2035 2035 2035 2035 2035 
2035 2035 2035 2035 2035 2035 2035 2035 2035 
2035 2035 2035 2035 2035 2035 2035 2035 2035 
2035 2035 2035 2035 2035 2035 2035 2035 2035 
2035 2035 2035 2035 2035 2035 2035 2035 2035 
2035 2035 2035 2035 2035 2035 2035 2035 2035 
2035 2035 2035 2035 2035 2035 2035 2035 2035 
2035 2035 2035 2035 2035 2035 2035 2035 2035 
2035 2035 2035 2035 2035 2035 2035 2035 2035 
2035 2035 2035 2035 2035 2035 2035 2035 2035 
2035 2035 2035 2035 2035 2035 2035 2035 2035 
2035 2035 2035 2035 2035 2035 2035 2035 2035 
2035 2035 2035 2035 2035 2035 2035 2035 2035 
2035 2035 2035 2035 2035 2035 2035 2035 2035 
2035 2035 2035 2035 2035 2035 2035 2035 2035 
2035 2035 2035 2035 2035 2035 2035 2035 2035 
2035 2035 2035 2035 2035 2035 2035 2035 2035 
2035 2035 2035 2035 2035 2035 2035 2035 2035 
2035 2035 2035 2035 2035 2035 2035 2035 2035 
2035 2035 2035 2035 2035 2035 2035 2035 2035 
2035 2035 2035 2035 2035 2035 2035 2035 2035 
2035 2035 2035 2035 2035 2035 2035 2035 2035 
2035 2035 2035 2035 2035 2035 2035 2035 2035 
2035 2035 2035 2035 2035 2035 2035 2035 2035 
2035 2035 2035 2035 2035 2035 2035 2035 2035 
2035 2035 2035 2035 2035 2035 2035 2035 2035 
2035 2035 2035 2035 2035 2035 2035 2035 2035 
2035 2035 2035 2035 2035 2035 2035 2035 2035 
2035 2035 2035 2035 2035 2035 2035 2035 2035 
2035 2035 2035 2035 2035 2035 2035 2035 2035 
2035 2035 2035 2035 2035 2035 2035 2035 2035 
2035 2035 2035 2035 2035 2035 2035 2035 2035 
2035 2035 2035 2035 2035 2035 2035 2035 2035 
2035 2035 2035 2035 2035 2035 2035 2035 2035 
2035 2035 2035 2035 2035 2035 2035 2035 2035 
2035 2035 2035 2035 2035 2035 2035 2035 2035 
2035 2035 2035 2035 2035 2035 2035 2035 2035 
2035 2035 2035 2035 2035 2035 2035 2035 2035 
2035 2035 2035 2035 2035 2035 2035 2035 2035 
2035 2035 2035 2035 2035 2035 2035 2035 2035 
2035 2035 2035 2035 2035 2035 2035 2035 2035 
2035 2035 2035 2035 2035 2035 2035 2035 2035 
2035 2035 2035 2035 2035 2035 2035 2035 2035 
2035 2035 2035 2035 2035 2035 2035 2035 2035 
2035 2035 2035 2035 2035 2035 2035 2035 2035 
2035 2035 2035 2035 2035 2035 2035 2035 2035 
2035 2035 2035 2035 2035 2035 2035 2035 2035 
2035 2035 2035 2035 2035 2035 2035 2035 2035 
2035 2035 2035 2035 2035 2035 2035 2035 2035 
2035 2035 2035 2035 2035 2035 2035 2035 2035 
2035 2035 2035 2035 2035 2035 2035 2035 2035 
2035 2035 2035 2035 2035 2035 2035 2035 2035 
2035 2035 2035 2035 2035 2035 2035 2035 2035 
2035 2035 2035 2035 2035 2035 2035 2035 2035 
2035 2035 2035 2035 2035 2035 2035 2035 2035 
2035 2035 2035 2035 2035 2035 2035 2035 2035 
2035 2035 2035 2035 2035 2035 2035 2035 2035 
2035 2035 2035 2035 2035 2035 2035 2035 2035 
2035 2035 2035 2035 2035 2035 2035 2035 2035 
2035 2035 2035 2035 2035 2035 2035 2035 2035 
2035 2035 2035 2035 2035 2035 2035 2035 2035 
2035 2035 2035 2035 2035 2035 2035 2035 2035 
2035 2035 2035 2035 2035 2035 2035 2035 2035 
2035 2035 2035 2035 2035 2035 2035 2035 2035 
2035 2035 2035 2035 2035 2035 2035 2035 2035 
2035 2035 2035 2035 2035 2035 2035 2035 2035 
2035 2035 2035 2035 2035 2035 2035 2035 2035 
2035 2035 2035 2035 2035 2035 2035 2035 2035 
2035 2035 2035 2035 2035 2035 2035 2035 2035 
2035 2035 2035 2035 2035 2035 2035 2035 2035 
2035 2035 2035 2035 2035 2035 2035 2035 2035 
2035 2035 2035 2035 2035 2035 2035 2035 2035 
2035 2035 2035 2035 2035 2035 2035 2035 2035 
2035 2035 2035 2035 2035 2035 2035 2035 2035 
2035 2035 2035 2035 2035 2035 2035 2035 2035 
2035 2035 2035 2035 2035 2035 2035 2035 2035 
2035 2035 2035 2035 2035 2035 2035 2035 2035 
2035 2035 2035 2035 2035 2035 2035 2035 2035 
2035 2035 2035 2035 2035 2035 2035 2035 2035 
2035 2035 2035 2035 2035 2035 2035 2035 2035 
2035 2035 2035 2035 2035 2035 2035 2035 2035 
2035 2035 2035 2035 2035 2035 2035 2035 2035 
2035 2035 2035 2035 2035 2035 2035 2035 2035 
2035 2035 2035 2035 2035 2035 2035 2035 2035 
2035 2035 2035 2035 2035 2035 2035 2035 2035 
2035 2035 2035 2035 2035 2035 2035 2035 2035 
2035 2035 2035 2035 2035 2035 2035 2035 2035 
2035 2035 2035 2035 2035 2035 2035 2035 2035 
2035 2035 2035 2035 2035 2035 2035 2035 2035 
2035 2035 2035 2035 2035 2035 2035 2035 2035 
2035 2035 2035 2035 2035 2035 2035 2035 2035 
2035 2035 2035 2035 2035 2035 2035 2035 2035 
2035 2035 2035 2035 2035 2035 2035 2035 2035 
2035 2035 2035 2035 2035 2035 2035 2035 2035 
2035 2035 2035 2035 2035 2035 2035 2035 2035 
2035 2035 2035 2035 2035 2035 2035 2035 2035 
2035 2035 2035 2035 2035 2035 2035 2035 2035 
2035 2035 2035 2035 2035 2035 2035 2035 2035 
2035 2035 2035 2035 2035 2035 2035 2035 2035 
2035 2035 2035 2035 2035 2035 2035 2035 2035 
2035 2035 2035 2035 2035 2035 2035 2035 2035 
2035 2035 2035 2035 2035 2035 2035 2035 2035 
2035 2035 2035 2035 2035 2035 2035 2035 2035 
2035 2035 2035 2035 2035 2035 2035 2035 2035 
2035 2035 2035 2035 2035 2035 2035 2035 2035 
2035 2035 2035 2035 2035 2035 2035 2035 2035 
2035 2035 2035 2035 2035 2035 2035 2035 2035 
2035 2035 2035 2035 2035 2035 2035 2035 2035 
2035 2035 2035 2035 2035 2035 2035 2035 2035 
2035 2035 2035 2035 2035 2035 2035 2035 2035 
2035 2035 2035 2035 2035 2035 2035 2035 2035 
2035 2035 2035 2035 2035 2035 2035 2035 2035 
2035 2035 2035 2035 2035 2035 2035 2035 2035 
2035 2035 2035 2035 2035 2035 2035 2035 2035 
2035 2035 2035 2035 2035 2035 2035 2035 2035 
2035 2035 2035 2035 2035 2035 2035 2035 2035 
2035 2035 2035 2035 2035 2035 2035 2035 2035 
2035 2035 2035 2035 2035 2035 2035 2035 2035 
2035 2035 2035 2035 2035 2035 2035 2035 2035 
2035 2035 2035 2035 2035 2035 2035 2035 2035 
2035 2035 2035 2035 2035 2035 2035 2035 2035 
2035 2035 2035 2035 2035 2035 2035 2035 2035 
2035 2035 2035 2035 2035 2035 2035 2035 2035 
2035 2035 2035 2035 2035 2035 2035 2035 2035 
2035 2035 2035 2035 2035 2035 2035 2035 2035 