# vtk DataFile Version 4.2
vtk output
ASCII
DATASET POLYDATA
POINTS 2280 float
-16.1031 -7.66504 87.7735 -16.3288 -7.2871 87.5379 -16.5833 -7.75904 87.4854 
-16.0831 -7.36889 87.5422 -16.2019 -8.46654 87.917 -16.7214 -8.59509 87.5174 
-15.6877 -7.8024 87.3075 -15.2674 -8.60294 87.888 -14.8236 -8.40912 87.1527 
-6.06559 -8.74041 87.9118 -6.17623 -8.1891 87.1985 -6.74819 -8.65073 87.5614 
-5.09227 -8.76988 87.8594 -5.3739 -8.18082 87.3922 -4.70247 -8.41615 87.398 
-3.32837 -8.47805 87.6474 -3.31654 -8.2038 87.5474 -3.51807 -8.3546 87.4609 
-3.06784 -8.35164 87.4709 -16.208 -9.43056 87.8377 -16.7486 -9.40763 87.3291 
-15.293 -9.52191 88.1072 -14.3564 -8.95174 87.5256 -14.1496 -9.59061 87.9807 
-13.2428 -9.77374 87.8104 -13.3924 -9.02845 87.219 -12.7186 -9.49781 87.3995 
-9.08354 -9.43259 87.7361 -9.21752 -9.19397 87.1754 -9.59257 -9.72695 87.2679 
-8.20958 -9.62091 87.8471 -8.35301 -9.12439 87.4067 -7.01503 -9.46494 87.9608 
-7.44207 -9.00431 87.452 -6.12735 -9.67309 88.1059 -5.43755 -9.38416 88.0745 
-4.43097 -8.93859 87.5979 -4.62114 -9.63626 87.7969 -3.28863 -8.72133 87.4147 
-4.00751 -9.37512 87.4416 -16.1894 -10.1297 87.6112 -15.8987 -10.9048 87.5407 
-15.366 -10.5158 87.9423 -14.4548 -10.422 88.0985 -13.5909 -10.608 87.8917 
-12.8071 -10.1783 87.5653 -9.05078 -9.94706 87.5648 -8.28554 -10.2103 87.6507 
-7.85291 -10.5676 87.5366 -7.51756 -10.2819 87.8479 -6.53737 -10.422 87.9238 
-5.44717 -10.3354 87.8888 -4.64702 -10.4286 87.5879 -4.08638 -10.0013 87.4408 
-15.2911 -11.371 87.7621 -15.6423 -11.6699 87.4371 -14.4757 -11.3369 87.8496 
-13.7165 -11.4136 87.5792 -13.1254 -10.9502 87.4712 -7.25863 -10.9839 87.3776 
-6.02096 -11.0867 87.528 -5.14088 -10.9354 87.4684 -14.9702 -12.001 87.4971 
-14.2147 -11.9147 87.4312 -16.3017 -7.60373 87.1878 -14.967 -7.59927 86.8708 
-15.1594 -6.92382 86.2356 -15.7011 -7.52013 86.3243 -13.9722 -7.54657 86.8485 
-14.2541 -7.04596 86.4095 -13.2096 -7.66923 86.7853 -13.437 -7.17152 86.5305 
-12.9465 -7.47402 86.2982 -3.02435 -7.29341 86.3595 -3.65602 -7.67188 86.4117 
-3.12531 -7.80149 87.0193 -2.22064 -7.66161 86.7756 -2.46325 -7.26988 86.5488 
-2.00189 -7.49628 86.483 -16.1602 -8.04197 86.5199 -16.7941 -8.48633 86.8413 
-14.3417 -8.21413 86.6902 -14.5087 -8.55966 86.538 -13.9106 -8.61247 86.6428 
-13.5282 -8.24385 86.8661 -12.8001 -8.49946 86.3898 -6.48637 -8.10295 86.2943 
-6.86244 -8.49008 86.8587 -5.62027 -7.84487 86.4654 -3.92523 -8.52703 87.1619 
-4.53329 -7.92107 86.5723 -2.51257 -8.62007 87.0201 -1.7578 -8.19419 86.4016 
-17.193 -9.53465 86.8529 -17.1827 -9.06024 86.1682 -17.6346 -9.72835 86.4648 
-14.2268 -8.78443 86.7762 -12.0543 -9.70924 87.0481 -12.2156 -9.18166 86.5314 
-11.2922 -9.67861 86.7345 -11.3005 -9.19724 86.3713 -10.755 -9.43336 86.3157 
-9.49611 -9.10027 86.2998 -9.82789 -9.64359 86.6312 -8.58508 -8.86064 86.444 
-7.62339 -8.78383 86.6749 -3.39669 -9.554 87.177 -2.51395 -9.73704 86.8018 
-1.71733 -9.42966 86.3174 -17.2572 -10.4094 86.797 -17.7289 -10.5362 86.1729 
-16.6367 -10.3136 87.2133 -12.4891 -10.7043 87.1589 -11.6497 -10.5456 86.8093 
-10.8685 -10.12 86.4624 -9.36 -10.3235 87.0048 -9.73656 -10.423 86.5408 
-8.48607 -10.6063 87.1525 -4.20784 -10.7854 87.179 -3.15277 -10.5573 86.9033 
-2.58682 -10.4883 86.5756 -2.16105 -10.1355 86.3401 -17.2288 -11.0941 86.5659 
-16.9107 -11.8618 86.5167 -16.3997 -11.4075 87.0242 -13.2333 -11.762 87.1415 
-12.2141 -11.5183 86.8391 -11.66 -11.4203 86.5174 -11.1629 -10.9192 86.3878 
-9.04635 -10.938 86.4669 -8.11081 -11.1933 86.6628 -7.37138 -11.4798 86.811 
-7.8758 -11.6011 86.2883 -6.54181 -11.5659 87.0007 -5.37334 -11.4947 87.0438 
-4.44977 -11.5976 86.8823 -3.61533 -11.4357 86.8148 -2.85371 -11.2384 86.5227 
-16.1849 -12.4973 86.8022 -16.7267 -12.4626 86.4797 -15.3338 -12.5147 87.1345 
-14.17 -12.5894 87.136 -13.1051 -12.7388 87.0123 -12.2293 -12.601 86.862 
-11.7277 -12.1973 86.4748 -7.20704 -11.8393 86.346 -6.19282 -12.0548 86.4274 
-5.05221 -12.0867 86.5535 -4.01971 -12.0919 86.3713 -3.0856 -11.8762 86.2418 
-16.4024 -13.0503 86.3931 -15.7858 -13.5838 86.5132 -15.3311 -13.463 86.8479 
-14.2928 -13.5726 87.0335 -13.2799 -13.575 87.0248 -12.2762 -13.5748 86.993 
-11.4611 -12.9693 86.5559 -11.4246 -13.6112 86.7944 -10.941 -13.4984 86.4197 
-15.3772 -14.0796 86.4141 -14.7428 -14.5697 86.5349 -14.4563 -14.3114 86.8284 
-13.5353 -14.4275 86.882 -12.5353 -14.4306 86.8814 -11.5974 -14.4047 86.7976 
-10.8638 -14.2262 86.4833 -14.206 -14.9643 86.3819 -13.0013 -15.0724 86.5215 
-12.0036 -15.0461 86.4923 -11.1968 -14.8666 86.4189 -15.1724 -6.46374 85.708 
-15.3367 -6.33397 85.4604 -15.5538 -6.71066 85.7494 -14.9537 -6.59385 85.244 
-15.6667 -7.28762 85.5011 -14.4895 -6.73536 85.6672 -13.4739 -7.07386 85.6952 
-12.925 -7.78649 85.6251 -5.01186 -7.48207 85.9477 -5.18603 -7.16595 85.1658 
-5.65627 -7.5306 85.6133 -4.25589 -7.55983 85.8392 -4.39426 -7.17805 85.3465 
-3.18475 -7.45538 86.0333 -3.72373 -7.42351 85.327 -2.37788 -7.57356 86.0309 
-16.5111 -8.56231 86.0724 -16.0277 -8.14802 85.5028 -14.2915 -8.58937 86.363 
-12.8249 -8.50799 85.6299 -7.9508 -8.47468 85.8918 -8.35081 -8.12673 85.1022 
-8.72001 -8.53226 85.6134 -7.17405 -8.41453 86.1618 -7.17809 -8.08425 85.4408 
-6.21877 -7.83481 85.5109 -3.41618 -7.67215 85.7572 -2.42025 -7.74139 85.4203 
-1.57037 -8.0003 85.6159 -1.22638 -8.84308 85.9469 -0.938442 -8.30973 85.2678 
-17.089 -9.14064 85.3665 -17.6561 -9.6456 85.819 -16.5987 -8.78086 85.6087 
-12.3607 -9.3904 85.9456 -12.6097 -9.2134 85.4678 -11.7686 -9.58363 85.5216 
-11.2052 -9.25847 85.6199 -10.2237 -9.58739 86.1912 -10.1942 -9.11104 85.597 
-9.22814 -8.79892 85.7266 -1.2187 -9.48045 85.915 -0.905716 -9.3452 85.2973 
-17.7626 -10.4981 85.3968 -12.1111 -9.7822 85.3547 -10.3777 -10.6444 86.1732 
-2.27043 -10.8857 86.0942 -1.73151 -10.4495 85.7592 -1.2365 -10.0528 85.5156 
-17.4805 -11.4452 86.1626 -17.7789 -11.4811 85.5984 -11.0715 -11.7117 86.1123 
-10.3809 -11.5513 85.9002 -9.6571 -11.5036 85.8879 -8.62913 -11.5305 85.9816 
-2.44337 -11.5722 86.0007 -1.83823 -11.2937 85.4971 -17.2669 -12.3264 85.9883 
-17.717 -12.5679 85.118 -11.0475 -12.7625 86.1626 -10.3402 -12.4352 85.7864 
-9.68019 -12.4584 85.4415 -9.00332 -12.1128 85.3932 -8.0329 -12.0204 85.5928 
-7.10762 -12.2277 85.7298 -6.41624 -12.456 85.8424 -6.91646 -12.6028 85.2957 
-5.59446 -12.5468 86.0424 -4.6357 -12.5749 86.006 -3.89932 -12.5259 85.7076 
-3.1409 -12.2672 85.465 -2.19454 -11.9097 85.3483 -17.11 -13.1337 85.6459 
-16.3174 -13.5859 86.0003 -16.8657 -13.5763 85.481 -10.2644 -13.696 85.9661 
-9.76095 -13.2284 85.4256 -6.14017 -12.8525 85.2608 -5.06169 -12.9165 85.3954 
-4.11503 -12.8554 85.2622 -16.3507 -14.0725 85.4792 -15.278 -14.5717 86.0178 
-15.8418 -14.5605 85.4874 -10.3334 -14.823 86.1093 -9.3988 -13.8762 85.5268 
-9.19236 -14.569 85.8713 -8.2845 -14.7381 85.7507 -8.43387 -14.0014 85.254 
-7.81758 -14.5089 85.3432 -15.3098 -15.0421 85.5138 -14.2247 -15.6028 85.8788 
-14.8336 -15.5195 85.5045 -13.2481 -15.7033 86.1584 -12.2459 -15.7065 86.1584 
-11.1529 -15.5566 86.1025 -10.1115 -15.7149 86.0033 -9.25412 -15.5464 86.0287 
-8.21257 -15.5792 85.9438 -7.65575 -15.1979 85.5682 -14.4052 -16.0229 85.4029 
-13.7811 -16.5379 85.5023 -13.3236 -16.4359 85.8479 -12.2827 -16.5599 86.0225 
-11.2974 -16.5547 85.9976 -10.2865 -16.5473 85.9798 -9.27128 -16.5314 86.0083 
-8.42259 -16.3871 86.0376 -7.39177 -15.9634 85.6427 -7.56886 -16.6766 85.8139 
-6.89246 -16.5063 85.1644 -13.3724 -17.0599 85.4092 -12.7227 -17.5824 85.5424 
-12.439 -17.2994 85.8277 -11.5036 -17.4346 85.882 -10.5161 -17.446 85.8708 
-9.51135 -17.4411 85.8718 -8.39785 -17.3265 85.8665 -7.59587 -17.4492 85.6266 
-7.12312 -17.1847 85.3786 -12.1971 -17.9915 85.4095 -10.999 -18.1046 85.5475 
-10.0018 -18.1085 85.5352 -8.97591 -18.0791 85.531 -8.09377 -17.9336 85.4889 
-15.4091 -6.68195 85.2823 -15.3033 -7.3804 84.8467 -14.2167 -7.12025 84.7773 
-14.7755 -7.61207 84.2253 -13.3853 -7.46193 84.9615 -13.8068 -7.7663 84.4351 
-5.07591 -7.15316 84.2833 -5.74201 -7.6167 84.5097 -4.48772 -6.97246 84.6538 
-2.91297 -7.48013 85.0376 -3.43959 -7.1831 84.5569 -1.94862 -7.49486 84.9779 
-2.18935 -7.20317 84.307 -1.22555 -7.61685 85.0046 -1.29928 -7.13302 84.3481 
-0.727355 -7.566 84.5126 -16.539 -8.69092 84.9412 -16.064 -8.12239 84.3044 
-16.6375 -8.60394 84.3301 -15.3893 -7.75205 84.2651 -13.1078 -8.39761 84.9016 
-13.5945 -8.5446 84.327 -9.34225 -8.5825 85.005 -8.98828 -8.22538 84.4887 
-9.55355 -8.73125 84.2952 -8.15688 -8.08049 84.4891 -7.31414 -8.08915 84.6126 
-6.44546 -8.03511 84.5672 -0.592162 -8.45938 84.6509 -17.3746 -9.81859 85.0516 
-16.9089 -9.21572 84.4451 -13.0067 -9.01156 84.1921 -12.5296 -9.18925 84.5871 
-12.1137 -9.67899 84.9 -11.1734 -9.60006 85.0819 -11.8669 -9.57158 84.1106 
-10.5757 -9.56458 84.869 -9.9096 -9.26909 84.5402 -0.590622 -9.35321 84.5454 
-17.4566 -10.5976 84.8091 -17.0309 -10.3069 84.2112 -11.2793 -9.88106 84.551 
-10.2985 -9.827 84.1987 -1.25494 -10.9076 85.062 -0.750534 -10.4111 84.5551 
-17.2886 -11.0977 84.3219 -17.7126 -11.4749 84.8008 -1.42195 -11.5708 84.9461 
-0.980961 -11.342 84.4788 -17.7393 -12.3922 84.4327 -9.16967 -12.871 85.0883 
-8.48765 -12.5344 85.0319 -7.6756 -12.6702 84.9829 -3.4519 -12.64 85.099 
-2.84913 -12.5032 84.6418 -2.11875 -12.2202 84.4099 -1.36207 -11.8556 84.3894 
-17.3149 -13.4947 85.0713 -17.6408 -13.2271 84.4889 -9.09912 -13.5312 85.1522 
-8.42833 -13.2009 84.8903 -7.70858 -13.4157 84.6298 -6.9772 -13.0584 84.6027 
-6.17727 -13.1557 84.4507 -5.25193 -13.1366 84.433 -4.26541 -13.0306 84.4853 
-3.23791 -12.8348 84.3566 -17.1266 -13.9922 84.6416 -16.35 -14.5627 84.961 
-16.8294 -14.4105 84.1115 -7.07364 -14.845 84.9214 -7.51238 -14.0787 84.6977 
-6.79381 -14.5815 84.0681 -16.1089 -15.0736 84.6098 -15.33 -15.5448 85.0048 
-15.814 -15.7197 84.1483 -6.93363 -15.6566 85.1715 -6.4041 -15.1234 84.4975 
-6.42367 -15.4005 84.7645 -6.14192 -15.5264 84.5038 -15.0843 -16.1056 84.6769 
-14.3035 -16.5415 85.0009 -14.8349 -16.5251 84.5028 -6.41426 -15.914 84.665 
-6.6416 -16.3464 84.157 -5.47415 -16.2539 84.4521 -5.76468 -16.8633 84.5351 
[...]
CELL_DATA 4568
SCALARS scalars float
LOOKUP_TABLE default
2032 2032 2032 2032 2032 2032 2032 2032 2032 
2032 2032 2032 2032 2032 2032 2032 2032 2032 
2032 2032 2032 2032 2032 2032 2032 2032 2032 
2032 2032 2032 2032 2032 2032 2032 2032 2032 
2032 2032 2032 2032 2032 2032 2032 2032 2032 
2032 2032 2032 2032 2032 2032 2032 2032 2032 
2032 2032 2032 2032 2032 2032 2032 2032 2032 
2032 2032 2032 2032 2032 2032 2032 2032 2032 
2032 2032 2032 2032 2032 2032 2032 2032 2032 
2032 2032 2032 2032 2032 2032 2032 2032 2032 
2032 2032 2032 2032 2032 2032 2032 2032 2032 
2032 2032 2032 2032 2032 2032 2032 2032 2032 
2032 2032 2032 2032 2032 2032 2032 2032 2032 
2032 2032 2032 2032 2032 2032 2032 2032 2032 
2032 2032 2032 2032 2032 2032 2032 2032 2032 
2032 2032 2032 2032 2032 2032 2032 2032 2032 
2032 2032 2032 2032 2032 2032 2032 2032 2032 
2032 2032 2032 2032 2032 2032 2032 2032 2032 
2032 2032 2032 2032 2032 2032 2032 2032 2032 
2032 2032 2032 2032 2032 2032 2032 2032 2032 
2032 2032 2032 2032 2032 2032 2032 2032 2032 
2032 2032 2032 2032 2032 2032 2032 2032 2032 
2032 2032 2032 2032 2032 2032 2032 2032 2032 
2032 2032 2032 2032 2032 2032 2032 2032 2032 
2032 2032 2032 2032 2032 2032 2032 2032 2032 
2032 2032 2032 2032 2032 2032 2032 2032 2032 
2032 2032 2032 2032 2032 2032 2032 2032 2032 
2032 2032 2032 2032 2032 2032 2032 2032 2032 
2032 2032 2032 2032 2032 2032 2032 2032 2032 
2032 2032 2032 2032 2032 2032 2032 2032 2032 
2032 2032 2032 2032 2032 2032 2032 2032 2032 
2032 2032 2032 2032 2032 2032 2032 2032 2032 
2032 2032 2032 2032 2032 2032 2032 2032 2032 
2032 2032 2032 2032 2032 2032 2032 2032 2032 
2032 2032 2032 2032 2032 2032 2032 2032 2032 
2032 2032 2032 2032 2032 2032 2032 2032 2032 
2032 2032 2032 2032 2032 2032 2032 2032 2032 
2032 2032 2032 2032 2032 2032 2032 2032 2032 
2032 2032 2032 2032 2032 2032 2032 2032 2032 
2032 2032 2032 2032 2032 2032 2032 2032 2032 
2032 2032 2032 2032 2032 2032 2032 2032 2032 
2032 2032 2032 2032 2032 2032 2032 2032 2032 
2032 2032 2032 2032 2032 2032 2032 2032 2032 
2032 2032 2032 2032 2032 2032 2032 2032 2032 
2032 2032 2032 2032 2032 2032 2032 2032 2032 
2032 2032 2032 2032 2032 2032 2032 2032 2032 
2032 2032 2032 2032 2032 2032 2032 2032 2032 
2032 2032 2032 2032 2032 2032 2032 2032 2032 
2032 2032 2032 2032 2032 2032 2032 2032 2032 
2032 2032 2032 2032 2032 2032 2032 2032 2032 
2032 2032 2032 2032 2032 2032 2032 2032 2032 
2032 2032 2032 2032 2032 2032 2032 2032 2032 
2032 2032 2032 2032 2032 2032 2032 2032 2032 
2032 2032 2032 2032 2032 2032 2032 2032 2032 
2032 2032 2032 2032 2032 2032 2032 2032 2032 
2032 2032 2032 2032 2032 2032 2032 2032 2032 
2032 2032 2032 2032 2032 2032 2032 2032 2032 
2032 2032 2032 2032 2032 2032 2032 2032 2032 
2032 2032 2032 2032 2032 2032 2032 2032 2032 
2032 2032 2032 2032 2032 2032 2032 2032 2032 
2032 2032 2032 2032 2032 2032 2032 2032 2032 
2032 2032 2032 2032 2032 2032 2032 2032 2032 
2032 2032 2032 2032 2032 2032 2032 2032 2032 
2032 2032 2032 2032 2032 2032 2032 2032 2032 
2032 2032 2032 2032 2032 2032 2032 2032 2032 
2032 2032 2032 2032 2032 2032 2032 2032 2032 
2032 2032 2032 2032 2032 2032 2032 2032 2032 
2032 2032 2032 2032 2032 2032 2032 2032 2032 
2032 2032 2032 2032 2032 2032 2032 2032 2032 
2032 2032 2032 2032 2032 2032 2032 2032 2032 
2032 2032 2032 2032 2032 2032 2032 2032 2032 
2032 2032 2032 2032 2032 2032 2032 2032 2032 
2032 2032 2032 2032 2032 2032 2032 2032 2032 
2032 2032 2032 2032 2032 2032 2032 2032 2032 
2032 2032 2032 2032 2032 2032 2032 2032 2032 
2032 2032 2032 2032 2032 2032 2032 2032 2032 
2032 2032 2032 2032 2032 2032 2032 2032 2032 
2032 2032 2032 2032 2032 2032 2032 2032 2032 
2032 2032 2032 2032 2032 2032 2032 2032 2032 
2032 2032 2032 2032 2032 2032 2032 2032 2032 
2032 2032 2032 2032 2032 2032 2032 2032 2032 
2032 2032 2032 2032 2032 2032 2032 2032 2032 
2032 2032 2032 2032 2032 2032 2032 2032 2032 
2032 2032 2032 2032 2032 2032 2032 2032 2032 
2032 2032 2032 2032 2032 2032 2032 2032 2032 
2032 2032 2032 2032 2032 2032 2032 2032 2032 
2032 2032 2032 2032 2032 2032 2032 2032 2032 
2032 2032 2032 2032 2032 2032 2032 2032 2032 
2032 2032 2032 2032 2032 2032 2032 2032 2032 
2032 2032 2032 2032 2032 2032 2032 2032 2032 
2032 2032 2032 2032 2032 2032 2032 2032 2032 
2032 2032 2032 2032 2032 2032 2032 2032 2032 
2032 2032 2032 2032 2032 2032 2032 2032 2032 
2032 2032 2032 2032 2032 2032 2032 2032 2032 
2032 2032 2032 2032 2032 2032 2032 2032 2032 
2032 2032 2032 2032 2032 2032 2032 2032 2032 
2032 2032 2032 2032 2032 2032 2032 2032 2032 
2032 2032 2032 2032 2032 2032 2032 2032 2032 
2032 2032 2032 2032 2032 2032 2032 2032 2032 
2032 2032 2032 2032 2032 2032 2032 2032 2032 
2032 2032 2032 2032 2032 2032 2032 2032 2032 
2032 2032 2032 2032 2032 2032 2032 2032 2032 
2032 2032 2032 2032 2032 2032 2032 2032 2032 
2032 2032 2032 2032 2032 2032 2032 2032 2032 
2032 2032 2032 2032 2032 2032 2032 2032 2032 
2032 2032 2032 2032 2032 2032 2032 2032 2032 
2032 2032 2032 2032 2032 2032 2032 2032 2032 
2032 2032 2032 2032 2032 2032 2032 2032 2032 
2032 2032 2032 2032 2032 2032 2032 2032 2032 
2032 2032 2032 2032 2032 2032 2032 2032 2032 
2032 2032 2032 2032 2032 2032 2032 2032 2032 
2032 2032 2032 2032 2032 2032 2032 2032 2032 
2032 2032 2032 2032 2032 2032 2032 2032 2032 
2032 2032 2032 2032 2032 2032 2032 2032 2032 
2032 2032 2032 2032 2032 2032 2032 2032 2032 
2032 2032 2032 2032 2032 2032 2032 2032 2032 
2032 2032 2032 2032 2032 2032 2032 2032 2032 
2032 2032 2032 2032 2032 2032 2032 2032 2032 
2032 2032 2032 2032 2032 2032 2032 2032 2032 
2032 2032 2032 2032 2032 2032 2032 2032 2032 
2032 2032 2032 2032 2032 2032 2032 2032 2032 
2032 2032 2032 2032 2032 2032 2032 2032 2032 
2032 2032 2032 2032 2032 2032 2032 2032 2032 
2032 2032 2032 2032 2032 2032 2032 2032 2032 
2032 2032 2032 2032 2032 2032 2032 2032 2032 
2032 2032 2032 2032 2032 2032 2032 2032 2032 
2032 2032 2032 2032 2032 2032 2032 2032 2032 
2032 2032 2032 2032 2032 2032 2032 2032 2032 
2032 2032 2032 2032 2032 2032 2032 2032 2032 
2032 2032 2032 2032 2032 2032 2032 2032 2032 
2032 2032 2032 2032 2032 2032 2032 2032 2032 
2032 2032 2032 2032 2032 2032 2032 2032 2032 
2032 2032 2032 2032 2032 2032 2032 2032 2032 
2032 2032 2032 2032 2032 2032 2032 2032 2032 
2032 2032 2032 2032 2032 2032 2032 2032 2032 
2032 2032 2032 2032 2032 2032 2032 2032 2032 
2032 2032 2032 2032 2032 2032 2032 2032 2032 
2032 2032 2032 2032 2032 2032 2032 2032 2032 
2032 2032 2032 2032 2032 2032 2032 2032 2032 
2032 2032 2032 2032 2032 2032 2032 2032 2032 
2032 2032 2032 2032 2032 2032 2032 2032 2032 
2032 2032 2032 2032 2032 2032 2032 2032 2032 
2032 2032 2032 2032 2032 2032 2032 2032 2032 
2032 2032 2032 2032 2032 2032 2032 2032 2032 
2032 2032 2032 2032 2032 2032 2032 2032 2032 
2032 2032 2032 2032 2032 2032 2032 2032 2032 
2032 2032 2032 2032 2032 2032 2032 2032 2032 
2032 2032 2032 2032 2032 2032 2032 2032 2032 
2032 2032 2032 2032 2032 2032 2032 2032 2032 
2032 2032 2032 2032 2032 2032 2032 2032 2032 
2032 2032 2032 2032 2032 2032 2032 2032 2032 
2032 2032 2032 2032 2032 2032 2032 2032 2032 
2032 2032 2032 2032 2032 2032 2032 2032 2032 
2032 2032 2032 2032 2032 2032 2032 2032 2032 
2032 2032 2032 2032 2032 2032 2032 2032 2032 
2032 2032 2032 2032 2032 2032 2032 2032 2032 
2032 2032 2032 2032 2032 2032 2032 2032 2032 
2032 2032 2032 2032 2032 2032 2032 2032 2032 
2032 2032 2032 2032 2032 2032 2032 2032 2032 
2032 2032 2032 2032 2032 2032 2032 2032 2032 
2032 2032 2032 2032 2032 2032 2032 2032 2032 
2032 2032 2032 2032 2032 2032 2032 2032 2032 
2032 2032 2032 2032 2032 2032 2032 2032 2032 
2032 2032 2032 2032 2032 2032 2032 2032 2032 
2032 2032 2032 2032 2032 2032 2032 2032 2032 
2032 2032 2032 2032 2032 2032 2032 2032 2032 
2032 2032 2032 2032 2032 2032 2032 2032 2032 
2032 2032 2032 2032 2032 2032 2032 2032 2032 
2032 2032 2032 2032 2032 2032 2032 2032 2032 
2032 2032 2032 2032 2032 2032 2032 2032 2032 
2032 2032 2032 2032 2032 2032 2032 2032 2032 
2032 2032 2032 2032 2032 2032 2032 2032 2032 
2032 2032 2032 2032 2032 2032 2032 2032 2032 
2032 2032 2032 2032 2032 2032 2032 2032 2032 
2032 2032 2032 2032 2032 2032 2032 2032 2032 
2032 2032 2032 2032 2032 2032 2032 2032 2032 
2032 2032 2032 2032 2032 2032 2032 2032 2032 
2032 2032 2032 2032 2032 2032 2032 2032 2032 
2032 2032 2032 2032 2032 2032 2032 2032 2032 
2032 2032 2032 2032 2032 2032 2032 2032 2032 
2032 2032 2032 2032 2032 2032 2032 2032 2032 
2032 2032 2032 2032 2032 2032 2032 2032 2032 
2032 2032 2032 2032 2032 2032 2032 2032 2032 
2032 2032 2032 2032 2032 2032 2032 2032 2032 
2032 2032 2032 2032 2032 2032 2032 2032 2032 
2032 2032 2032 2032 2032 2032 2032 2032 2032 
2032 2032 2032 2032 2032 2032 2032 2032 2032 
2032 2032 2032 2032 2032 2032 2032 2032 2032 
2032 2032 2032 2032 2032 2032 2032 2032 2032 
2032 2032 2032 2032 2032 2032 2032 2032 2032 
2032 2032 2032 2032 2032 2032 2032 2032 2032 
2032 2032 2032 2032 2032 2032 2032 2032 2032 
2032 2032 2032 2032 2032 2032 2032 2032 2032 
2032 2032 2032 2032 2032 2032 2032 2032 2032 
2032 2032 2032 2032 2032 2032 2032 2032 2032 
2032 2032 2032 2032 2032 2032 2032 2032 2032 
2032 2032 2032 2032 2032 2032 2032 2032 2032 
2032 2032 2032 2032 2032 2032 2032 2032 2032 
2032 2032 2032 2032 2032 2032 2032 2032 2032 
2032 2032 2032 2032 2032 2032 2032 2032 2032 
2032 2032 2032 2032 2032 2032 2032 2032 2032 
2032 2032 2032 2032 2032 2032 2032 2032 2032 
2032 2032 2032 2032 2032 2032 2032 2032 2032 
2032 2032 2032 2032 2032 2032 2032 2032 2032 
2032 2032 2032 2032 2032 2032 2032 2032 2032 
2032 2032 2032 2032 2032 2032 2032 2032 2032 
2032 2032 2032 2032 2032 2032 2032 2032 2032 
2032 2032 2032 2032 2032 2032 2032 2032 2032 
2032 2032 2032 2032 2032 2032 2032 2032 2032 
2032 2032 2032 2032 2032 2032 2032 2032 2032 
2032 2032 2032 2032 2032 2032 2032 2032 2032 
2032 2032 2032 2032 2032 2032 2032 2032 2032 
2032 2032 2032 2032 2032 2032 2032 2032 2032 
2032 2032 2032 2032 2032 2032 2032 2032 2032 
2032 2032 2032 2032 2032 2032 2032 2032 2032 
2032 2032 2032 2032 2032 2032 2032 2032 2032 
2032 2032 2032 2032 2032 2032 2032 2032 2032 
2032 2032 2032 2032 2032 2032 2032 2032 2032 
2032 2032 2032 2032 2032 2032 2032 2032 2032 
2032 2032 2032 2032 2032 2032 2032 2032 2032 
2032 2032 2032 2032 2032 2032 2032 2032 2032 
2032 2032 2032 2032 2032 2032 2032 2032 2032 
2032 2032 2032 2032 2032 2032 2032 2032 2032 
2032 2032 2032 2032 2032 2032 2032 2032 2032 
2032 2032 2032 2032 2032 2032 2032 2032 2032 
2032 2032 2032 2032 2032 2032 2032 2032 2032 
2032 2032 2032 2032 2032 2032 2032 2032 2032 
2032 2032 2032 2032 2032 2032 2032 2032 2032 
2032 2032 2032 2032 2032 2032 2032 2032 2032 
2032 2032 2032 2032 2032 2032 2032 2032 2032 
2032 2032 2032 2032 2032 2032 2032 2032 2032 
2032 2032 2032 2032 2032 2032 2032 2032 2032 
2032 2032 2032 2032 2032 2032 2032 2032 2032 
2032 2032 2032 2032 2032 2032 2032 2032 2032 
2032 2032 2032 2032 2032 2032 2032 2032 2032 
2032 2032 2032 2032 2032 2032 2032 2032 2032 
2032 2032 2032 2032 2032 2032 2032 2032 2032 
2032 2032 2032 2032 2032 2032 2032 2032 2032 
2032 2032 2032 2032 2032 2032 2032 2032 2032 
2032 2032 2032 2032 2032 2032 2032 2032 2032 
2032 2032 2032 2032 2032 2032 2032 2032 2032 
2032 2032 2032 2032 2032 2032 2032 2032 2032 
2032 2032 2032 2032 2032 2032 2032 2032 2032 
2032 2032 2032 2032 2032 2032 2032 2032 2032 
2032 2032 2032 2032 2032 2032 2032 2032 2032 
2032 2032 2032 2032 2032 2032 2032 2032 2032 
2032 2032 2032 2032 2032 2032 2032 2032 2032 
2032 2032 2032 2032 2032 2032 2032 2032 2032 
2032 2032 2032 2032 2032 2032 2032 2032 2032 
2032 2032 2032 2032 2032 2032 2032 2032 2032 
2032 2032 2032 2032 2032 2032 2032 2032 2032 
2032 2032 2032 2032 2032 2032 2032 2032 2032 
2032 2032 2032 2032 2032 2032 2032 2032 2032 
2032 2032 2032 2032 2032 2032 2032 2032 2032 
2032 2032 2032 2032 2032 2032 2032 2032 2032 
2032 2032 2032 2032 2032 2032 2032 2032 2032 
2032 2032 2032 2032 2032 2032 2032 2032 2032 
2032 2032 2032 2032 2032 2032 2032 2032 2032 
2032 2032 2032 2032 2032 2032 2032 2032 2032 
2032 2032 2032 2032 2032 2032 2032 2032 2032 
2032 2032 2032 2032 2032 2032 2032 2032 2032 
2032 2032 2032 2032 2032 2032 2032 2032 2032 
2032 2032 2032 2032 2032 2032 2032 2032 2032 
2032 2032 2032 2032 2032 2032 2032 2032 2032 
2032 2032 2032 2032 2032 2032 2032 2032 2032 
2032 2032 2032 2032 2032 2032 2032 2032 2032 
2032 2032 2032 2032 2032 2032 2032 2032 2032 
2032 2032 2032 2032 2032 2032 2032 2032 2032 
2032 2032 2032 2032 2032 2032 2032 2032 2032 
2032 2032 2032 2032 2032 2032 2032 2032 2032 
2032 2032 2032 2032 2032 2032 2032 2032 2032 
2032 2032 2032 2032 2032 2032 2032 2032 2032 
2032 2032 2032 2032 2032 2032 2032 2032 2032 
2032 2032 2032 2032 2032 2032 2032 2032 2032 
2032 2032 2032 2032 2032 2032 2032 2032 2032 
2032 2032 2032 2032 2032 2032 2032 2032 2032 
2032 2032 2032 2032 2032 2032 2032 2032 2032 
2032 2032 2032 2032 2032 2032 2032 2032 2032 
2032 2032 2032 2032 2032 2032 2032 2032 2032 
2032 2032 2032 2032 2032 2032 2032 2032 2032 
2032 2032 2032 2032 2032 2032 2032 2032 2032 
2032 2032 2032 2032 2032 2032 2032 2032 2032 
2032 2032 2032 2032 2032 2032 2032 2032 2032 
2032 2032 2032 2032 2032 2032 2032 2032 2032 
2032 2032 2032 2032 2032 2032 2032 2032 2032 
2032 2032 2032 2032 2032 2032 2032 2032 2032 
2032 2032 2032 2032 2032 2032 2032 2032 2032 
2032 2032 2032 2032 2032 2032 2032 2032 2032 
2032 2032 2032 2032 2032 2032 2032 2032 2032 
2032 2032 2032 2032 2032 2032 2032 2032 2032 
2032 2032 2032 2032 2032 2032 2032 2032 2032 
2032 2032 2032 2032 2032 2032 2032 2032 2032 
2032 2032 2032 2032 2032 2032 2032 2032 2032 
2032 2032 2032 2032 2032 2032 2032 2032 2032 
2032 2032 2032 2032 2032 2032 2032 2032 2032 
2032 2032 2032 2032 2032 2032 2032 2032 2032 
2032 2032 2032 2032 2032 2032 2032 2032 2032 
2032 2032 2032 2032 2032 2032 2032 2032 2032 
2032 2032 2032 2032 2032 2032 2032 2032 2032 
2032 2032 2032 2032 2032 2032 2032 2032 2032 
2032 2032 2032 2032 2032 2032 2032 2032 2032 
2032 2032 2032 2032 2032 2032 2032 2032 2032 
2032 2032 2032 2032 2032 2032 2032 2032 2032 
2032 2032 2032 2032 2032 2032 2032 2032 2032 
2032 2032 2032 2032 2032 2032 2032 2032 2032 
2032 2032 2032 2032 2032 2032 2032 2032 2032 
2032 2032 2032 2032 2032 2032 2032 2032 2032 
2032 2032 2032 2032 2032 2032 2032 2032 2032 
2032 2032 2032 2032 2032 2032 2032 2032 2032 
2032 2032 2032 2032 2032 2032 2032 2032 2032 
2032 2032 2032 2032 2032 2032 2032 2032 2032 
2032 2032 2032 2032 2032 2032 2032 2032 2032 
2032 2032 2032 2032 2032 2032 2032 2032 2032 
2032 2032 2032 2032 2032 2032 2032 2032 2032 
2032 2032 2032 2032 2032 2032 2032 2032 2032 
2032 2032 2032 2032 2032 2032 2032 2032 2032 
2032 2032 2032 2032 2032 2032 2032 2032 2032 
2032 2032 2032 2032 2032 2032 2032 2032 2032 
2032 2032 2032 2032 2032 2032 2032 2032 2032 
2032 2032 2032 2032 2032 2032 2032 2032 2032 
2032 2032 2032 2032 2032 2032 2032 2032 2032 
2032 2032 2032 2032 2032 2032 2032 2032 2032 
2032 2032 2032 2032 2032 2032 2032 2032 2032 
2032 2032 2032 2032 2032 2032 2032 2032 2032 
2032 2032 2032 2032 2032 2032 2032 2032 2032 
2032 2032 2032 2032 2032 2032 2032 2032 2032 
2032 2032 2032 2032 2032 2032 2032 2032 2032 
2032 2032 2032 2032 2032 2032 2032 2032 2032 
2032 2032 2032 2032 2032 2032 2032 2032 2032 
2032 2032 2032 2032 2032 2032 2032 2032 2032 
2032 2032 2032 2032 2032 2032 2032 2032 2032 
2032 2032 2032 2032 2032 2032 2032 2032 2032 
2032 2032 2032 2032 2032 2032 2032 2032 2032 
2032 2032 2032 2032 2032 2032 2032 2032 2032 
2032 2032 2032 2032 2032 2032 2032 2032 2032 
2032 2032 2032 2032 2032 2032 2032 2032 2032 
2032 2032 2032 2032 2032 2032 2032 2032 2032 
2032 2032 2032 2032 2032 2032 2032 2032 2032 
2032 2032 2032 2032 2032 2032 2032 2032 2032 
2032 2032 2032 2032 2032 2032 2032 2032 2032 
2032 2032 2032 2032 2032 2032 2032 2032 2032 
2032 2032 2032 2032 2032 2032 2032 2032 2032 
2032 2032 2032 2032 2032 2032 2032 2032 2032 
2032 2032 2032 2032 2032 2032 2032 2032 2032 
2032 2032 2032 2032 2032 2032 2032 2032 2032 
2032 2032 2032 2032 2032 2032 2032 2032 2032 
2032 2032 2032 2032 2032 2032 2032 2032 2032 
2032 2032 2032 2032 2032 2032 2032 2032 2032 
2032 2032 2032 2032 2032 2032 2032 2032 2032 
2032 2032 2032 2032 2032 2032 2032 2032 2032 
2032 2032 2032 2032 2032 2032 2032 2032 2032 
2032 2032 2032 2032 2032 2032 2032 2032 2032 
2032 2032 2032 2032 2032 2032 2032 2032 2032 
2032 2032 2032 2032 2032 2032 2032 2032 2032 
2032 2032 2032 2032 2032 2032 2032 2032 2032 
2032 2032 2032 2032 2032 2032 2032 2032 2032 
2032 2032 2032 2032 2032 2032 2032 2032 2032 
2032 2032 2032 2032 2032 2032 2032 2032 2032 
2032 2032 2032 2032 2032 2032 2032 2032 2032 
2032 2032 2032 2032 2032 2032 2032 2032 2032 
2032 2032 2032 2032 2032 2032 2032 2032 2032 
2032 2032 2032 2032 2032 2032 2032 2032 2032 
2032 2032 2032 2032 2032 2032 2032 2032 2032 
2032 2032 2032 2032 2032 2032 2032 2032 2032 
2032 2032 2032 2032 2032 2032 2032 2032 2032 
2032 2032 2032 2032 2032 2032 2032 2032 2032 
2032 2032 2032 2032 2032 2032 2032 2032 2032 
2032 2032 2032 2032 2032 2032 2032 2032 2032 
2032 2032 2032 2032 2032 2032 2032 2032 2032 
2032 2032 2032 2032 2032 2032 2032 2032 2032 
2032 2032 2032 2032 2032 2032 2032 2032 2032 
2032 2032 2032 2032 2032 2032 2032 2032 2032 
2032 2032 2032 2032 2032 2032 2032 2032 2032 
2032 2032 2032 2032 2032 2032 2032 2032 2032 
2032 2032 2032 2032 2032 2032 2032 2032 2032 
2032 2032 2032 2032 2032 2032 2032 2032 2032 
2032 2032 2032 2032 2032 2032 2032 2032 2032 
2032 2032 2032 2032 2032 2032 2032 2032 2032 
2032 2032 2032 2032 2032 2032 2032 2032 2032 
2032 2032 2032 2032 2032 2032 2032 2032 2032 
2032 2032 2032 2032 2032 2032 2032 2032 2032 
2032 2032 2032 2032 2032 2032 2032 2032 2032 
2032 2032 2032 2032 2032 2032 2032 2032 2032 
2032 2032 2032 2032 2032 2032 2032 2032 2032 
2032 2032 2032 2032 2032 2032 2032 2032 2032 
2032 2032 2032 2032 2032 2032 2032 2032 2032 
2032 2032 2032 2032 2032 2032 2032 2032 2032 
2032 2032 2032 2032 2032 2032 2032 2032 2032 
2032 2032 2032 2032 2032 2032 2032 2032 2032 
2032 2032 2032 2032 2032 2032 2032 2032 2032 
2032 2032 2032 2032 2032 2032 2032 2032 2032 
2032 2032 2032 2032 2032 2032 2032 2032 2032 
2032 2032 2032 2032 2032 2032 2032 2032 2032 
2032 2032 2032 2032 2032 2032 2032 2032 2032 
2032 2032 2032 2032 2032 2032 2032 2032 2032 
2032 2032 2032 2032 2032 2032 2032 2032 2032 
2032 2032 2032 2032 2032 2032 2032 2032 2032 
2032 2032 2032 2032 2032 2032 2032 2032 2032 
2032 2032 2032 2032 2032 2032 2032 2032 2032 
2032 2032 2032 2032 2032 2032 2032 2032 2032 
2032 2032 2032 2032 2032 2032 2032 2032 2032 
2032 2032 2032 2032 2032 2032 2032 2032 2032 
2032 2032 2032 2032 2032 2032 2032 2032 2032 
2032 2032 2032 2032 2032 2032 2032 2032 2032 
2032 2032 2032 2032 2032 2032 2032 2032 2032 
2032 2032 2032 2032 2032 2032 2032 2032 2032 
2032 2032 2032 2032 2032 2032 2032 2032 2032 
2032 2032 2032 2032 2032 2032 2032 2032 2032 
2032 2032 2032 2032 2032 2032 2032 2032 2032 
2032 2032 2032 2032 2032 2032 2032 2032 2032 
2032 2032 2032 2032 2032 2032 2032 2032 2032 
2032 2032 2032 2032 2032 2032 2032 2032 2032 
2032 2032 2032 2032 2032 2032 2032 2032 2032 
2032 2032 2032 2032 2032 2032 2032 2032 2032 
2032 2032 2032 2032 2032 2032 2032 2032 2032 
2032 2032 2032 2032 2032 2032 2032 2032 2032 
2032 2032 2032 2032 2032 2032 2032 2032 2032 
2032 2032 2032 2032 2032 2032 2032 2032 2032 
2032 2032 2032 2032 2032 2032 2032 2032 2032 
2032 2032 2032 2032 2032 2032 2032 2032 2032 
2032 2032 2032 2032 2032 2032 2032 2032 2032 
2032 2032 2032 2032 2032 2032 2032 2032 2032 
2032 2032 2032 2032 2032 2032 2032 2032 2032 
2032 2032 2032 2032 2032 2032 2032 2032 2032 
2032 2032 2032 2032 2032 2032 2032 2032 2032 
2032 2032 2032 2032 2032 2032 2032 2032 2032 
2032 2032 2032 2032 2032 2032 2032 2032 2032 
2032 2032 2032 2032 2032 2032 2032 2032 2032 
2032 2032 2032 2032 2032 2032 2032 2032 2032 
2032 2032 2032 2032 2032 2032 2032 2032 2032 
2032 2032 2032 2032 2032 2032 2032 2032 2032 
2032 2032 2032 2032 2032 2032 2032 2032 2032 
2032 2032 2032 2032 2032 2032 2032 2032 2032 