# vtk DataFile Version 4.2
vtk output
ASCII
DATASET POLYDATA
POINTS 3328 float
30.2067 6.79826 -21.6925 30.5696 6.35631 -21.2191 30.7599 6.46572 -21.8454 
29.9937 6.34908 -21.4332 30.3381 6.81162 -22.3035 30.6226 6.33941 -22.7575 
29.7656 6.30557 -22.3499 30.2546 6.46741 -22.9784 32.2 5.71484 -21.3916 
32.2197 5.35746 -21.2371 32.555 5.51348 -21.5002 31.442 6.008 -21.4567 
31.2881 5.55423 -21.0621 30.3048 5.74804 -21.073 29.768 5.45536 -21.5585 
32.1075 5.5023 -21.7047 31.3845 5.70128 -21.8955 30.9734 5.58812 -22.4342 
29.3281 5.62648 -22.1606 29.2581 5.84939 -22.5125 28.996 5.21475 -22.6514 
30.4115 5.98872 -23.4373 30.6518 5.3408 -23.3474 29.8884 5.87714 -23.3715 
29.3568 5.73753 -22.961 30.1833 5.41422 -23.7532 29.3317 5.61314 -24.2702 
29.487 5.34673 -24.5047 29.346 5.71292 -24.5098 29.0264 5.35665 -24.3728 
29.2481 5.35668 -24.7113 33.046 4.80745 -20.4656 33.0608 4.38794 -20.1661 
33.6569 4.40378 -20.4876 32.5177 4.8015 -20.5844 32.5474 4.61212 -20.2587 
32.0979 4.37164 -20.4093 32.9389 4.42624 -20.9914 32.2224 4.33239 -20.7471 
32.1795 5.01433 -21.4927 31.4328 4.5516 -21.0724 31.7176 4.24264 -21.3928 
30.4513 4.78468 -21.0713 29.7731 4.21877 -21.4512 31.6591 4.65501 -22.0499 
31.0096 4.43654 -22.9026 29.269 4.75295 -21.9912 28.7528 4.24945 -22.4897 
30.6285 4.33253 -23.5611 29.263 5.18145 -23.7647 28.4481 4.62766 -23.1111 
28.3326 4.73991 -23.5759 28.0025 4.19797 -23.5681 30.2336 4.71945 -23.9287 
29.7706 4.36341 -24.6249 28.3657 4.60741 -24.1153 28.7463 4.52637 -24.786 
29.3218 4.65047 -25.0004 35.0507 3.81042 -19.5849 35.6026 3.25674 -19.1935 
35.8351 3.39409 -19.5351 34.2004 3.96896 -19.7684 34.4532 3.27689 -18.9674 
33.7576 3.41858 -19.4364 35.3938 3.45383 -20.0147 34.897 3.43309 -20.716 
34.4884 4.06635 -20.5111 33.2931 3.67839 -19.9092 32.2873 3.70746 -20.1189 
31.7967 3.61211 -20.4888 34.3477 3.85975 -21.3525 34.5486 3.26112 -21.3646 
33.6746 4.02623 -21.4417 32.9418 3.61659 -21.544 32.2723 3.46191 -21.0405 
31.1689 3.51387 -21.0227 31.794 3.45653 -21.6401 30.3224 3.57913 -21.0664 
29.6335 3.35547 -21.4003 33.9907 3.45871 -21.859 33.3361 3.29712 -21.9024 
32.2931 3.30811 -22.2841 32.445 3.43797 -22.5554 32.1101 3.76863 -22.3418 
31.5981 3.99292 -22.627 29.1322 3.48899 -21.8809 28.5958 3.4203 -22.4412 
32.0167 3.41633 -22.7735 31.3345 3.55312 -22.9856 30.8074 3.35608 -23.4549 
28.2334 3.81848 -22.9564 27.8964 3.28661 -23.3137 30.3091 3.76077 -24.0329 
29.9852 3.35461 -24.5593 28.2493 4.06838 -24.5522 27.9255 3.55681 -24.1606 
29.4057 3.96997 -25.4487 29.6741 3.30251 -25.563 28.932 3.61271 -25.5623 
28.3245 3.34242 -24.9636 29.258 3.39458 -26.0674 34.272 2.8575 -18.4391 
34.3838 2.21328 -18.1909 34.7183 2.73895 -18.5356 33.7937 2.55923 -18.4661 
36.2864 2.92598 -19.4059 36.1774 2.49177 -19.2913 36.5151 2.49324 -19.5112 
35.3865 2.64267 -18.9224 33.1752 2.92604 -19.5811 33.5067 2.78536 -19.0533 
32.8767 2.13003 -19.3433 36.1775 2.77903 -19.7291 35.5911 2.49598 -20.2368 
35.0103 2.56895 -20.7919 32.3716 2.5542 -19.9147 31.4375 2.90648 -20.81 
31.5297 2.68732 -20.2341 30.8404 2.10759 -20.5216 34.4126 2.31317 -21.1895 
34.142 2.89877 -21.6883 33.7544 2.31496 -21.5172 32.8361 2.80877 -21.5791 
32.424 2.31029 -21.2451 31.93 2.52085 -21.5342 30.3355 2.50886 -20.878 
29.3027 2.93596 -21.4997 29.5704 2.641 -21.2055 28.9093 2.2622 -21.5817 
33.5265 2.7471 -21.8438 32.2366 3.06718 -22.6383 32.015 2.74649 -22.2538 
28.209 3.0709 -22.701 28.5004 2.63817 -22.1658 27.9905 2.37594 -22.6605 
31.6596 2.61639 -23.033 30.9894 2.37124 -23.6197 27.686 2.42437 -23.4478 
30.4061 2.59824 -24.024 29.9688 2.49449 -24.6718 27.7421 2.41553 -24.5629 
29.8322 2.32817 -25.4044 28.6266 2.54817 -25.7455 28.2196 2.3959 -25.2344 
29.391 2.91638 -26.5339 29.6605 2.30077 -26.4125 29.0246 2.70788 -26.4019 
29.2936 2.25668 -26.8581 17.3888 1.71241 -17.5375 17.5597 1.55536 -17.2516 
17.5913 1.55934 -17.6884 17.0952 1.25608 -17.3715 36.1496 1.64006 -18.5757 
36.3869 1.23191 -18.2276 36.6018 1.21367 -18.6097 35.3417 2.13118 -18.5408 
35.3934 1.38536 -17.9925 34.1615 1.366 -17.9623 33.2277 2.10956 -18.6504 
33.3905 1.55661 -18.1663 32.7987 1.44251 -18.6642 17.2361 1.4278 -17.9506 
36.2228 2.1028 -19.7263 36.432 1.36778 -18.9246 36.0429 1.61435 -19.2654 
32.5683 1.44075 -19.3057 35.6721 1.38109 -20.2209 35.3872 1.97274 -20.5497 
32.3173 1.68754 -19.783 31.3644 1.45826 -20.0161 30.6142 1.3337 -20.5027 
35.0788 1.73661 -20.7712 34.4901 1.50011 -20.9112 33.5563 1.59187 -21.2382 
33.1385 2.21155 -21.474 32.2895 2.02606 -21.5966 32.8291 1.3935 -21.7875 
30.1507 1.5103 -20.8235 29.3266 1.56189 -21.1308 28.6218 1.297 -21.4516 
32.5774 1.2233 -22.5492 32.2155 1.98224 -22.2817 28.157 1.45096 -21.9079 
27.6408 1.53108 -22.5591 32.1031 1.58399 -23.0758 31.5207 1.87509 -23.5161 
31.7711 1.11674 -23.5699 27.3613 1.65651 -23.0777 27.3204 1.93593 -23.8342 
26.9693 1.44374 -23.4467 30.9744 1.50097 -23.879 30.3011 1.64529 -24.1897 
29.9668 1.47654 -24.6584 27.294 1.90166 -24.4507 26.802 1.32738 -24.4477 
29.7237 1.41003 -25.5069 28.3598 1.86861 -25.7379 27.8617 1.74407 -25.3624 
27.302 1.52938 -25.0337 29.618 1.46521 -26.4305 28.8839 1.59576 -26.3823 
28.0651 1.19866 -25.9341 29.4396 1.69477 -26.8431 17.2681 0.845273 -15.5474 
17.3467 0.286075 -15.1365 17.8664 0.506227 -15.5566 16.208 0.829608 -15.729 
16.3942 0.383505 -15.1479 15.2065 0.736046 -15.7736 15.426 0.569447 -15.2951 
14.9997 0.429595 -15.7329 18.1041 0.852198 -16.2424 18.3793 0.169829 -16.021 
18.6153 0.486457 -16.7246 17.3747 1.15712 -16.4958 16.6351 0.452835 -16.3181 
15.978 0.50024 -16.1833 15.5194 0.483846 -16.6044 15.4661 0.707473 -16.3377 
15.0254 0.544622 -16.3053 35.1873 0.785432 -17.5849 35.4966 0.201079 -17.2482 
35.9354 0.374457 -17.8206 34.7315 0.40453 -17.4361 18.1005 1.11118 -17.3697 
18.7431 0.421778 -17.5739 16.63 0.560484 -17.3905 15.2372 0.489754 -16.68 
36.2469 0.751011 -18.0714 36.5922 0.741099 -18.425 34.465 0.809848 -17.7658 
33.4027 0.515358 -17.8893 32.1399 0.878095 -18.8672 32.4482 0.521364 -18.1762 
31.7005 0.28333 -18.4423 18.3811 0.950758 -18.656 19.009 0.471827 -18.4981 
17.291 1.08423 -18.5575 16.653 0.478062 -18.5474 36.4302 0.798819 -18.9587 
35.9044 0.276869 -19.5202 32.0779 1.20075 -19.5572 31.4436 0.506987 -18.9408 
31.5743 0.877085 -19.4011 30.9513 0.524322 -19.4647 19.1067 0.784841 -19.3166 
19.4031 0.35501 -18.979 19.5714 0.256185 -19.5344 18.5108 0.922113 -19.5794 
17.5769 0.913256 -19.4582 16.4034 0.616455 -19.2018 16.5512 0.746682 -19.5041 
16.1134 0.512863 -19.6026 35.3625 0.509431 -20.191 34.9982 1.03055 -20.5724 
34.6934 0.334001 -20.1513 34.238 0.910718 -20.7501 34.0533 0.249415 -20.3325 
30.1499 0.84994 -20.6548 30.3227 0.430514 -20.0727 29.7426 0.24834 -20.5125 
20.3323 0.643385 -20.5366 20.2724 0.318479 -20.3444 20.5461 0.505791 -20.5189 
19.013 0.557583 -19.9901 19.9158 0.266185 -20.688 18.0343 0.569549 -20.1245 
16.9322 0.409142 -20.0363 16.2777 0.492818 -19.8007 33.6478 0.441722 -21.1926 
33.3475 0.988251 -21.5404 29.5167 0.694845 -20.8602 28.3004 0.87709 -21.5016 
28.6401 0.580144 -21.099 27.9408 0.497235 -21.4332 20.4877 0.298149 -20.9453 
33.1547 0.362239 -21.8194 32.7385 0.505067 -22.3572 26.9546 1.05956 -22.6946 
27.4161 0.730184 -21.9741 26.2825 0.748869 -22.7775 26.6234 0.495014 -22.0678 
26.0169 0.243207 -22.3055 32.2306 0.484083 -22.9721 31.7138 0.339569 -23.5272 
26.3989 1.00058 -23.6407 25.931 0.365751 -23.2314 31.1885 0.485565 -23.8695 
30.3083 0.575438 -24.1291 29.6948 0.54167 -24.5707 26.2911 0.930146 -24.4369 
25.8734 0.348219 -24.2084 29.4185 0.619494 -25.0953 29.2614 0.962447 -25.9277 
28.9124 0.124099 -25.3759 27.452 1.06367 -25.6483 26.7847 0.520042 -25.5911 
26.1917 0.593762 -24.9399 29.3746 1.26858 -26.5765 28.4588 0.632716 -26.0126 
27.5518 0.35544 -26.115 17.3257 -0.537837 -15.1404 17.9501 -0.180503 -15.4302 
16.2758 0.0445377 -15.6188 16.7494 -0.707421 -15.5524 15.4736 0.244706 -15.4482 
18.3968 -0.417722 -15.8686 18.8231 -0.379578 -16.6201 16.3918 -0.416278 -16.1508 
16.2766 -0.03493 -16.8691 16.0101 -0.740299 -16.5048 15.3747 0.28581 -16.219 
36.2392 -0.0411205 -17.4517 36.271 -0.448186 -17.0189 36.6444 -0.77555 -17.4344 
35.5442 -0.434247 -16.8567 33.9758 0.0912218 -17.5241 34.6011 -0.295143 -17.0226 
33.2042 -0.224654 -17.6193 33.3962 -0.724077 -17.0442 32.7213 -0.726054 -17.4671 
19.0638 -0.236258 -17.7319 16.2504 0.0429211 -17.8634 15.8948 -0.638858 -17.3119 
36.2831 0.253561 -18.5463 36.3362 -0.395351 -17.8741 36.0725 -0.510814 -18.5845 
32.5103 -0.291898 -17.8202 30.9593 0.00618874 -18.6784 31.5701 -0.370399 -17.988 
30.3045 -0.302134 -18.74 30.6179 -0.547558 -18.0806 29.9902 -0.622277 -18.4242 
19.2805 -0.0650356 -18.4151 19.3981 -0.671481 -17.9743 19.6517 -0.459554 -18.6989 
16.2855 -0.0667881 -18.5275 16.0411 -0.542736 -18.2721 35.6676 -0.799502 -19.3149 
34.2723 -0.0719087 -19.6725 34.6928 -0.410643 -19.4639 34.0913 -0.717365 -19.057 
33.8176 -0.474997 -19.645 30.4241 0.0216279 -19.3124 29.822 -0.434767 -19.2988 
19.9127 -0.48953 -19.4828 16.4133 0.189318 -19.6517 16.6269 -0.570216 -19.3945 
16.3984 -0.502824 -18.8318 35.285 -0.225811 -19.8163 33.6556 -0.361934 -20.4577 
29.0144 -0.0284313 -20.5586 29.4445 -0.331045 -20.0572 28.0171 -0.080328 -20.717 
28.5661 -0.565383 -20.0485 27.0755 -0.207062 -20.7833 27.4297 -0.708625 -20.0379 
26.7399 -0.639744 -20.4498 20.2111 -0.290378 -20.0234 20.8023 -0.173807 -20.5095 
19.5807 0.0664897 -20.2299 18.4088 0.0416546 -20.6768 17.3841 0.00819095 -20.728 
16.7838 -0.516289 -20.3214 33.2603 -0.625465 -21.034 33.3631 -0.0593217 -21.5481 
32.8862 -0.546156 -21.5791 27.238 0.18047 -21.3798 26.2573 -0.625909 -20.9003 
26.445 0.0123392 -21.4929 25.827 -0.470656 -21.6319 21.1438 -0.183071 -21.3428 
21.4539 -0.616622 -20.9424 21.6082 -0.849446 -21.687 20.6103 -0.142065 -21.5853 
19.9046 -0.224525 -21.3404 19.074 -0.348468 -21.0244 18.1699 -0.435085 -21.2243 
17.7069 -0.722583 -21.7694 17.5021 -0.30421 -21.3366 16.9327 -0.653083 -21.2628 
32.5854 -0.297089 -22.0975 32.423 -0.0484899 -22.5294 32.0254 -0.4723 -22.4843 
[...]
CELL_DATA 6660
SCALARS scalars float
LOOKUP_TABLE default
2016 2016 2016 2016 2016 2016 2016 2016 2016 
2016 2016 2016 2016 2016 2016 2016 2016 2016 
2016 2016 2016 2016 2016 2016 2016 2016 2016 
2016 2016 2016 2016 2016 2016 2016 2016 2016 
2016 2016 2016 2016 2016 2016 2016 2016 2016 
2016 2016 2016 2016 2016 2016 2016 2016 2016 
2016 2016 2016 2016 2016 2016 2016 2016 2016 
2016 2016 2016 2016 2016 2016 2016 2016 2016 
2016 2016 2016 2016 2016 2016 2016 2016 2016 
2016 2016 2016 2016 2016 2016 2016 2016 2016 
2016 2016 2016 2016 2016 2016 2016 2016 2016 
2016 2016 2016 2016 2016 2016 2016 2016 2016 
2016 2016 2016 2016 2016 2016 2016 2016 2016 
2016 2016 2016 2016 2016 2016 2016 2016 2016 
2016 2016 2016 2016 2016 2016 2016 2016 2016 
2016 2016 2016 2016 2016 2016 2016 2016 2016 
2016 2016 2016 2016 2016 2016 2016 2016 2016 
2016 2016 2016 2016 2016 2016 2016 2016 2016 
2016 2016 2016 2016 2016 2016 2016 2016 2016 
2016 2016 2016 2016 2016 2016 2016 2016 2016 
2016 2016 2016 2016 2016 2016 2016 2016 2016 
2016 2016 2016 2016 2016 2016 2016 2016 2016 
2016 2016 2016 2016 2016 2016 2016 2016 2016 
2016 2016 2016 2016 2016 2016 2016 2016 2016 
2016 2016 2016 2016 2016 2016 2016 2016 2016 
2016 2016 2016 2016 2016 2016 2016 2016 2016 
2016 2016 2016 2016 2016 2016 2016 2016 2016 
2016 2016 2016 2016 2016 2016 2016 2016 2016 
2016 2016 2016 2016 2016 2016 2016 2016 2016 
2016 2016 2016 2016 2016 2016 2016 2016 2016 
2016 2016 2016 2016 2016 2016 2016 2016 2016 
2016 2016 2016 2016 2016 2016 2016 2016 2016 
2016 2016 2016 2016 2016 2016 2016 2016 2016 
2016 2016 2016 2016 2016 2016 2016 2016 2016 
2016 2016 2016 2016 2016 2016 2016 2016 2016 
2016 2016 2016 2016 2016 2016 2016 2016 2016 
2016 2016 2016 2016 2016 2016 2016 2016 2016 
2016 2016 2016 2016 2016 2016 2016 2016 2016 
2016 2016 2016 2016 2016 2016 2016 2016 2016 
2016 2016 2016 2016 2016 2016 2016 2016 2016 
2016 2016 2016 2016 2016 2016 2016 2016 2016 
2016 2016 2016 2016 2016 2016 2016 2016 2016 
2016 2016 2016 2016 2016 2016 2016 2016 2016 
2016 2016 2016 2016 2016 2016 2016 2016 2016 
2016 2016 2016 2016 2016 2016 2016 2016 2016 
2016 2016 2016 2016 2016 2016 2016 2016 2016 
2016 2016 2016 2016 2016 2016 2016 2016 2016 
2016 2016 2016 2016 2016 2016 2016 2016 2016 
2016 2016 2016 2016 2016 2016 2016 2016 2016 
2016 2016 2016 2016 2016 2016 2016 2016 2016 
2016 2016 2016 2016 2016 2016 2016 2016 2016 
2016 2016 2016 2016 2016 2016 2016 2016 2016 
2016 2016 2016 2016 2016 2016 2016 2016 2016 
2016 2016 2016 2016 2016 2016 2016 2016 2016 
2016 2016 2016 2016 2016 2016 2016 2016 2016 
2016 2016 2016 2016 2016 2016 2016 2016 2016 
2016 2016 2016 2016 2016 2016 2016 2016 2016 
2016 2016 2016 2016 2016 2016 2016 2016 2016 
2016 2016 2016 2016 2016 2016 2016 2016 2016 
2016 2016 2016 2016 2016 2016 2016 2016 2016 
2016 2016 2016 2016 2016 2016 2016 2016 2016 
2016 2016 2016 2016 2016 2016 2016 2016 2016 
2016 2016 2016 2016 2016 2016 2016 2016 2016 
2016 2016 2016 2016 2016 2016 2016 2016 2016 
2016 2016 2016 2016 2016 2016 2016 2016 2016 
2016 2016 2016 2016 2016 2016 2016 2016 2016 
2016 2016 2016 2016 2016 2016 2016 2016 2016 
2016 2016 2016 2016 2016 2016 2016 2016 2016 
2016 2016 2016 2016 2016 2016 2016 2016 2016 
2016 2016 2016 2016 2016 2016 2016 2016 2016 
2016 2016 2016 2016 2016 2016 2016 2016 2016 
2016 2016 2016 2016 2016 2016 2016 2016 2016 
2016 2016 2016 2016 2016 2016 2016 2016 2016 
2016 2016 2016 2016 2016 2016 2016 2016 2016 
2016 2016 2016 2016 2016 2016 2016 2016 2016 
2016 2016 2016 2016 2016 2016 2016 2016 2016 
2016 2016 2016 2016 2016 2016 2016 2016 2016 
2016 2016 2016 2016 2016 2016 2016 2016 2016 
2016 2016 2016 2016 2016 2016 2016 2016 2016 
2016 2016 2016 2016 2016 2016 2016 2016 2016 
2016 2016 2016 2016 2016 2016 2016 2016 2016 
2016 2016 2016 2016 2016 2016 2016 2016 2016 
2016 2016 2016 2016 2016 2016 2016 2016 2016 
2016 2016 2016 2016 2016 2016 2016 2016 2016 
2016 2016 2016 2016 2016 2016 2016 2016 2016 
2016 2016 2016 2016 2016 2016 2016 2016 2016 
2016 2016 2016 2016 2016 2016 2016 2016 2016 
2016 2016 2016 2016 2016 2016 2016 2016 2016 
2016 2016 2016 2016 2016 2016 2016 2016 2016 
2016 2016 2016 2016 2016 2016 2016 2016 2016 
2016 2016 2016 2016 2016 2016 2016 2016 2016 
2016 2016 2016 2016 2016 2016 2016 2016 2016 
2016 2016 2016 2016 2016 2016 2016 2016 2016 
2016 2016 2016 2016 2016 2016 2016 2016 2016 
2016 2016 2016 2016 2016 2016 2016 2016 2016 
2016 2016 2016 2016 2016 2016 2016 2016 2016 
2016 2016 2016 2016 2016 2016 2016 2016 2016 
2016 2016 2016 2016 2016 2016 2016 2016 2016 
2016 2016 2016 2016 2016 2016 2016 2016 2016 
2016 2016 2016 2016 2016 2016 2016 2016 2016 
2016 2016 2016 2016 2016 2016 2016 2016 2016 
2016 2016 2016 2016 2016 2016 2016 2016 2016 
2016 2016 2016 2016 2016 2016 2016 2016 2016 
2016 2016 2016 2016 2016 2016 2016 2016 2016 
2016 2016 2016 2016 2016 2016 2016 2016 2016 
2016 2016 2016 2016 2016 2016 2016 2016 2016 
2016 2016 2016 2016 2016 2016 2016 2016 2016 
2016 2016 2016 2016 2016 2016 2016 2016 2016 
2016 2016 2016 2016 2016 2016 2016 2016 2016 
2016 2016 2016 2016 2016 2016 2016 2016 2016 
2016 2016 2016 2016 2016 2016 2016 2016 2016 
2016 2016 2016 2016 2016 2016 2016 2016 2016 
2016 2016 2016 2016 2016 2016 2016 2016 2016 
2016 2016 2016 2016 2016 2016 2016 2016 2016 
2016 2016 2016 2016 2016 2016 2016 2016 2016 
2016 2016 2016 2016 2016 2016 2016 2016 2016 
2016 2016 2016 2016 2016 2016 2016 2016 2016 
2016 2016 2016 2016 2016 2016 2016 2016 2016 
2016 2016 2016 2016 2016 2016 2016 2016 2016 
2016 2016 2016 2016 2016 2016 2016 2016 2016 
2016 2016 2016 2016 2016 2016 2016 2016 2016 
2016 2016 2016 2016 2016 2016 2016 2016 2016 
2016 2016 2016 2016 2016 2016 2016 2016 2016 
2016 2016 2016 2016 2016 2016 2016 2016 2016 
2016 2016 2016 2016 2016 2016 2016 2016 2016 
2016 2016 2016 2016 2016 2016 2016 2016 2016 
2016 2016 2016 2016 2016 2016 2016 2016 2016 
2016 2016 2016 2016 2016 2016 2016 2016 2016 
2016 2016 2016 2016 2016 2016 2016 2016 2016 
2016 2016 2016 2016 2016 2016 2016 2016 2016 
2016 2016 2016 2016 2016 2016 2016 2016 2016 
2016 2016 2016 2016 2016 2016 2016 2016 2016 
2016 2016 2016 2016 2016 2016 2016 2016 2016 
2016 2016 2016 2016 2016 2016 2016 2016 2016 
2016 2016 2016 2016 2016 2016 2016 2016 2016 
2016 2016 2016 2016 2016 2016 2016 2016 2016 
2016 2016 2016 2016 2016 2016 2016 2016 2016 
2016 2016 2016 2016 2016 2016 2016 2016 2016 
2016 2016 2016 2016 2016 2016 2016 2016 2016 
2016 2016 2016 2016 2016 2016 2016 2016 2016 
2016 2016 2016 2016 2016 2016 2016 2016 2016 
2016 2016 2016 2016 2016 2016 2016 2016 2016 
2016 2016 2016 2016 2016 2016 2016 2016 2016 
2016 2016 2016 2016 2016 2016 2016 2016 2016 
2016 2016 2016 2016 2016 2016 2016 2016 2016 
2016 2016 2016 2016 2016 2016 2016 2016 2016 
2016 2016 2016 2016 2016 2016 2016 2016 2016 
2016 2016 2016 2016 2016 2016 2016 2016 2016 
2016 2016 2016 2016 2016 2016 2016 2016 2016 
2016 2016 2016 2016 2016 2016 2016 2016 2016 
2016 2016 2016 2016 2016 2016 2016 2016 2016 
2016 2016 2016 2016 2016 2016 2016 2016 2016 
2016 2016 2016 2016 2016 2016 2016 2016 2016 
2016 2016 2016 2016 2016 2016 2016 2016 2016 
2016 2016 2016 2016 2016 2016 2016 2016 2016 
2016 2016 2016 2016 2016 2016 2016 2016 2016 
2016 2016 2016 2016 2016 2016 2016 2016 2016 
2016 2016 2016 2016 2016 2016 2016 2016 2016 
2016 2016 2016 2016 2016 2016 2016 2016 2016 
2016 2016 2016 2016 2016 2016 2016 2016 2016 
2016 2016 2016 2016 2016 2016 2016 2016 2016 
2016 2016 2016 2016 2016 2016 2016 2016 2016 
2016 2016 2016 2016 2016 2016 2016 2016 2016 
2016 2016 2016 2016 2016 2016 2016 2016 2016 
2016 2016 2016 2016 2016 2016 2016 2016 2016 
2016 2016 2016 2016 2016 2016 2016 2016 2016 
2016 2016 2016 2016 2016 2016 2016 2016 2016 
2016 2016 2016 2016 2016 2016 2016 2016 2016 
2016 2016 2016 2016 2016 2016 2016 2016 2016 
2016 2016 2016 2016 2016 2016 2016 2016 2016 
2016 2016 2016 2016 2016 2016 2016 2016 2016 
2016 2016 2016 2016 2016 2016 2016 2016 2016 
2016 2016 2016 2016 2016 2016 2016 2016 2016 
2016 2016 2016 2016 2016 2016 2016 2016 2016 
2016 2016 2016 2016 2016 2016 2016 2016 2016 
2016 2016 2016 2016 2016 2016 2016 2016 2016 
2016 2016 2016 2016 2016 2016 2016 2016 2016 
2016 2016 2016 2016 2016 2016 2016 2016 2016 
2016 2016 2016 2016 2016 2016 2016 2016 2016 
2016 2016 2016 2016 2016 2016 2016 2016 2016 
2016 2016 2016 2016 2016 2016 2016 2016 2016 
2016 2016 2016 2016 2016 2016 2016 2016 2016 
2016 2016 2016 2016 2016 2016 2016 2016 2016 
2016 2016 2016 2016 2016 2016 2016 2016 2016 
2016 2016 2016 2016 2016 2016 2016 2016 2016 
2016 2016 2016 2016 2016 2016 2016 2016 2016 
2016 2016 2016 2016 2016 2016 2016 2016 2016 
2016 2016 2016 2016 2016 2016 2016 2016 2016 
2016 2016 2016 2016 2016 2016 2016 2016 2016 
2016 2016 2016 2016 2016 2016 2016 2016 2016 
2016 2016 2016 2016 2016 2016 2016 2016 2016 
2016 2016 2016 2016 2016 2016 2016 2016 2016 
2016 2016 2016 2016 2016 2016 2016 2016 2016 
2016 2016 2016 2016 2016 2016 2016 2016 2016 
2016 2016 2016 2016 2016 2016 2016 2016 2016 
2016 2016 2016 2016 2016 2016 2016 2016 2016 
2016 2016 2016 2016 2016 2016 2016 2016 2016 
2016 2016 2016 2016 2016 2016 2016 2016 2016 
2016 2016 2016 2016 2016 2016 2016 2016 2016 
2016 2016 2016 2016 2016 2016 2016 2016 2016 
2016 2016 2016 2016 2016 2016 2016 2016 2016 
2016 2016 2016 2016 2016 2016 2016 2016 2016 
2016 2016 2016 2016 2016 2016 2016 2016 2016 
2016 2016 2016 2016 2016 2016 2016 2016 2016 
2016 2016 2016 2016 2016 2016 2016 2016 2016 
2016 2016 2016 2016 2016 2016 2016 2016 2016 
2016 2016 2016 2016 2016 2016 2016 2016 2016 
2016 2016 2016 2016 2016 2016 2016 2016 2016 
2016 2016 2016 2016 2016 2016 2016 2016 2016 
2016 2016 2016 2016 2016 2016 2016 2016 2016 
2016 2016 2016 2016 2016 2016 2016 2016 2016 
2016 2016 2016 2016 2016 2016 2016 2016 2016 
2016 2016 2016 2016 2016 2016 2016 2016 2016 
2016 2016 2016 2016 2016 2016 2016 2016 2016 
2016 2016 2016 2016 2016 2016 2016 2016 2016 
2016 2016 2016 2016 2016 2016 2016 2016 2016 
2016 2016 2016 2016 2016 2016 2016 2016 2016 
2016 2016 2016 2016 2016 2016 2016 2016 2016 
2016 2016 2016 2016 2016 2016 2016 2016 2016 
2016 2016 2016 2016 2016 2016 2016 2016 2016 
2016 2016 2016 2016 2016 2016 2016 2016 2016 
2016 2016 2016 2016 2016 2016 2016 2016 2016 
2016 2016 2016 2016 2016 2016 2016 2016 2016 
2016 2016 2016 2016 2016 2016 2016 2016 2016 
2016 2016 2016 2016 2016 2016 2016 2016 2016 
2016 2016 2016 2016 2016 2016 2016 2016 2016 
2016 2016 2016 2016 2016 2016 2016 2016 2016 
2016 2016 2016 2016 2016 2016 2016 2016 2016 
2016 2016 2016 2016 2016 2016 2016 2016 2016 
2016 2016 2016 2016 2016 2016 2016 2016 2016 
2016 2016 2016 2016 2016 2016 2016 2016 2016 
2016 2016 2016 2016 2016 2016 2016 2016 2016 
2016 2016 2016 2016 2016 2016 2016 2016 2016 
2016 2016 2016 2016 2016 2016 2016 2016 2016 
2016 2016 2016 2016 2016 2016 2016 2016 2016 
2016 2016 2016 2016 2016 2016 2016 2016 2016 
2016 2016 2016 2016 2016 2016 2016 2016 2016 
2016 2016 2016 2016 2016 2016 2016 2016 2016 
2016 2016 2016 2016 2016 2016 2016 2016 2016 
2016 2016 2016 2016 2016 2016 2016 2016 2016 
2016 2016 2016 2016 2016 2016 2016 2016 2016 
2016 2016 2016 2016 2016 2016 2016 2016 2016 
2016 2016 2016 2016 2016 2016 2016 2016 2016 
2016 2016 2016 2016 2016 2016 2016 2016 2016 
2016 2016 2016 2016 2016 2016 2016 2016 2016 
2016 2016 2016 2016 2016 2016 2016 2016 2016 
2016 2016 2016 2016 2016 2016 2016 2016 2016 
2016 2016 2016 2016 2016 2016 2016 2016 2016 
2016 2016 2016 2016 2016 2016 2016 2016 2016 
2016 2016 2016 2016 2016 2016 2016 2016 2016 
2016 2016 2016 2016 2016 2016 2016 2016 2016 
2016 2016 2016 2016 2016 2016 2016 2016 2016 
2016 2016 2016 2016 2016 2016 2016 2016 2016 
2016 2016 2016 2016 2016 2016 2016 2016 2016 
2016 2016 2016 2016 2016 2016 2016 2016 2016 
2016 2016 2016 2016 2016 2016 2016 2016 2016 
2016 2016 2016 2016 2016 2016 2016 2016 2016 
2016 2016 2016 2016 2016 2016 2016 2016 2016 
2016 2016 2016 2016 2016 2016 2016 2016 2016 
2016 2016 2016 2016 2016 2016 2016 2016 2016 
2016 2016 2016 2016 2016 2016 2016 2016 2016 
2016 2016 2016 2016 2016 2016 2016 2016 2016 
2016 2016 2016 2016 2016 2016 2016 2016 2016 
2016 2016 2016 2016 2016 2016 2016 2016 2016 
2016 2016 2016 2016 2016 2016 2016 2016 2016 
2016 2016 2016 2016 2016 2016 2016 2016 2016 
2016 2016 2016 2016 2016 2016 2016 2016 2016 
2016 2016 2016 2016 2016 2016 2016 2016 2016 
2016 2016 2016 2016 2016 2016 2016 2016 2016 
2016 2016 2016 2016 2016 2016 2016 2016 2016 
2016 2016 2016 2016 2016 2016 2016 2016 2016 
2016 2016 2016 2016 2016 2016 2016 2016 2016 
2016 2016 2016 2016 2016 2016 2016 2016 2016 
2016 2016 2016 2016 2016 2016 2016 2016 2016 
2016 2016 2016 2016 2016 2016 2016 2016 2016 
2016 2016 2016 2016 2016 2016 2016 2016 2016 
2016 2016 2016 2016 2016 2016 2016 2016 2016 
2016 2016 2016 2016 2016 2016 2016 2016 2016 
2016 2016 2016 2016 2016 2016 2016 2016 2016 
2016 2016 2016 2016 2016 2016 2016 2016 2016 
2016 2016 2016 2016 2016 2016 2016 2016 2016 
2016 2016 2016 2016 2016 2016 2016 2016 2016 
2016 2016 2016 2016 2016 2016 2016 2016 2016 
2016 2016 2016 2016 2016 2016 2016 2016 2016 
2016 2016 2016 2016 2016 2016 2016 2016 2016 
2016 2016 2016 2016 2016 2016 2016 2016 2016 
2016 2016 2016 2016 2016 2016 2016 2016 2016 
2016 2016 2016 2016 2016 2016 2016 2016 2016 
2016 2016 2016 2016 2016 2016 2016 2016 2016 
2016 2016 2016 2016 2016 2016 2016 2016 2016 
2016 2016 2016 2016 2016 2016 2016 2016 2016 
2016 2016 2016 2016 2016 2016 2016 2016 2016 
2016 2016 2016 2016 2016 2016 2016 2016 2016 
2016 2016 2016 2016 2016 2016 2016 2016 2016 
2016 2016 2016 2016 2016 2016 2016 2016 2016 
2016 2016 2016 2016 2016 2016 2016 2016 2016 
2016 2016 2016 2016 2016 2016 2016 2016 2016 
2016 2016 2016 2016 2016 2016 2016 2016 2016 
2016 2016 2016 2016 2016 2016 2016 2016 2016 
2016 2016 2016 2016 2016 2016 2016 2016 2016 
2016 2016 2016 2016 2016 2016 2016 2016 2016 
2016 2016 2016 2016 2016 2016 2016 2016 2016 
2016 2016 2016 2016 2016 2016 2016 2016 2016 
2016 2016 2016 2016 2016 2016 2016 2016 2016 
2016 2016 2016 2016 2016 2016 2016 2016 2016 
2016 2016 2016 2016 2016 2016 2016 2016 2016 
2016 2016 2016 2016 2016 2016 2016 2016 2016 
2016 2016 2016 2016 2016 2016 2016 2016 2016 
2016 2016 2016 2016 2016 2016 2016 2016 2016 
2016 2016 2016 2016 2016 2016 2016 2016 2016 
2016 2016 2016 2016 2016 2016 2016 2016 2016 
2016 2016 2016 2016 2016 2016 2016 2016 2016 
2016 2016 2016 2016 2016 2016 2016 2016 2016 
2016 2016 2016 2016 2016 2016 2016 2016 2016 
2016 2016 2016 2016 2016 2016 2016 2016 2016 
2016 2016 2016 2016 2016 2016 2016 2016 2016 
2016 2016 2016 2016 2016 2016 2016 2016 2016 
2016 2016 2016 2016 2016 2016 2016 2016 2016 
2016 2016 2016 2016 2016 2016 2016 2016 2016 
2016 2016 2016 2016 2016 2016 2016 2016 2016 
2016 2016 2016 2016 2016 2016 2016 2016 2016 
2016 2016 2016 2016 2016 2016 2016 2016 2016 
2016 2016 2016 2016 2016 2016 2016 2016 2016 
2016 2016 2016 2016 2016 2016 2016 2016 2016 
2016 2016 2016 2016 2016 2016 2016 2016 2016 
2016 2016 2016 2016 2016 2016 2016 2016 2016 
2016 2016 2016 2016 2016 2016 2016 2016 2016 
2016 2016 2016 2016 2016 2016 2016 2016 2016 
2016 2016 2016 2016 2016 2016 2016 2016 2016 
2016 2016 2016 2016 2016 2016 2016 2016 2016 
2016 2016 2016 2016 2016 2016 2016 2016 2016 
2016 2016 2016 2016 2016 2016 2016 2016 2016 
2016 2016 2016 2016 2016 2016 2016 2016 2016 
2016 2016 2016 2016 2016 2016 2016 2016 2016 
2016 2016 2016 2016 2016 2016 2016 2016 2016 
2016 2016 2016 2016 2016 2016 2016 2016 2016 
2016 2016 2016 2016 2016 2016 2016 2016 2016 
2016 2016 2016 2016 2016 2016 2016 2016 2016 
2016 2016 2016 2016 2016 2016 2016 2016 2016 
2016 2016 2016 2016 2016 2016 2016 2016 2016 
2016 2016 2016 2016 2016 2016 2016 2016 2016 
2016 2016 2016 2016 2016 2016 2016 2016 2016 
2016 2016 2016 2016 2016 2016 2016 2016 2016 
2016 2016 2016 2016 2016 2016 2016 2016 2016 
2016 2016 2016 2016 2016 2016 2016 2016 2016 
2016 2016 2016 2016 2016 2016 2016 2016 2016 
2016 2016 2016 2016 2016 2016 2016 2016 2016 
2016 2016 2016 2016 2016 2016 2016 2016 2016 
2016 2016 2016 2016 2016 2016 2016 2016 2016 
2016 2016 2016 2016 2016 2016 2016 2016 2016 
2016 2016 2016 2016 2016 2016 2016 2016 2016 
2016 2016 2016 2016 2016 2016 2016 2016 2016 
2016 2016 2016 2016 2016 2016 2016 2016 2016 
2016 2016 2016 2016 2016 2016 2016 2016 2016 
2016 2016 2016 2016 2016 2016 2016 2016 2016 
2016 2016 2016 2016 2016 2016 2016 2016 2016 
2016 2016 2016 2016 2016 2016 2016 2016 2016 
2016 2016 2016 2016 2016 2016 2016 2016 2016 
2016 2016 2016 2016 2016 2016 2016 2016 2016 
2016 2016 2016 2016 2016 2016 2016 2016 2016 
2016 2016 2016 2016 2016 2016 2016 2016 2016 
2016 2016 2016 2016 2016 2016 2016 2016 2016 
2016 2016 2016 2016 2016 2016 2016 2016 2016 
2016 2016 2016 2016 2016 2016 2016 2016 2016 
2016 2016 2016 2016 2016 2016 2016 2016 2016 
2016 2016 2016 2016 2016 2016 2016 2016 2016 
2016 2016 2016 2016 2016 2016 2016 2016 2016 
2016 2016 2016 2016 2016 2016 2016 2016 2016 
2016 2016 2016 2016 2016 2016 2016 2016 2016 
2016 2016 2016 2016 2016 2016 2016 2016 2016 
2016 2016 2016 2016 2016 2016 2016 2016 2016 
2016 2016 2016 2016 2016 2016 2016 2016 2016 
2016 2016 2016 2016 2016 2016 2016 2016 2016 
2016 2016 2016 2016 2016 2016 2016 2016 2016 
2016 2016 2016 2016 2016 2016 2016 2016 2016 
2016 2016 2016 2016 2016 2016 2016 2016 2016 
2016 2016 2016 2016 2016 2016 2016 2016 2016 
2016 2016 2016 2016 2016 2016 2016 2016 2016 
2016 2016 2016 2016 2016 2016 2016 2016 2016 
2016 2016 2016 2016 2016 2016 2016 2016 2016 
2016 2016 2016 2016 2016 2016 2016 2016 2016 
2016 2016 2016 2016 2016 2016 2016 2016 2016 
2016 2016 2016 2016 2016 2016 2016 2016 2016 
2016 2016 2016 2016 2016 2016 2016 2016 2016 
2016 2016 2016 2016 2016 2016 2016 2016 2016 
2016 2016 2016 2016 2016 2016 2016 2016 2016 
2016 2016 2016 2016 2016 2016 2016 2016 2016 
2016 2016 2016 2016 2016 2016 2016 2016 2016 
2016 2016 2016 2016 2016 2016 2016 2016 2016 
2016 2016 2016 2016 2016 2016 2016 2016 2016 
2016 2016 2016 2016 2016 2016 2016 2016 2016 
2016 2016 2016 2016 2016 2016 2016 2016 2016 
2016 2016 2016 2016 2016 2016 2016 2016 2016 
2016 2016 2016 2016 2016 2016 2016 2016 2016 
2016 2016 2016 2016 2016 2016 2016 2016 2016 
2016 2016 2016 2016 2016 2016 2016 2016 2016 
2016 2016 2016 2016 2016 2016 2016 2016 2016 
2016 2016 2016 2016 2016 2016 2016 2016 2016 
2016 2016 2016 2016 2016 2016 2016 2016 2016 
2016 2016 2016 2016 2016 2016 2016 2016 2016 
2016 2016 2016 2016 2016 2016 2016 2016 2016 
2016 2016 2016 2016 2016 2016 2016 2016 2016 
2016 2016 2016 2016 2016 2016 2016 2016 2016 
2016 2016 2016 2016 2016 2016 2016 2016 2016 
2016 2016 2016 2016 2016 2016 2016 2016 2016 
2016 2016 2016 2016 2016 2016 2016 2016 2016 
2016 2016 2016 2016 2016 2016 2016 2016 2016 
2016 2016 2016 2016 2016 2016 2016 2016 2016 
2016 2016 2016 2016 2016 2016 2016 2016 2016 
2016 2016 2016 2016 2016 2016 2016 2016 2016 
2016 2016 2016 2016 2016 2016 2016 2016 2016 
2016 2016 2016 2016 2016 2016 2016 2016 2016 
2016 2016 2016 2016 2016 2016 2016 2016 2016 
2016 2016 2016 2016 2016 2016 2016 2016 2016 
2016 2016 2016 2016 2016 2016 2016 2016 2016 
2016 2016 2016 2016 2016 2016 2016 2016 2016 
2016 2016 2016 2016 2016 2016 2016 2016 2016 
2016 2016 2016 2016 2016 2016 2016 2016 2016 
2016 2016 2016 2016 2016 2016 2016 2016 2016 
2016 2016 2016 2016 2016 2016 2016 2016 2016 
2016 2016 2016 2016 2016 2016 2016 2016 2016 
2016 2016 2016 2016 2016 2016 2016 2016 2016 
2016 2016 2016 2016 2016 2016 2016 2016 2016 
2016 2016 2016 2016 2016 2016 2016 2016 2016 
2016 2016 2016 2016 2016 2016 2016 2016 2016 
2016 2016 2016 2016 2016 2016 2016 2016 2016 
2016 2016 2016 2016 2016 2016 2016 2016 2016 
2016 2016 2016 2016 2016 2016 2016 2016 2016 
2016 2016 2016 2016 2016 2016 2016 2016 2016 
2016 2016 2016 2016 2016 2016 2016 2016 2016 
2016 2016 2016 2016 2016 2016 2016 2016 2016 
2016 2016 2016 2016 2016 2016 2016 2016 2016 
2016 2016 2016 2016 2016 2016 2016 2016 2016 