# vtk DataFile Version 4.2
vtk output
ASCII
DATASET POLYDATA
POINTS 3870 float
-25.0408 -33.9602 31.1609 -25.0344 -33.5756 30.8477 -24.7164 -33.8934 30.8498 
-25.4541 -34.0573 31.1284 -25.4356 -33.6204 30.9742 -25.791 -33.8125 30.9342 
-24.5811 -34.3282 31.0971 -24.4053 -34.2489 30.7197 -24.2992 -34.5144 30.8892 
-24.9837 -34.4198 31.1693 -25.3322 -34.5067 30.8991 -25.7569 -34.18 30.7545 
-24.474 -34.7742 30.879 -25.0052 -34.7926 30.8782 -17.1858 -35.6589 31.093 
-17.1333 -35.585 30.8681 -17.0938 -35.7502 30.8766 -17.2856 -35.6196 30.8547 
-18.5712 -35.762 31.1991 -18.4511 -35.4949 30.7882 -18.2055 -35.8335 30.9758 
-19.1485 -35.785 31.2216 -18.9193 -35.4599 30.9938 -19.6222 -35.8414 31.1158 
-19.5444 -35.3841 30.7813 -19.9369 -35.6952 30.8401 -17.2461 -35.7848 30.8633 
-18.3504 -36.1526 31.1469 -18.1659 -36.2298 30.758 -18.8227 -36.2273 31.2077 
-19.4065 -36.2294 31.1434 -19.8908 -36.1055 30.9389 -20.8227 -36.2813 30.9942 
-20.7421 -36.14 30.9023 -20.6511 -36.2873 30.9571 -21.0468 -36.3233 30.7584 
-18.5522 -36.4947 30.8627 -19.1507 -36.5476 30.8476 -19.6709 -36.4566 30.8456 
-20.219 -36.7392 30.9554 -20.0941 -36.9957 30.7944 -20.2157 -36.912 31.0192 
-20.7942 -36.5128 30.8278 -20.4385 -36.946 30.7864 -20.2653 -37.1711 30.8601 
-25.8258 -32.1777 30.5283 -25.5602 -31.8646 30.3025 -25.3565 -32.267 30.3102 
-26.2243 -32.2324 30.5286 -26.0168 -31.8232 30.3648 -26.454 -32.0078 30.203 
-23.8504 -32.8465 30.4461 -23.8116 -32.5419 30.3501 -23.5726 -32.8178 30.309 
-24.0191 -32.6607 30.2917 -25.6657 -32.7591 30.5645 -25.2221 -32.7155 30.3232 
-26.1789 -32.7024 30.5766 -26.4682 -32.5572 30.2672 -23.7666 -33.1986 30.4241 
-23.5931 -33.3786 30.2602 -24.0817 -33.1193 30.3056 -25.2467 -33.175 30.5788 
-24.9368 -33.042 30.2223 -24.7716 -33.5071 30.3879 -25.773 -33.4048 30.7453 
-26.1845 -33.3172 30.5721 -26.4844 -33.1864 30.2649 -22.5846 -34.0787 30.4781 
-22.5265 -33.7389 30.3066 -22.2681 -33.9668 30.4176 -22.8309 -33.8473 30.2604 
-23.9141 -33.4903 30.2435 -24.5637 -33.9259 30.4159 -26.1147 -33.8287 30.6492 
-26.4512 -33.7607 30.2566 -21.6075 -34.5559 30.5161 -21.2814 -34.2987 30.1697 
-21.1473 -34.6636 30.3154 -22.1348 -34.374 30.5778 -21.8036 -34.1242 30.2518 
-22.4652 -34.6035 30.4957 -22.879 -34.2948 30.2848 -24.3159 -34.2132 30.2696 
-24.1101 -34.5737 30.5088 -25.4643 -34.5843 30.3986 -25.7914 -34.3348 30.2133 
-26.1846 -34.1119 30.2896 -19.6126 -35.0921 30.5024 -19.5647 -34.9765 30.1857 
-19.3932 -35.2074 30.2991 -19.873 -35.0201 30.2871 -21.4337 -35.1812 30.5653 
-21.0016 -35.1079 30.3477 -22.0182 -35.035 30.5608 -22.393 -35.0725 30.3418 
-22.7022 -34.7644 30.2459 -23.2679 -34.8717 30.262 -22.9895 -35.2406 30.2568 
-23.4104 -35.1661 30.4681 -23.917 -35.0237 30.5906 -23.6174 -34.7489 30.2927 
-24.3015 -35.2473 30.5992 -24.8376 -35.1101 30.5913 -25.2265 -35.0172 30.3933 
-17.2267 -35.5157 30.2704 -17.0133 -35.8307 30.32 -17.4997 -35.7627 30.2695 
-18.2805 -35.4397 30.2173 -18.0775 -35.8257 30.3562 -18.9347 -35.4091 30.3802 
-20.3171 -35.771 30.6259 -20.1471 -35.3836 30.4678 -20.9289 -35.7537 30.6267 
-20.6255 -35.3296 30.3015 -21.5154 -35.8107 30.6455 -22.0352 -35.7644 30.5535 
-22.3436 -35.5282 30.3086 -23.1318 -35.7249 30.5333 -22.8097 -35.7861 30.3557 
-23.6897 -35.6663 30.539 -24.1631 -35.6056 30.3897 -24.6292 -35.4598 30.328 
-25.0363 -35.3922 30.2296 -17.1965 -35.9945 30.4068 -18.1588 -36.3014 30.2213 
-20.292 -36.4358 30.7575 -21.3719 -36.1605 30.6317 -21.8647 -36.2416 30.5604 
-22.5123 -35.8978 30.3542 -22.5882 -36.1924 30.5164 -23.1735 -36.2514 30.5206 
-23.5829 -36.3483 30.2459 -23.8945 -35.9485 30.2957 -18.3728 -36.5299 30.4169 
-18.9383 -36.7079 30.3185 -19.5815 -36.67 30.4697 -19.8314 -36.9705 30.3682 
-20.7208 -36.8167 30.6384 -21.0003 -36.7851 30.4774 -21.4125 -36.5801 30.242 
-22.1296 -36.5359 30.3451 -22.6971 -36.6402 30.2887 -23.2062 -36.6455 30.274 
-20.1832 -37.4476 30.601 -19.9194 -37.4773 30.3304 -20.4447 -37.3755 30.377 
-20.7447 -37.0715 30.3364 -20.1594 -37.7028 30.1386 -23.9284 -31.0261 29.8862 
-23.7036 -30.7486 29.6188 -23.6236 -30.9758 29.7625 -24.0156 -30.8815 29.5435 
-25.6805 -31.0571 29.876 -25.6162 -30.7995 29.7294 -25.3728 -30.9749 29.7556 
-25.7829 -30.8529 29.7001 -28.0052 -30.8751 29.8083 -27.9285 -30.7386 29.7294 
-27.8472 -30.8715 29.7686 -28.2493 -30.9358 29.5823 -23.8774 -31.4607 29.9574 
-23.5782 -31.4471 29.671 -24.403 -31.1725 29.651 -24.4637 -31.4706 29.9461 
-25.1273 -31.3463 29.9356 -25.0213 -31.193 29.614 -25.6014 -31.535 30.1257 
-26.0854 -31.0901 29.5499 -26.313 -31.4731 30.0037 -26.9435 -31.4411 29.8906 
-26.7496 -31.3597 29.6103 -27.3084 -31.5359 29.8243 -27.2759 -31.3237 29.6889 
-27.9946 -31.0898 29.6323 -27.6798 -31.5263 29.5616 -23.8103 -32.2018 30.0599 
-23.4759 -32.0246 29.6363 -24.3914 -32.0753 30.0205 -25.0303 -31.8924 30.0892 
-26.8826 -31.6985 29.7914 -26.6557 -32.0513 29.6463 -27.3967 -31.7517 29.5651 
-22.6925 -32.8101 29.9223 -22.5421 -32.4408 29.5069 -22.1903 -32.7427 29.7537 
-23.2942 -32.5451 29.9963 -23.1263 -32.3533 29.6292 -24.3311 -32.7033 30.0939 
-24.8663 -32.593 30.0878 -26.4858 -32.7524 29.6811 -22.1238 -33.1555 29.907 
-21.8693 -32.9012 29.6217 -21.7727 -33.2853 29.6126 -22.6464 -33.4585 30.0958 
-23.2106 -33.2522 30.0913 -24.4285 -33.3286 30.0936 -26.5001 -33.5116 29.7989 
-22.0927 -33.6737 30.0723 -21.7534 -33.8913 29.5899 -23.2174 -33.9523 30.0592 
-23.7971 -33.7555 30.0379 -24.3525 -33.8806 30.0776 -26.4187 -33.9534 29.8654 
-20.2652 -34.6177 29.9168 -20.3126 -34.2405 29.6169 -19.9163 -34.3774 29.6665 
-20.8435 -34.4778 30.0444 -20.8624 -34.2583 29.73 -21.4227 -34.1495 29.8323 
-23.1539 -34.6457 30.1146 -23.8402 -34.3068 30.0647 -25.5718 -34.603 29.9889 
-25.8354 -34.4732 29.6103 -26.1189 -34.1431 29.7591 -19.652 -34.7098 29.7849 
-19.3817 -35.0373 29.7242 -20.3486 -35.0706 30.1423 -20.7284 -34.8683 30.1119 
-22.6601 -35.1681 30.1406 -25.4179 -35.061 29.818 -25.631 -34.8476 29.6299 
-17.1796 -35.4488 29.5786 -16.9631 -35.6761 29.7781 -17.8907 -35.6217 30.0764 
-17.8006 -35.4611 29.688 -18.584 -35.4688 29.7456 -18.9302 -35.6806 29.881 
-18.8868 -35.7164 29.604 -19.1721 -35.5142 29.7913 -22.6506 -35.5975 30.1818 
-24.3046 -35.8593 30.1536 -24.8248 -35.8101 29.9801 -25.2119 -35.5304 29.8397 
-17.121 -36.267 29.9586 -17.0139 -36.1251 29.5888 -17.4211 -36.1863 29.8044 
-17.7992 -35.9186 29.8722 -18.099 -36.1438 29.6071 -19.0222 -35.8146 29.6955 
-23.9584 -36.2228 30.0742 -24.3613 -36.2262 29.9084 -24.7121 -36.2092 29.7003 
-25.0297 -35.9801 29.5198 -17.191 -36.4171 29.6522 -18.4947 -36.6274 29.8819 
-19.028 -37.0172 29.9578 -18.7122 -37.019 29.6471 -19.4402 -36.937 30.1348 
-20.9318 -36.8863 30.055 -20.643 -37.1017 29.8368 -20.9542 -36.7096 29.5846 
-21.4018 -36.6099 29.7113 -21.9762 -36.709 29.8535 -22.558 -36.8924 29.9399 
-22.2551 -36.9517 29.6292 -23.0255 -36.9202 30.0019 -23.4716 -36.8144 29.9084 
-23.9643 -36.6192 29.6968 -24.4215 -36.4661 29.5793 -19.0051 -37.3961 29.8559 
-18.8042 -37.4581 29.5301 -19.468 -37.4055 30.0214 -20.3782 -37.4656 29.7532 
-22.7285 -37.1168 29.5857 -23.3443 -37.1002 29.5836 -19.2021 -37.7334 29.6635 
-19.7313 -37.7918 29.8474 -20.0556 -37.7399 29.6006 -28.6142 -28.6334 29.3007 
-28.4795 -28.2786 28.9817 -28.2742 -28.5354 29.2024 -28.8116 -28.4227 29.0003 
-28.1473 -29.1075 29.3766 -27.9971 -28.7386 29.1698 -27.69 -29.0314 29.1395 
-28.6482 -29.1681 29.3747 -28.8859 -28.9018 29.0914 -27.595 -29.6373 29.3488 
-27.3406 -29.3145 29.0521 -27.2024 -29.7228 29.0669 -28.1207 -29.8044 29.4729 
-28.5478 -29.707 29.3902 -28.8678 -29.5118 29.0933 -27.3328 -30.2633 29.3613 
-27.0665 -30.2276 29.0492 -27.9808 -30.3913 29.5347 -28.5354 -30.3144 29.3893 
-28.8513 -30.136 29.0649 -23.7242 -30.6587 29.0228 -23.4621 -30.9708 29.2921 
-24.169 -30.8179 29.0715 -25.5956 -30.9355 29.5719 -26.3901 -30.9199 29.275 
-26.2169 -30.6885 28.9238 -25.9612 -30.9313 29.1995 -26.9082 -30.8735 29.2569 
-26.7602 -30.5719 29.0377 -27.582 -30.9544 29.5559 -28.5349 -30.7781 29.4106 
-28.8322 -30.8132 29.0028 -23.4139 -31.6124 29.2016 -24.3715 -31.0534 29.2765 
-24.8266 -31.138 29.1969 -25.4892 -31.0599 29.2196 -26.6254 -31.3946 29.2662 
-26.7838 -31.6051 29.4722 -26.8107 -31.3115 29.0713 -27.0302 -31.5154 29.3294 
-27.9524 -31.3869 29.4376 -28.3483 -31.5096 29.135 -28.6452 -31.2217 29.1351 
-23.3773 -32.2243 29.0678 -25.6521 -32.1055 29.2318 -25.4768 -32.1922 28.9503 
-25.5576 -31.9511 29.1237 -25.8051 -32.1076 29.1817 -26.7727 -31.7548 29.1784 
-26.7996 -32.1641 29.313 -27.2922 -32.0635 29.286 -27.7189 -31.9899 29.2689 
-28.0526 -31.8069 29.1412 -22.014 -32.5902 29.453 -22.1556 -32.4856 29.115 
-21.7795 -32.7973 29.2438 -22.7037 -32.4167 29.0923 -23.0751 -32.3524 29.2475 
-25.6697 -32.3739 29.1548 -26.0237 -32.5154 29.3197 -25.8903 -32.8648 29.078 
-26.2427 -32.4033 29.0951 -26.9898 -32.4105 29.0933 -27.5033 -32.3158 29.0792 
-21.7692 -33.2336 29.1597 -26.2441 -33.1641 29.3981 -26.0361 -33.4049 29.0917 
-20.1325 -34.0243 29.3633 -20.2244 -33.7232 28.9505 -19.8614 -33.9502 29.1341 
-20.5329 -33.8208 29.0386 -21.9342 -33.6448 29.1745 -22.0244 -34.0618 29.3048 
-22.2058 -33.8726 29.0604 -26.2634 -33.7436 29.4491 -25.9988 -33.9422 29.1218 
-19.6788 -34.3035 29.3885 -19.5774 -34.1961 28.9199 -19.4144 -34.6419 29.2278 
-20.7571 -34.0782 29.2103 -21.3894 -34.2425 29.3099 -21.8871 -34.3912 29.2894 
-21.7387 -34.5342 28.9257 -22.2731 -34.3439 29.1224 -26.0023 -34.4855 28.95 
-19.2341 -35.1644 29.1391 -22.1592 -34.6903 28.981 -25.5786 -35.2218 29.3697 
-25.8087 -35.0402 29.1572 -17.333 -35.5433 29.181 -17.0274 -35.7047 29.2306 
-17.6756 -35.8536 29.3866 -17.3393 -35.8152 29.0493 -18.0668 -35.6569 29.1135 
-18.4174 -35.3247 29.0969 -19.0628 -35.6538 29.4495 -18.9221 -35.4331 29.1382 
-25.389 -35.7246 29.1619 -25.6647 -35.4917 29.0229 -17.1294 -35.9533 29.0973 
-17.2989 -36.187 29.3574 -18.2 -36.1827 28.9138 -24.7799 -36.4006 29.1326 
-25.0802 -36.1202 29.0618 -18.4217 -36.6064 29.2731 -18.6205 -37.01 29.1445 
-20.5097 -36.9862 29.1231 -20.8741 -36.5306 28.9999 -21.4109 -36.65 29.2697 
[...]
CELL_DATA 7756
SCALARS scalars float
LOOKUP_TABLE default
1019 1019 1019 1019 1019 1019 1019 1019 1019 
1019 1019 1019 1019 1019 1019 1019 1019 1019 
1019 1019 1019 1019 1019 1019 1019 1019 1019 
1019 1019 1019 1019 1019 1019 1019 1019 1019 
1019 1019 1019 1019 1019 1019 1019 1019 1019 
1019 1019 1019 1019 1019 1019 1019 1019 1019 
1019 1019 1019 1019 1019 1019 1019 1019 1019 
1019 1019 1019 1019 1019 1019 1019 1019 1019 
1019 1019 1019 1019 1019 1019 1019 1019 1019 
1019 1019 1019 1019 1019 1019 1019 1019 1019 
1019 1019 1019 1019 1019 1019 1019 1019 1019 
1019 1019 1019 1019 1019 1019 1019 1019 1019 
1019 1019 1019 1019 1019 1019 1019 1019 1019 
1019 1019 1019 1019 1019 1019 1019 1019 1019 
1019 1019 1019 1019 1019 1019 1019 1019 1019 
1019 1019 1019 1019 1019 1019 1019 1019 1019 
1019 1019 1019 1019 1019 1019 1019 1019 1019 
1019 1019 1019 1019 1019 1019 1019 1019 1019 
1019 1019 1019 1019 1019 1019 1019 1019 1019 
1019 1019 1019 1019 1019 1019 1019 1019 1019 
1019 1019 1019 1019 1019 1019 1019 1019 1019 
1019 1019 1019 1019 1019 1019 1019 1019 1019 
1019 1019 1019 1019 1019 1019 1019 1019 1019 
1019 1019 1019 1019 1019 1019 1019 1019 1019 
1019 1019 1019 1019 1019 1019 1019 1019 1019 
1019 1019 1019 1019 1019 1019 1019 1019 1019 
1019 1019 1019 1019 1019 1019 1019 1019 1019 
1019 1019 1019 1019 1019 1019 1019 1019 1019 
1019 1019 1019 1019 1019 1019 1019 1019 1019 
1019 1019 1019 1019 1019 1019 1019 1019 1019 
1019 1019 1019 1019 1019 1019 1019 1019 1019 
1019 1019 1019 1019 1019 1019 1019 1019 1019 
1019 1019 1019 1019 1019 1019 1019 1019 1019 
1019 1019 1019 1019 1019 1019 1019 1019 1019 
1019 1019 1019 1019 1019 1019 1019 1019 1019 
1019 1019 1019 1019 1019 1019 1019 1019 1019 
1019 1019 1019 1019 1019 1019 1019 1019 1019 
1019 1019 1019 1019 1019 1019 1019 1019 1019 
1019 1019 1019 1019 1019 1019 1019 1019 1019 
1019 1019 1019 1019 1019 1019 1019 1019 1019 
1019 1019 1019 1019 1019 1019 1019 1019 1019 
1019 1019 1019 1019 1019 1019 1019 1019 1019 
1019 1019 1019 1019 1019 1019 1019 1019 1019 
1019 1019 1019 1019 1019 1019 1019 1019 1019 
1019 1019 1019 1019 1019 1019 1019 1019 1019 
1019 1019 1019 1019 1019 1019 1019 1019 1019 
1019 1019 1019 1019 1019 1019 1019 1019 1019 
1019 1019 1019 1019 1019 1019 1019 1019 1019 
1019 1019 1019 1019 1019 1019 1019 1019 1019 
1019 1019 1019 1019 1019 1019 1019 1019 1019 
1019 1019 1019 1019 1019 1019 1019 1019 1019 
1019 1019 1019 1019 1019 1019 1019 1019 1019 
1019 1019 1019 1019 1019 1019 1019 1019 1019 
1019 1019 1019 1019 1019 1019 1019 1019 1019 
1019 1019 1019 1019 1019 1019 1019 1019 1019 
1019 1019 1019 1019 1019 1019 1019 1019 1019 
1019 1019 1019 1019 1019 1019 1019 1019 1019 
1019 1019 1019 1019 1019 1019 1019 1019 1019 
1019 1019 1019 1019 1019 1019 1019 1019 1019 
1019 1019 1019 1019 1019 1019 1019 1019 1019 
1019 1019 1019 1019 1019 1019 1019 1019 1019 
1019 1019 1019 1019 1019 1019 1019 1019 1019 
1019 1019 1019 1019 1019 1019 1019 1019 1019 
1019 1019 1019 1019 1019 1019 1019 1019 1019 
1019 1019 1019 1019 1019 1019 1019 1019 1019 
1019 1019 1019 1019 1019 1019 1019 1019 1019 
1019 1019 1019 1019 1019 1019 1019 1019 1019 
1019 1019 1019 1019 1019 1019 1019 1019 1019 
1019 1019 1019 1019 1019 1019 1019 1019 1019 
1019 1019 1019 1019 1019 1019 1019 1019 1019 
1019 1019 1019 1019 1019 1019 1019 1019 1019 
1019 1019 1019 1019 1019 1019 1019 1019 1019 
1019 1019 1019 1019 1019 1019 1019 1019 1019 
1019 1019 1019 1019 1019 1019 1019 1019 1019 
1019 1019 1019 1019 1019 1019 1019 1019 1019 
1019 1019 1019 1019 1019 1019 1019 1019 1019 
1019 1019 1019 1019 1019 1019 1019 1019 1019 
1019 1019 1019 1019 1019 1019 1019 1019 1019 
1019 1019 1019 1019 1019 1019 1019 1019 1019 
1019 1019 1019 1019 1019 1019 1019 1019 1019 
1019 1019 1019 1019 1019 1019 1019 1019 1019 
1019 1019 1019 1019 1019 1019 1019 1019 1019 
1019 1019 1019 1019 1019 1019 1019 1019 1019 
1019 1019 1019 1019 1019 1019 1019 1019 1019 
1019 1019 1019 1019 1019 1019 1019 1019 1019 
1019 1019 1019 1019 1019 1019 1019 1019 1019 
1019 1019 1019 1019 1019 1019 1019 1019 1019 
1019 1019 1019 1019 1019 1019 1019 1019 1019 
1019 1019 1019 1019 1019 1019 1019 1019 1019 
1019 1019 1019 1019 1019 1019 1019 1019 1019 
1019 1019 1019 1019 1019 1019 1019 1019 1019 
1019 1019 1019 1019 1019 1019 1019 1019 1019 
1019 1019 1019 1019 1019 1019 1019 1019 1019 
1019 1019 1019 1019 1019 1019 1019 1019 1019 
1019 1019 1019 1019 1019 1019 1019 1019 1019 
1019 1019 1019 1019 1019 1019 1019 1019 1019 
1019 1019 1019 1019 1019 1019 1019 1019 1019 
1019 1019 1019 1019 1019 1019 1019 1019 1019 
1019 1019 1019 1019 1019 1019 1019 1019 1019 
1019 1019 1019 1019 1019 1019 1019 1019 1019 
1019 1019 1019 1019 1019 1019 1019 1019 1019 
1019 1019 1019 1019 1019 1019 1019 1019 1019 
1019 1019 1019 1019 1019 1019 1019 1019 1019 
1019 1019 1019 1019 1019 1019 1019 1019 1019 
1019 1019 1019 1019 1019 1019 1019 1019 1019 
1019 1019 1019 1019 1019 1019 1019 1019 1019 
1019 1019 1019 1019 1019 1019 1019 1019 1019 
1019 1019 1019 1019 1019 1019 1019 1019 1019 
1019 1019 1019 1019 1019 1019 1019 1019 1019 
1019 1019 1019 1019 1019 1019 1019 1019 1019 
1019 1019 1019 1019 1019 1019 1019 1019 1019 
1019 1019 1019 1019 1019 1019 1019 1019 1019 
1019 1019 1019 1019 1019 1019 1019 1019 1019 
1019 1019 1019 1019 1019 1019 1019 1019 1019 
1019 1019 1019 1019 1019 1019 1019 1019 1019 
1019 1019 1019 1019 1019 1019 1019 1019 1019 
1019 1019 1019 1019 1019 1019 1019 1019 1019 
1019 1019 1019 1019 1019 1019 1019 1019 1019 
1019 1019 1019 1019 1019 1019 1019 1019 1019 
1019 1019 1019 1019 1019 1019 1019 1019 1019 
1019 1019 1019 1019 1019 1019 1019 1019 1019 
1019 1019 1019 1019 1019 1019 1019 1019 1019 
1019 1019 1019 1019 1019 1019 1019 1019 1019 
1019 1019 1019 1019 1019 1019 1019 1019 1019 
1019 1019 1019 1019 1019 1019 1019 1019 1019 
1019 1019 1019 1019 1019 1019 1019 1019 1019 
1019 1019 1019 1019 1019 1019 1019 1019 1019 
1019 1019 1019 1019 1019 1019 1019 1019 1019 
1019 1019 1019 1019 1019 1019 1019 1019 1019 
1019 1019 1019 1019 1019 1019 1019 1019 1019 
1019 1019 1019 1019 1019 1019 1019 1019 1019 
1019 1019 1019 1019 1019 1019 1019 1019 1019 
1019 1019 1019 1019 1019 1019 1019 1019 1019 
1019 1019 1019 1019 1019 1019 1019 1019 1019 
1019 1019 1019 1019 1019 1019 1019 1019 1019 
1019 1019 1019 1019 1019 1019 1019 1019 1019 
1019 1019 1019 1019 1019 1019 1019 1019 1019 
1019 1019 1019 1019 1019 1019 1019 1019 1019 
1019 1019 1019 1019 1019 1019 1019 1019 1019 
1019 1019 1019 1019 1019 1019 1019 1019 1019 
1019 1019 1019 1019 1019 1019 1019 1019 1019 
1019 1019 1019 1019 1019 1019 1019 1019 1019 
1019 1019 1019 1019 1019 1019 1019 1019 1019 
1019 1019 1019 1019 1019 1019 1019 1019 1019 
1019 1019 1019 1019 1019 1019 1019 1019 1019 
1019 1019 1019 1019 1019 1019 1019 1019 1019 
1019 1019 1019 1019 1019 1019 1019 1019 1019 
1019 1019 1019 1019 1019 1019 1019 1019 1019 
1019 1019 1019 1019 1019 1019 1019 1019 1019 
1019 1019 1019 1019 1019 1019 1019 1019 1019 
1019 1019 1019 1019 1019 1019 1019 1019 1019 
1019 1019 1019 1019 1019 1019 1019 1019 1019 
1019 1019 1019 1019 1019 1019 1019 1019 1019 
1019 1019 1019 1019 1019 1019 1019 1019 1019 
1019 1019 1019 1019 1019 1019 1019 1019 1019 
1019 1019 1019 1019 1019 1019 1019 1019 1019 
1019 1019 1019 1019 1019 1019 1019 1019 1019 
1019 1019 1019 1019 1019 1019 1019 1019 1019 
1019 1019 1019 1019 1019 1019 1019 1019 1019 
1019 1019 1019 1019 1019 1019 1019 1019 1019 
1019 1019 1019 1019 1019 1019 1019 1019 1019 
1019 1019 1019 1019 1019 1019 1019 1019 1019 
1019 1019 1019 1019 1019 1019 1019 1019 1019 
1019 1019 1019 1019 1019 1019 1019 1019 1019 
1019 1019 1019 1019 1019 1019 1019 1019 1019 
1019 1019 1019 1019 1019 1019 1019 1019 1019 
1019 1019 1019 1019 1019 1019 1019 1019 1019 
1019 1019 1019 1019 1019 1019 1019 1019 1019 
1019 1019 1019 1019 1019 1019 1019 1019 1019 
1019 1019 1019 1019 1019 1019 1019 1019 1019 
1019 1019 1019 1019 1019 1019 1019 1019 1019 
1019 1019 1019 1019 1019 1019 1019 1019 1019 
1019 1019 1019 1019 1019 1019 1019 1019 1019 
1019 1019 1019 1019 1019 1019 1019 1019 1019 
1019 1019 1019 1019 1019 1019 1019 1019 1019 
1019 1019 1019 1019 1019 1019 1019 1019 1019 
1019 1019 1019 1019 1019 1019 1019 1019 1019 
1019 1019 1019 1019 1019 1019 1019 1019 1019 
1019 1019 1019 1019 1019 1019 1019 1019 1019 
1019 1019 1019 1019 1019 1019 1019 1019 1019 
1019 1019 1019 1019 1019 1019 1019 1019 1019 
1019 1019 1019 1019 1019 1019 1019 1019 1019 
1019 1019 1019 1019 1019 1019 1019 1019 1019 
1019 1019 1019 1019 1019 1019 1019 1019 1019 
1019 1019 1019 1019 1019 1019 1019 1019 1019 
1019 1019 1019 1019 1019 1019 1019 1019 1019 
1019 1019 1019 1019 1019 1019 1019 1019 1019 
1019 1019 1019 1019 1019 1019 1019 1019 1019 
1019 1019 1019 1019 1019 1019 1019 1019 1019 
1019 1019 1019 1019 1019 1019 1019 1019 1019 
1019 1019 1019 1019 1019 1019 1019 1019 1019 
1019 1019 1019 1019 1019 1019 1019 1019 1019 
1019 1019 1019 1019 1019 1019 1019 1019 1019 
1019 1019 1019 1019 1019 1019 1019 1019 1019 
1019 1019 1019 1019 1019 1019 1019 1019 1019 
1019 1019 1019 1019 1019 1019 1019 1019 1019 
1019 1019 1019 1019 1019 1019 1019 1019 1019 
1019 1019 1019 1019 1019 1019 1019 1019 1019 
1019 1019 1019 1019 1019 1019 1019 1019 1019 
1019 1019 1019 1019 1019 1019 1019 1019 1019 
1019 1019 1019 1019 1019 1019 1019 1019 1019 
1019 1019 1019 1019 1019 1019 1019 1019 1019 
1019 1019 1019 1019 1019 1019 1019 1019 1019 
1019 1019 1019 1019 1019 1019 1019 1019 1019 
1019 1019 1019 1019 1019 1019 1019 1019 1019 
1019 1019 1019 1019 1019 1019 1019 1019 1019 
1019 1019 1019 1019 1019 1019 1019 1019 1019 
1019 1019 1019 1019 1019 1019 1019 1019 1019 
1019 1019 1019 1019 1019 1019 1019 1019 1019 
1019 1019 1019 1019 1019 1019 1019 1019 1019 
1019 1019 1019 1019 1019 1019 1019 1019 1019 
1019 1019 1019 1019 1019 1019 1019 1019 1019 
1019 1019 1019 1019 1019 1019 1019 1019 1019 
1019 1019 1019 1019 1019 1019 1019 1019 1019 
1019 1019 1019 1019 1019 1019 1019 1019 1019 
1019 1019 1019 1019 1019 1019 1019 1019 1019 
1019 1019 1019 1019 1019 1019 1019 1019 1019 
1019 1019 1019 1019 1019 1019 1019 1019 1019 
1019 1019 1019 1019 1019 1019 1019 1019 1019 
1019 1019 1019 1019 1019 1019 1019 1019 1019 
1019 1019 1019 1019 1019 1019 1019 1019 1019 
1019 1019 1019 1019 1019 1019 1019 1019 1019 
1019 1019 1019 1019 1019 1019 1019 1019 1019 
1019 1019 1019 1019 1019 1019 1019 1019 1019 
1019 1019 1019 1019 1019 1019 1019 1019 1019 
1019 1019 1019 1019 1019 1019 1019 1019 1019 
1019 1019 1019 1019 1019 1019 1019 1019 1019 
1019 1019 1019 1019 1019 1019 1019 1019 1019 
1019 1019 1019 1019 1019 1019 1019 1019 1019 
1019 1019 1019 1019 1019 1019 1019 1019 1019 
1019 1019 1019 1019 1019 1019 1019 1019 1019 
1019 1019 1019 1019 1019 1019 1019 1019 1019 
1019 1019 1019 1019 1019 1019 1019 1019 1019 
1019 1019 1019 1019 1019 1019 1019 1019 1019 
1019 1019 1019 1019 1019 1019 1019 1019 1019 
1019 1019 1019 1019 1019 1019 1019 1019 1019 
1019 1019 1019 1019 1019 1019 1019 1019 1019 
1019 1019 1019 1019 1019 1019 1019 1019 1019 
1019 1019 1019 1019 1019 1019 1019 1019 1019 
1019 1019 1019 1019 1019 1019 1019 1019 1019 
1019 1019 1019 1019 1019 1019 1019 1019 1019 
1019 1019 1019 1019 1019 1019 1019 1019 1019 
1019 1019 1019 1019 1019 1019 1019 1019 1019 
1019 1019 1019 1019 1019 1019 1019 1019 1019 
1019 1019 1019 1019 1019 1019 1019 1019 1019 
1019 1019 1019 1019 1019 1019 1019 1019 1019 
1019 1019 1019 1019 1019 1019 1019 1019 1019 
1019 1019 1019 1019 1019 1019 1019 1019 1019 
1019 1019 1019 1019 1019 1019 1019 1019 1019 
1019 1019 1019 1019 1019 1019 1019 1019 1019 
1019 1019 1019 1019 1019 1019 1019 1019 1019 
1019 1019 1019 1019 1019 1019 1019 1019 1019 
1019 1019 1019 1019 1019 1019 1019 1019 1019 
1019 1019 1019 1019 1019 1019 1019 1019 1019 
1019 1019 1019 1019 1019 1019 1019 1019 1019 
1019 1019 1019 1019 1019 1019 1019 1019 1019 
1019 1019 1019 1019 1019 1019 1019 1019 1019 
1019 1019 1019 1019 1019 1019 1019 1019 1019 
1019 1019 1019 1019 1019 1019 1019 1019 1019 
1019 1019 1019 1019 1019 1019 1019 1019 1019 
1019 1019 1019 1019 1019 1019 1019 1019 1019 
1019 1019 1019 1019 1019 1019 1019 1019 1019 
1019 1019 1019 1019 1019 1019 1019 1019 1019 
1019 1019 1019 1019 1019 1019 1019 1019 1019 
1019 1019 1019 1019 1019 1019 1019 1019 1019 
1019 1019 1019 1019 1019 1019 1019 1019 1019 
1019 1019 1019 1019 1019 1019 1019 1019 1019 
1019 1019 1019 1019 1019 1019 1019 1019 1019 
1019 1019 1019 1019 1019 1019 1019 1019 1019 
1019 1019 1019 1019 1019 1019 1019 1019 1019 
1019 1019 1019 1019 1019 1019 1019 1019 1019 
1019 1019 1019 1019 1019 1019 1019 1019 1019 
1019 1019 1019 1019 1019 1019 1019 1019 1019 
1019 1019 1019 1019 1019 1019 1019 1019 1019 
1019 1019 1019 1019 1019 1019 1019 1019 1019 
1019 1019 1019 1019 1019 1019 1019 1019 1019 
1019 1019 1019 1019 1019 1019 1019 1019 1019 
1019 1019 1019 1019 1019 1019 1019 1019 1019 
1019 1019 1019 1019 1019 1019 1019 1019 1019 
1019 1019 1019 1019 1019 1019 1019 1019 1019 
1019 1019 1019 1019 1019 1019 1019 1019 1019 
1019 1019 1019 1019 1019 1019 1019 1019 1019 
1019 1019 1019 1019 1019 1019 1019 1019 1019 
1019 1019 1019 1019 1019 1019 1019 1019 1019 
1019 1019 1019 1019 1019 1019 1019 1019 1019 
1019 1019 1019 1019 1019 1019 1019 1019 1019 
1019 1019 1019 1019 1019 1019 1019 1019 1019 
1019 1019 1019 1019 1019 1019 1019 1019 1019 
1019 1019 1019 1019 1019 1019 1019 1019 1019 
1019 1019 1019 1019 1019 1019 1019 1019 1019 
1019 1019 1019 1019 1019 1019 1019 1019 1019 
1019 1019 1019 1019 1019 1019 1019 1019 1019 
1019 1019 1019 1019 1019 1019 1019 1019 1019 
1019 1019 1019 1019 1019 1019 1019 1019 1019 
1019 1019 1019 1019 1019 1019 1019 1019 1019 
1019 1019 1019 1019 1019 1019 1019 1019 1019 
1019 1019 1019 1019 1019 1019 1019 1019 1019 
1019 1019 1019 1019 1019 1019 1019 1019 1019 
1019 1019 1019 1019 1019 1019 1019 1019 1019 
1019 1019 1019 1019 1019 1019 1019 1019 1019 
1019 1019 1019 1019 1019 1019 1019 1019 1019 
1019 1019 1019 1019 1019 1019 1019 1019 1019 
1019 1019 1019 1019 1019 1019 1019 1019 1019 
1019 1019 1019 1019 1019 1019 1019 1019 1019 
1019 1019 1019 1019 1019 1019 1019 1019 1019 
1019 1019 1019 1019 1019 1019 1019 1019 1019 
1019 1019 1019 1019 1019 1019 1019 1019 1019 
1019 1019 1019 1019 1019 1019 1019 1019 1019 
1019 1019 1019 1019 1019 1019 1019 1019 1019 
1019 1019 1019 1019 1019 1019 1019 1019 1019 
1019 1019 1019 1019 1019 1019 1019 1019 1019 
1019 1019 1019 1019 1019 1019 1019 1019 1019 
1019 1019 1019 1019 1019 1019 1019 1019 1019 
1019 1019 1019 1019 1019 1019 1019 1019 1019 
1019 1019 1019 1019 1019 1019 1019 1019 1019 
1019 1019 1019 1019 1019 1019 1019 1019 1019 
1019 1019 1019 1019 1019 1019 1019 1019 1019 
1019 1019 1019 1019 1019 1019 1019 1019 1019 
1019 1019 1019 1019 1019 1019 1019 1019 1019 
1019 1019 1019 1019 1019 1019 1019 1019 1019 
1019 1019 1019 1019 1019 1019 1019 1019 1019 
1019 1019 1019 1019 1019 1019 1019 1019 1019 
1019 1019 1019 1019 1019 1019 1019 1019 1019 
1019 1019 1019 1019 1019 1019 1019 1019 1019 
1019 1019 1019 1019 1019 1019 1019 1019 1019 
1019 1019 1019 1019 1019 1019 1019 1019 1019 
1019 1019 1019 1019 1019 1019 1019 1019 1019 
1019 1019 1019 1019 1019 1019 1019 1019 1019 
1019 1019 1019 1019 1019 1019 1019 1019 1019 
1019 1019 1019 1019 1019 1019 1019 1019 1019 
1019 1019 1019 1019 1019 1019 1019 1019 1019 
1019 1019 1019 1019 1019 1019 1019 1019 1019 
1019 1019 1019 1019 1019 1019 1019 1019 1019 
1019 1019 1019 1019 1019 1019 1019 1019 1019 
1019 1019 1019 1019 1019 1019 1019 1019 1019 
1019 1019 1019 1019 1019 1019 1019 1019 1019 
1019 1019 1019 1019 1019 1019 1019 1019 1019 
1019 1019 1019 1019 1019 1019 1019 1019 1019 
1019 1019 1019 1019 1019 1019 1019 1019 1019 
1019 1019 1019 1019 1019 1019 1019 1019 1019 
1019 1019 1019 1019 1019 1019 1019 1019 1019 
1019 1019 1019 1019 1019 1019 1019 1019 1019 
1019 1019 1019 1019 1019 1019 1019 1019 1019 
1019 1019 1019 1019 1019 1019 1019 1019 1019 
1019 1019 1019 1019 1019 1019 1019 1019 1019 
1019 1019 1019 1019 1019 1019 1019 1019 1019 
1019 1019 1019 1019 1019 1019 1019 1019 1019 
1019 1019 1019 1019 1019 1019 1019 1019 1019 
1019 1019 1019 1019 1019 1019 1019 1019 1019 
1019 1019 1019 1019 1019 1019 1019 1019 1019 
1019 1019 1019 1019 1019 1019 1019 1019 1019 
1019 1019 1019 1019 1019 1019 1019 1019 1019 
1019 1019 1019 1019 1019 1019 1019 1019 1019 
1019 1019 1019 1019 1019 1019 1019 1019 1019 
1019 1019 1019 1019 1019 1019 1019 1019 1019 
1019 1019 1019 1019 1019 1019 1019 1019 1019 
1019 1019 1019 1019 1019 1019 1019 1019 1019 
1019 1019 1019 1019 1019 1019 1019 1019 1019 
1019 1019 1019 1019 1019 1019 1019 1019 1019 
1019 1019 1019 1019 1019 1019 1019 1019 1019 
1019 1019 1019 1019 1019 1019 1019 1019 1019 
1019 1019 1019 1019 1019 1019 1019 1019 1019 
1019 1019 1019 1019 1019 1019 1019 1019 1019 
1019 1019 1019 1019 1019 1019 1019 1019 1019 
1019 1019 1019 1019 1019 1019 1019 1019 1019 
1019 1019 1019 1019 1019 1019 1019 1019 1019 
1019 1019 1019 1019 1019 1019 1019 1019 1019 
1019 1019 1019 1019 1019 1019 1019 1019 1019 
1019 1019 1019 1019 1019 1019 1019 1019 1019 
1019 1019 1019 1019 1019 1019 1019 1019 1019 
1019 1019 1019 1019 1019 1019 1019 1019 1019 
1019 1019 1019 1019 1019 1019 1019 1019 1019 
1019 1019 1019 1019 1019 1019 1019 1019 1019 
1019 1019 1019 1019 1019 1019 1019 1019 1019 
1019 1019 1019 1019 1019 1019 1019 1019 1019 
1019 1019 1019 1019 1019 1019 1019 1019 1019 
1019 1019 1019 1019 1019 1019 1019 1019 1019 
1019 1019 1019 1019 1019 1019 1019 1019 1019 
1019 1019 1019 1019 1019 1019 1019 1019 1019 
1019 1019 1019 1019 1019 1019 1019 1019 1019 
1019 1019 1019 1019 1019 1019 1019 1019 1019 
1019 1019 1019 1019 1019 1019 1019 1019 1019 
1019 1019 1019 1019 1019 1019 1019 1019 1019 
1019 1019 1019 1019 1019 1019 1019 1019 1019 
1019 1019 1019 1019 1019 1019 1019 1019 1019 
1019 1019 1019 1019 1019 1019 1019 1019 1019 
1019 1019 1019 1019 1019 1019 1019 1019 1019 
1019 1019 1019 1019 1019 1019 1019 1019 1019 
1019 1019 1019 1019 1019 1019 1019 1019 1019 
1019 1019 1019 1019 1019 1019 1019 1019 1019 
1019 1019 1019 1019 1019 1019 1019 1019 1019 
1019 1019 1019 1019 1019 1019 1019 1019 1019 
1019 1019 1019 1019 1019 1019 1019 1019 1019 
1019 1019 1019 1019 1019 1019 1019 1019 1019 
1019 1019 1019 1019 1019 1019 1019 1019 1019 
1019 1019 1019 1019 1019 1019 1019 1019 1019 
1019 1019 1019 1019 1019 1019 1019 1019 1019 
1019 1019 1019 1019 1019 1019 1019 1019 1019 
1019 1019 1019 1019 1019 1019 1019 1019 1019 
1019 1019 1019 1019 1019 1019 1019 1019 1019 
1019 1019 1019 1019 1019 1019 1019 1019 1019 
1019 1019 1019 1019 1019 1019 1019 1019 1019 
1019 1019 1019 1019 1019 1019 1019 1019 1019 
1019 1019 1019 1019 1019 1019 1019 1019 1019 
1019 1019 1019 1019 1019 1019 1019 1019 1019 
1019 1019 1019 1019 1019 1019 1019 1019 1019 
1019 1019 1019 1019 1019 1019 1019 1019 1019 
1019 1019 1019 1019 1019 1019 1019 1019 1019 
1019 1019 1019 1019 1019 1019 1019 1019 1019 
1019 1019 1019 1019 1019 1019 1019 1019 1019 
1019 1019 1019 1019 1019 1019 1019 1019 1019 
1019 1019 1019 1019 1019 1019 1019 1019 1019 
1019 1019 1019 1019 1019 1019 1019 1019 1019 
1019 1019 1019 1019 1019 1019 1019 1019 1019 
1019 1019 1019 1019 1019 1019 1019 1019 1019 
1019 1019 1019 1019 1019 1019 1019 1019 1019 
1019 1019 1019 1019 1019 1019 1019 1019 1019 
1019 1019 1019 1019 1019 1019 1019 1019 1019 
1019 1019 1019 1019 1019 1019 1019 1019 1019 
1019 1019 1019 1019 1019 1019 1019 1019 1019 
1019 1019 1019 1019 1019 1019 1019 1019 1019 
1019 1019 1019 1019 1019 1019 1019 1019 1019 
1019 1019 1019 1019 1019 1019 1019 1019 1019 
1019 1019 1019 1019 1019 1019 1019 1019 1019 
1019 1019 1019 1019 1019 1019 1019 1019 1019 
1019 1019 1019 1019 1019 1019 1019 1019 1019 
1019 1019 1019 1019 1019 1019 1019 1019 1019 
1019 1019 1019 1019 1019 1019 1019 1019 1019 
1019 1019 1019 1019 1019 1019 1019 1019 1019 
1019 1019 1019 1019 1019 1019 1019 1019 1019 
1019 1019 1019 1019 1019 1019 1019 1019 1019 
1019 1019 1019 1019 1019 1019 1019 1019 1019 
1019 1019 1019 1019 1019 1019 1019 1019 1019 