# vtk DataFile Version 4.2
vtk output
ASCII
DATASET POLYDATA
POINTS 13994 float
13.232 -6.32064 71.4491 13.4281 -6.47414 71.7318 13.5261 -6.44555 71.2864 
12.9104 -6.76575 71.4814 13.1444 -6.54868 71.0273 14.16 -7.12087 73.3458 
14.3417 -7.64197 74.1324 14.8816 -7.73484 73.4509 12.9921 -7.18122 73.2758 
13.591 -7.58924 73.8732 12.768 -7.55819 73.3527 15.0289 -7.19725 72.6328 
15.3523 -7.64151 72.7458 15.4992 -7.48705 72.4747 14.3252 -6.88658 72.5427 
13.3044 -6.86707 72.4059 12.2886 -7.43627 72.9395 12.3695 -7.21775 72.6587 
12.0649 -7.4817 72.5004 15.2023 -7.51339 72.121 14.9206 -7.72338 71.2616 
14.2426 -6.88802 71.6411 12.4879 -7.37574 72.0032 12.7892 -7.6465 71.1176 
14.1885 -7.11812 70.5138 14.5657 -7.68791 70.4328 13.4433 -6.86995 70.49 
12.8741 -7.22288 70.5752 14.1138 -7.43239 69.9657 13.6965 -7.77737 69.2409 
13.5354 -7.20179 69.6793 12.9297 -7.64062 69.5702 13.1551 -7.61404 68.9785 
14.1219 -8.14731 74.4692 14.3034 -8.58307 74.7578 14.5742 -8.42388 74.3164 
14.0669 -8.86696 74.3924 14.848 -8.51866 73.5889 13.6772 -8.38521 73.6229 
13.0976 -7.9111 73.2998 15.4373 -7.7568 72.4584 15.1191 -8.29981 72.5425 
13.2155 -8.18246 72.655 13.6212 -8.69845 72.4899 12.5228 -7.7671 72.5907 
15.392 -8.92593 71.9032 15.579 -8.74402 71.3719 15.3346 -8.27267 71.5916 
13.0561 -8.0892 71.7602 13.5002 -8.79352 71.675 15.3179 -8.41543 71.0868 
14.8675 -8.64687 70.4117 13.1363 -8.33069 71.0912 12.8424 -8.39804 70.5117 
14.2953 -8.14049 69.8813 14.0256 -8.48414 69.2102 12.7474 -8.64082 69.5535 
13.2014 -8.00652 68.3236 13.7675 -8.36092 68.2973 12.8345 -8.40961 68.6801 
13.3616 -8.13537 67.2809 13.9423 -8.3518 67.3601 12.8519 -8.57878 67.6804 
14.0281 -8.101 66.5951 14.3789 -8.58464 67.0389 14.5956 -8.54387 66.3825 
13.513 -8.09303 66.1956 12.9505 -8.57393 66.7279 14.1838 -8.08358 65.534 
14.6694 -8.51799 65.4378 13.7111 -8.38251 65.4512 13.2791 -8.74549 65.9799 
14.375 -8.20259 64.6579 14.6074 -8.72494 64.3692 13.9749 -8.61801 64.6003 
14.2194 -8.54267 63.9592 14.3627 -9.03398 74.4975 14.2229 -9.50475 74.039 
14.6284 -9.2514 73.6686 13.977 -9.37466 73.3535 14.8583 -9.49108 72.6425 
13.8255 -9.34273 72.3628 15.1864 -9.61073 71.9578 15.5511 -9.31524 71.4984 
13.6076 -9.71791 71.9397 13.2081 -8.91063 71.2539 12.9453 -9.61797 71.5524 
15.3796 -9.16839 71.0135 14.9455 -9.76026 70.5824 12.7376 -9.5096 70.464 
14.4032 -8.85146 69.5565 14.7168 -9.59001 69.5909 12.7641 -9.51348 69.416 
14.2891 -9.03454 68.7449 14.6721 -9.69233 68.505 12.7667 -9.5156 68.4256 
14.3043 -8.91576 67.79 14.7203 -9.42726 67.4096 12.7609 -9.50027 67.438 
14.928 -9.56881 66.3201 12.971 -9.43095 66.5972 14.7898 -9.29002 65.2862 
13.6709 -9.3551 65.4393 13.3502 -9.5507 66.1299 14.7838 -9.58868 64.6016 
13.8224 -9.65319 64.5994 14.3981 -8.94686 63.2243 14.9126 -9.36712 63.6386 
13.9191 -9.39326 63.6756 15.0422 -9.16584 62.6976 15.407 -9.59336 63.0688 
15.6156 -9.7693 62.3701 14.4908 -9.12877 62.4029 13.9625 -9.68141 62.5846 
14.9644 -9.39161 61.9848 14.29 -9.56632 61.9211 14.363 -9.81787 73.3215 
14.3801 -9.85051 72.3669 13.2234 -10.1494 72.4088 13.3347 -10.7876 72.7884 
13.5539 -10.4685 72.4172 12.9711 -10.6289 72.4847 15.0191 -9.89111 71.4109 
14.2753 -10.1723 71.6585 13.8984 -10.6315 71.812 12.6552 -10.5815 71.5855 
14.4932 -10.6812 71.0424 14.781 -10.4065 70.2504 12.6435 -10.5027 70.3625 
14.8116 -10.5561 69.4931 12.7939 -10.3773 69.3128 14.8304 -10.5338 68.5004 
12.7889 -10.5395 68.4745 14.9717 -10.4465 67.4608 12.8977 -10.6055 67.3561 
15.2719 -10.241 66.6615 15.3503 -10.853 66.9323 15.5761 -10.7769 66.2517 
13.2211 -10.108 66.6414 13.5262 -10.2596 66.2109 13.2354 -10.6973 66.7568 
15.2745 -10.3501 66.0478 14.9757 -10.4275 65.2653 13.6961 -10.5264 65.3494 
14.94 -10.3031 64.2927 13.803 -10.3581 64.308 15.2629 -10.0227 63.6419 
15.2891 -10.8296 63.9121 15.6456 -10.3047 63.2352 13.7864 -10.499 63.4702 
15.8605 -10.6262 62.6492 13.7696 -10.6887 62.6321 15.4436 -9.82751 61.366 
15.9332 -10.4839 61.6648 14.5984 -9.96213 61.231 13.9192 -10.5417 61.6495 
15.9965 -10.1658 60.5724 16.3324 -10.8127 60.9225 16.5334 -10.5322 60.4557 
15.1783 -10.0454 60.4114 14.6102 -10.5028 60.3049 14.1839 -10.6421 60.8333 
16.3859 -10.5209 59.8819 15.82 -10.6621 59.2164 15.5569 -10.2301 59.6831 
14.9843 -10.4307 59.6685 17.3344 -10.3089 58.456 17.3976 -10.5646 58.8993 
17.5969 -10.7267 58.341 16.927 -10.6936 58.4202 15.2074 -10.6923 59.2173 
17.2294 -10.5365 57.9997 13.2181 -11.3044 72.7794 13.5846 -11.2094 72.4362 
12.8786 -11.302 72.4226 13.7722 -11.6687 71.492 12.585 -11.7239 71.9924 
12.2577 -11.1098 71.1615 11.9526 -11.7833 71.7057 14.2692 -11.6154 70.842 
14.6359 -11.2024 70.3469 12.3298 -11.1758 70.4094 11.9103 -11.7558 70.6419 
14.6981 -11.5225 69.4075 12.626 -11.1928 69.5661 12.1993 -11.6658 69.931 
14.8244 -11.3535 68.3745 12.6679 -11.4166 68.5021 14.9578 -11.655 67.5266 
12.6708 -11.6609 67.5237 15.2907 -11.6168 66.8272 15.6015 -11.2966 66.4376 
13.349 -11.0114 66.175 12.9627 -11.356 66.7226 15.4099 -10.9505 65.6345 
15.5654 -11.468 65.7722 13.4268 -11.2706 65.4368 13.0026 -11.7843 65.7266 
15.2474 -11.3935 65.2121 14.9713 -11.6001 64.5957 13.6435 -11.2162 64.5302 
13.2628 -11.7379 64.9556 15.2204 -11.6314 63.8382 15.6378 -11.3354 63.2618 
13.6527 -11.3925 63.4659 15.8517 -11.3226 62.375 13.6492 -11.5236 62.3492 
15.9766 -11.5163 61.6186 13.7506 -11.4806 61.4737 16.328 -11.7863 60.9702 
16.7782 -11.1895 60.3715 14.2913 -11.0938 60.248 13.9253 -11.462 60.774 
16.9949 -10.9134 59.4503 17.3113 -11.7888 59.9447 17.6248 -11.2331 59.238 
16.404 -10.724 59.3463 14.7336 -11.1834 59.563 14.269 -11.8552 59.98 
17.9805 -11.5164 58.457 16.231 -11.0265 58.7667 15.3965 -11.5285 58.9029 
15.8623 -11.5811 58.4299 17.3735 -10.9767 57.5591 17.8241 -11.4339 57.5491 
16.9358 -11.2117 57.5789 16.332 -11.6398 58.0193 17.3548 -11.7682 57.1307 
10.3206 -11.3539 42.4638 10.4565 -11.4812 42.7203 10.593 -11.3885 42.4499 
10.002 -11.8025 42.5284 11.2967 -11.3191 41.4482 11.4773 -11.4738 41.7195 
11.5887 -11.4687 41.3171 10.3656 -11.6157 42.1229 10.9179 -11.7167 41.4027 
11.2048 -11.5709 41.0387 12.1926 -12.3956 73.3817 12.3056 -12.6014 73.732 
12.4326 -12.4879 73.3839 12.122 -12.6509 73.3652 13.2374 -11.7003 72.2687 
12.2507 -12.133 72.6568 12.5059 -12.4828 72.6442 11.9444 -12.3529 72.5684 
13.148 -12.097 71.6717 12.6951 -12.5116 71.7667 11.8552 -12.376 71.4553 
14.3311 -11.9674 70.1971 13.8642 -12.5111 70.7488 13.1421 -12.8179 71.1765 
11.9487 -12.6346 70.4848 14.3814 -12.2078 69.4279 14.0117 -12.7938 69.6799 
12.2794 -11.9301 69.1753 11.8684 -12.3869 69.6755 14.2495 -12.7172 68.9231 
14.643 -12.3362 68.4569 12.3099 -12.0634 68.2324 11.7846 -12.5919 68.5652 
14.8064 -12.5311 67.5665 12.3711 -12.2231 67.4092 12.0063 -12.6818 67.5708 
15.341 -11.9699 66.134 14.9472 -12.5172 66.7915 12.6186 -12.2116 66.5609 
12.2321 -12.7028 66.8796 15.2384 -11.9119 65.3727 14.9284 -12.5811 65.5707 
12.6236 -12.5228 65.6271 14.7935 -12.7187 64.6362 13.3013 -11.9544 64.1824 
12.7956 -12.3759 64.7669 15.3391 -12.0938 63.3082 14.9248 -12.5984 63.6772 
13.3142 -12.0481 63.2172 12.7868 -12.6044 63.5886 15.1949 -12.676 62.8677 
15.6344 -12.2918 62.4055 13.352 -12.2054 62.3781 12.9921 -12.651 62.5821 
15.9361 -12.3744 61.4884 13.6149 -12.3011 61.3951 13.2141 -12.6901 61.8919 
16.3003 -12.7916 60.9661 16.8157 -12.2741 60.4892 13.9332 -12.3676 60.4617 
17.3295 -12.7912 60.0278 17.8303 -12.222 59.3346 14.7637 -12.266 59.4147 
14.288 -12.8115 59.9488 18.4204 -12.0655 58.416 18.3021 -12.7976 58.8994 
18.831 -12.4559 58.3083 15.7749 -12.2793 58.4016 15.2922 -12.7848 58.9376 
19.0968 -12.2046 57.7386 19.3546 -12.7451 57.8864 19.5647 -12.5259 57.4747 
18.4799 -11.9259 57.6016 16.7818 -12.2502 57.3643 16.2773 -12.8084 57.9014 
19.1984 -12.6822 56.9868 18.0504 -12.4621 57.0316 17.2896 -12.6868 57.0327 
9.24016 -12.1291 44.3922 9.27966 -12.6034 45.0233 9.77019 -12.5978 44.4961 
8.57617 -12.2212 44.2532 8.62992 -12.426 44.9318 7.92183 -12.7511 44.4422 
11.2574 -12.1595 43.416 11.0536 -12.7464 43.7572 11.8124 -12.4001 43.4141 
10.1325 -11.9772 43.4669 10.4141 -12.6354 44.0068 9.20397 -12.0746 43.7819 
8.71215 -12.3816 43.6703 8.20415 -12.6592 43.9007 12.1354 -12.1466 42.7694 
12.2816 -12.5372 43.0005 12.6612 -12.5478 42.2088 11.0939 -11.6982 42.3704 
9.34404 -12.3594 43.0581 9.6684 -12.5867 42.2452 5.27695 -12.2894 42.5496 
5.31935 -12.6374 42.7112 5.46075 -12.4909 42.5435 5.02704 -12.7411 42.4396 
12.1353 -11.915 41.6241 12.7677 -12.4763 41.3019 10.4703 -11.9323 41.6401 
10.0221 -12.3051 41.749 7.25906 -12.3285 41.3749 7.2229 -12.7674 41.8008 
7.56997 -12.4416 41.4203 6.85284 -12.6 41.4663 5.38407 -12.6662 42.0654 
12.405 -12.1888 40.6976 12.8395 -12.657 40.6881 11.6344 -11.9662 40.6078 
10.8684 -12.4001 40.474 10.3514 -12.6839 41.0712 7.3986 -12.6446 41.1582 
12.3179 -12.6092 40.0073 11.2983 -12.5817 39.8676 12.3621 -12.7432 73.3673 
12.2048 -12.735 72.4083 11.1935 -13.2889 72.3818 11.3014 -13.512 72.7337 
11.522 -13.5171 72.2613 11.0401 -13.7959 72.3784 13.2896 -13.3028 71.5605 
13.319 -13.5588 71.6713 13.5079 -13.3091 71.3113 12.313 -12.7789 71.225 
13.1785 -13.5554 71.302 11.259 -13.2173 71.5452 11.6529 -13.4918 71.3436 
10.9067 -13.5011 71.7709 13.6982 -13.5543 70.4209 12.876 -13.5963 70.5509 
12.4351 -13.0623 70.5679 11.3852 -13.2745 70.393 11.8145 -13.7811 70.7209 
10.8442 -13.6017 70.7887 13.8377 -13.5746 69.4983 12.0878 -13.5161 70.0938 
11.3665 -13.0174 69.2614 10.8481 -13.6088 69.7013 14.3688 -13.1131 68.3232 
13.9747 -13.6197 68.6835 11.3233 -13.1251 68.3497 10.9056 -13.6936 68.6054 
14.236 -13.692 67.879 14.6202 -13.2044 67.55 11.616 -13.3786 67.5378 
11.1892 -13.6439 67.8566 14.6853 -13.544 66.3854 12.283 -12.9871 66.1066 
11.939 -13.3481 66.6899 14.7694 -13.4018 65.3074 12.2915 -13.0431 65.1822 
11.9435 -13.6797 65.7465 14.7719 -13.54 64.4449 12.2925 -13.0034 64.2042 
11.9243 -13.6746 64.7342 14.7862 -13.6912 63.5996 12.3213 -13.1437 63.3542 
11.9543 -13.7212 63.6309 15.3166 -13.0958 62.2701 14.9308 -13.4934 62.7649 
12.5973 -13.3516 62.5218 12.1888 -13.6325 62.8639 15.2427 -13.8512 61.9654 
[...]
CELL_DATA 28056
SCALARS scalars float
LOOKUP_TABLE default
2025 2025 2025 2025 2025 2025 2025 2025 2025 
2025 2025 2025 2025 2025 2025 2025 2025 2025 
2025 2025 2025 2025 2025 2025 2025 2025 2025 
2025 2025 2025 2025 2025 2025 2025 2025 2025 
2025 2025 2025 2025 2025 2025 2025 2025 2025 
2025 2025 2025 2025 2025 2025 2025 2025 2025 
2025 2025 2025 2025 2025 2025 2025 2025 2025 
2025 2025 2025 2025 2025 2025 2025 2025 2025 
2025 2025 2025 2025 2025 2025 2025 2025 2025 
2025 2025 2025 2025 2025 2025 2025 2025 2025 
2025 2025 2025 2025 2025 2025 2025 2025 2025 
2025 2025 2025 2025 2025 2025 2025 2025 2025 
2025 2025 2025 2025 2025 2025 2025 2025 2025 
2025 2025 2025 2025 2025 2025 2025 2025 2025 
2025 2025 2025 2025 2025 2025 2025 2025 2025 
2025 2025 2025 2025 2025 2025 2025 2025 2025 
2025 2025 2025 2025 2025 2025 2025 2025 2025 
2025 2025 2025 2025 2025 2025 2025 2025 2025 
2025 2025 2025 2025 2025 2025 2025 2025 2025 
2025 2025 2025 2025 2025 2025 2025 2025 2025 
2025 2025 2025 2025 2025 2025 2025 2025 2025 
2025 2025 2025 2025 2025 2025 2025 2025 2025 
2025 2025 2025 2025 2025 2025 2025 2025 2025 
2025 2025 2025 2025 2025 2025 2025 2025 2025 
2025 2025 2025 2025 2025 2025 2025 2025 2025 
2025 2025 2025 2025 2025 2025 2025 2025 2025 
2025 2025 2025 2025 2025 2025 2025 2025 2025 
2025 2025 2025 2025 2025 2025 2025 2025 2025 
2025 2025 2025 2025 2025 2025 2025 2025 2025 
2025 2025 2025 2025 2025 2025 2025 2025 2025 
2025 2025 2025 2025 2025 2025 2025 2025 2025 
2025 2025 2025 2025 2025 2025 2025 2025 2025 
2025 2025 2025 2025 2025 2025 2025 2025 2025 
2025 2025 2025 2025 2025 2025 2025 2025 2025 
2025 2025 2025 2025 2025 2025 2025 2025 2025 
2025 2025 2025 2025 2025 2025 2025 2025 2025 
2025 2025 2025 2025 2025 2025 2025 2025 2025 
2025 2025 2025 2025 2025 2025 2025 2025 2025 
2025 2025 2025 2025 2025 2025 2025 2025 2025 
2025 2025 2025 2025 2025 2025 2025 2025 2025 
2025 2025 2025 2025 2025 2025 2025 2025 2025 
2025 2025 2025 2025 2025 2025 2025 2025 2025 
2025 2025 2025 2025 2025 2025 2025 2025 2025 
2025 2025 2025 2025 2025 2025 2025 2025 2025 
2025 2025 2025 2025 2025 2025 2025 2025 2025 
2025 2025 2025 2025 2025 2025 2025 2025 2025 
2025 2025 2025 2025 2025 2025 2025 2025 2025 
2025 2025 2025 2025 2025 2025 2025 2025 2025 
2025 2025 2025 2025 2025 2025 2025 2025 2025 
2025 2025 2025 2025 2025 2025 2025 2025 2025 
2025 2025 2025 2025 2025 2025 2025 2025 2025 
2025 2025 2025 2025 2025 2025 2025 2025 2025 
2025 2025 2025 2025 2025 2025 2025 2025 2025 
2025 2025 2025 2025 2025 2025 2025 2025 2025 
2025 2025 2025 2025 2025 2025 2025 2025 2025 
2025 2025 2025 2025 2025 2025 2025 2025 2025 
2025 2025 2025 2025 2025 2025 2025 2025 2025 
2025 2025 2025 2025 2025 2025 2025 2025 2025 
2025 2025 2025 2025 2025 2025 2025 2025 2025 
2025 2025 2025 2025 2025 2025 2025 2025 2025 
2025 2025 2025 2025 2025 2025 2025 2025 2025 
2025 2025 2025 2025 2025 2025 2025 2025 2025 
2025 2025 2025 2025 2025 2025 2025 2025 2025 
2025 2025 2025 2025 2025 2025 2025 2025 2025 
2025 2025 2025 2025 2025 2025 2025 2025 2025 
2025 2025 2025 2025 2025 2025 2025 2025 2025 
2025 2025 2025 2025 2025 2025 2025 2025 2025 
2025 2025 2025 2025 2025 2025 2025 2025 2025 
2025 2025 2025 2025 2025 2025 2025 2025 2025 
2025 2025 2025 2025 2025 2025 2025 2025 2025 
2025 2025 2025 2025 2025 2025 2025 2025 2025 
2025 2025 2025 2025 2025 2025 2025 2025 2025 
2025 2025 2025 2025 2025 2025 2025 2025 2025 
2025 2025 2025 2025 2025 2025 2025 2025 2025 
2025 2025 2025 2025 2025 2025 2025 2025 2025 
2025 2025 2025 2025 2025 2025 2025 2025 2025 
2025 2025 2025 2025 2025 2025 2025 2025 2025 
2025 2025 2025 2025 2025 2025 2025 2025 2025 
2025 2025 2025 2025 2025 2025 2025 2025 2025 
2025 2025 2025 2025 2025 2025 2025 2025 2025 
2025 2025 2025 2025 2025 2025 2025 2025 2025 
2025 2025 2025 2025 2025 2025 2025 2025 2025 
2025 2025 2025 2025 2025 2025 2025 2025 2025 
2025 2025 2025 2025 2025 2025 2025 2025 2025 
2025 2025 2025 2025 2025 2025 2025 2025 2025 
2025 2025 2025 2025 2025 2025 2025 2025 2025 
2025 2025 2025 2025 2025 2025 2025 2025 2025 
2025 2025 2025 2025 2025 2025 2025 2025 2025 
2025 2025 2025 2025 2025 2025 2025 2025 2025 
2025 2025 2025 2025 2025 2025 2025 2025 2025 
2025 2025 2025 2025 2025 2025 2025 2025 2025 
2025 2025 2025 2025 2025 2025 2025 2025 2025 
2025 2025 2025 2025 2025 2025 2025 2025 2025 
2025 2025 2025 2025 2025 2025 2025 2025 2025 
2025 2025 2025 2025 2025 2025 2025 2025 2025 
2025 2025 2025 2025 2025 2025 2025 2025 2025 
2025 2025 2025 2025 2025 2025 2025 2025 2025 
2025 2025 2025 2025 2025 2025 2025 2025 2025 
2025 2025 2025 2025 2025 2025 2025 2025 2025 
2025 2025 2025 2025 2025 2025 2025 2025 2025 
2025 2025 2025 2025 2025 2025 2025 2025 2025 
2025 2025 2025 2025 2025 2025 2025 2025 2025 
2025 2025 2025 2025 2025 2025 2025 2025 2025 
2025 2025 2025 2025 2025 2025 2025 2025 2025 
2025 2025 2025 2025 2025 2025 2025 2025 2025 
2025 2025 2025 2025 2025 2025 2025 2025 2025 
2025 2025 2025 2025 2025 2025 2025 2025 2025 
2025 2025 2025 2025 2025 2025 2025 2025 2025 
2025 2025 2025 2025 2025 2025 2025 2025 2025 
2025 2025 2025 2025 2025 2025 2025 2025 2025 
2025 2025 2025 2025 2025 2025 2025 2025 2025 
2025 2025 2025 2025 2025 2025 2025 2025 2025 
2025 2025 2025 2025 2025 2025 2025 2025 2025 
2025 2025 2025 2025 2025 2025 2025 2025 2025 
2025 2025 2025 2025 2025 2025 2025 2025 2025 
2025 2025 2025 2025 2025 2025 2025 2025 2025 
2025 2025 2025 2025 2025 2025 2025 2025 2025 
2025 2025 2025 2025 2025 2025 2025 2025 2025 
2025 2025 2025 2025 2025 2025 2025 2025 2025 
2025 2025 2025 2025 2025 2025 2025 2025 2025 
2025 2025 2025 2025 2025 2025 2025 2025 2025 
2025 2025 2025 2025 2025 2025 2025 2025 2025 
2025 2025 2025 2025 2025 2025 2025 2025 2025 
2025 2025 2025 2025 2025 2025 2025 2025 2025 
2025 2025 2025 2025 2025 2025 2025 2025 2025 
2025 2025 2025 2025 2025 2025 2025 2025 2025 
2025 2025 2025 2025 2025 2025 2025 2025 2025 
2025 2025 2025 2025 2025 2025 2025 2025 2025 
2025 2025 2025 2025 2025 2025 2025 2025 2025 
2025 2025 2025 2025 2025 2025 2025 2025 2025 
2025 2025 2025 2025 2025 2025 2025 2025 2025 
2025 2025 2025 2025 2025 2025 2025 2025 2025 
2025 2025 2025 2025 2025 2025 2025 2025 2025 
2025 2025 2025 2025 2025 2025 2025 2025 2025 
2025 2025 2025 2025 2025 2025 2025 2025 2025 
2025 2025 2025 2025 2025 2025 2025 2025 2025 
2025 2025 2025 2025 2025 2025 2025 2025 2025 
2025 2025 2025 2025 2025 2025 2025 2025 2025 
2025 2025 2025 2025 2025 2025 2025 2025 2025 
2025 2025 2025 2025 2025 2025 2025 2025 2025 
2025 2025 2025 2025 2025 2025 2025 2025 2025 
2025 2025 2025 2025 2025 2025 2025 2025 2025 
2025 2025 2025 2025 2025 2025 2025 2025 2025 
2025 2025 2025 2025 2025 2025 2025 2025 2025 
2025 2025 2025 2025 2025 2025 2025 2025 2025 
2025 2025 2025 2025 2025 2025 2025 2025 2025 
2025 2025 2025 2025 2025 2025 2025 2025 2025 
2025 2025 2025 2025 2025 2025 2025 2025 2025 
2025 2025 2025 2025 2025 2025 2025 2025 2025 
2025 2025 2025 2025 2025 2025 2025 2025 2025 
2025 2025 2025 2025 2025 2025 2025 2025 2025 
2025 2025 2025 2025 2025 2025 2025 2025 2025 
2025 2025 2025 2025 2025 2025 2025 2025 2025 
2025 2025 2025 2025 2025 2025 2025 2025 2025 
2025 2025 2025 2025 2025 2025 2025 2025 2025 
2025 2025 2025 2025 2025 2025 2025 2025 2025 
2025 2025 2025 2025 2025 2025 2025 2025 2025 
2025 2025 2025 2025 2025 2025 2025 2025 2025 
2025 2025 2025 2025 2025 2025 2025 2025 2025 
2025 2025 2025 2025 2025 2025 2025 2025 2025 
2025 2025 2025 2025 2025 2025 2025 2025 2025 
2025 2025 2025 2025 2025 2025 2025 2025 2025 
2025 2025 2025 2025 2025 2025 2025 2025 2025 
2025 2025 2025 2025 2025 2025 2025 2025 2025 
2025 2025 2025 2025 2025 2025 2025 2025 2025 
2025 2025 2025 2025 2025 2025 2025 2025 2025 
2025 2025 2025 2025 2025 2025 2025 2025 2025 
2025 2025 2025 2025 2025 2025 2025 2025 2025 
2025 2025 2025 2025 2025 2025 2025 2025 2025 
2025 2025 2025 2025 2025 2025 2025 2025 2025 
2025 2025 2025 2025 2025 2025 2025 2025 2025 
2025 2025 2025 2025 2025 2025 2025 2025 2025 
2025 2025 2025 2025 2025 2025 2025 2025 2025 
2025 2025 2025 2025 2025 2025 2025 2025 2025 
2025 2025 2025 2025 2025 2025 2025 2025 2025 
2025 2025 2025 2025 2025 2025 2025 2025 2025 
2025 2025 2025 2025 2025 2025 2025 2025 2025 
2025 2025 2025 2025 2025 2025 2025 2025 2025 
2025 2025 2025 2025 2025 2025 2025 2025 2025 
2025 2025 2025 2025 2025 2025 2025 2025 2025 
2025 2025 2025 2025 2025 2025 2025 2025 2025 
2025 2025 2025 2025 2025 2025 2025 2025 2025 
2025 2025 2025 2025 2025 2025 2025 2025 2025 
2025 2025 2025 2025 2025 2025 2025 2025 2025 
2025 2025 2025 2025 2025 2025 2025 2025 2025 
2025 2025 2025 2025 2025 2025 2025 2025 2025 
2025 2025 2025 2025 2025 2025 2025 2025 2025 
2025 2025 2025 2025 2025 2025 2025 2025 2025 
2025 2025 2025 2025 2025 2025 2025 2025 2025 
2025 2025 2025 2025 2025 2025 2025 2025 2025 
2025 2025 2025 2025 2025 2025 2025 2025 2025 
2025 2025 2025 2025 2025 2025 2025 2025 2025 
2025 2025 2025 2025 2025 2025 2025 2025 2025 
2025 2025 2025 2025 2025 2025 2025 2025 2025 
2025 2025 2025 2025 2025 2025 2025 2025 2025 
2025 2025 2025 2025 2025 2025 2025 2025 2025 
2025 2025 2025 2025 2025 2025 2025 2025 2025 
2025 2025 2025 2025 2025 2025 2025 2025 2025 
2025 2025 2025 2025 2025 2025 2025 2025 2025 
2025 2025 2025 2025 2025 2025 2025 2025 2025 
2025 2025 2025 2025 2025 2025 2025 2025 2025 
2025 2025 2025 2025 2025 2025 2025 2025 2025 
2025 2025 2025 2025 2025 2025 2025 2025 2025 
2025 2025 2025 2025 2025 2025 2025 2025 2025 
2025 2025 2025 2025 2025 2025 2025 2025 2025 
2025 2025 2025 2025 2025 2025 2025 2025 2025 
2025 2025 2025 2025 2025 2025 2025 2025 2025 
2025 2025 2025 2025 2025 2025 2025 2025 2025 
2025 2025 2025 2025 2025 2025 2025 2025 2025 
2025 2025 2025 2025 2025 2025 2025 2025 2025 
2025 2025 2025 2025 2025 2025 2025 2025 2025 
2025 2025 2025 2025 2025 2025 2025 2025 2025 
2025 2025 2025 2025 2025 2025 2025 2025 2025 
2025 2025 2025 2025 2025 2025 2025 2025 2025 
2025 2025 2025 2025 2025 2025 2025 2025 2025 
2025 2025 2025 2025 2025 2025 2025 2025 2025 
2025 2025 2025 2025 2025 2025 2025 2025 2025 
2025 2025 2025 2025 2025 2025 2025 2025 2025 
2025 2025 2025 2025 2025 2025 2025 2025 2025 
2025 2025 2025 2025 2025 2025 2025 2025 2025 
2025 2025 2025 2025 2025 2025 2025 2025 2025 
2025 2025 2025 2025 2025 2025 2025 2025 2025 
2025 2025 2025 2025 2025 2025 2025 2025 2025 
2025 2025 2025 2025 2025 2025 2025 2025 2025 
2025 2025 2025 2025 2025 2025 2025 2025 2025 
2025 2025 2025 2025 2025 2025 2025 2025 2025 
2025 2025 2025 2025 2025 2025 2025 2025 2025 
2025 2025 2025 2025 2025 2025 2025 2025 2025 
2025 2025 2025 2025 2025 2025 2025 2025 2025 
2025 2025 2025 2025 2025 2025 2025 2025 2025 
2025 2025 2025 2025 2025 2025 2025 2025 2025 
2025 2025 2025 2025 2025 2025 2025 2025 2025 
2025 2025 2025 2025 2025 2025 2025 2025 2025 
2025 2025 2025 2025 2025 2025 2025 2025 2025 
2025 2025 2025 2025 2025 2025 2025 2025 2025 
2025 2025 2025 2025 2025 2025 2025 2025 2025 
2025 2025 2025 2025 2025 2025 2025 2025 2025 
2025 2025 2025 2025 2025 2025 2025 2025 2025 
2025 2025 2025 2025 2025 2025 2025 2025 2025 
2025 2025 2025 2025 2025 2025 2025 2025 2025 
2025 2025 2025 2025 2025 2025 2025 2025 2025 
2025 2025 2025 2025 2025 2025 2025 2025 2025 
2025 2025 2025 2025 2025 2025 2025 2025 2025 
2025 2025 2025 2025 2025 2025 2025 2025 2025 
2025 2025 2025 2025 2025 2025 2025 2025 2025 
2025 2025 2025 2025 2025 2025 2025 2025 2025 
2025 2025 2025 2025 2025 2025 2025 2025 2025 
2025 2025 2025 2025 2025 2025 2025 2025 2025 
2025 2025 2025 2025 2025 2025 2025 2025 2025 
2025 2025 2025 2025 2025 2025 2025 2025 2025 
2025 2025 2025 2025 2025 2025 2025 2025 2025 
2025 2025 2025 2025 2025 2025 2025 2025 2025 
2025 2025 2025 2025 2025 2025 2025 2025 2025 
2025 2025 2025 2025 2025 2025 2025 2025 2025 
2025 2025 2025 2025 2025 2025 2025 2025 2025 
2025 2025 2025 2025 2025 2025 2025 2025 2025 
2025 2025 2025 2025 2025 2025 2025 2025 2025 
2025 2025 2025 2025 2025 2025 2025 2025 2025 
2025 2025 2025 2025 2025 2025 2025 2025 2025 
2025 2025 2025 2025 2025 2025 2025 2025 2025 
2025 2025 2025 2025 2025 2025 2025 2025 2025 
2025 2025 2025 2025 2025 2025 2025 2025 2025 
2025 2025 2025 2025 2025 2025 2025 2025 2025 
2025 2025 2025 2025 2025 2025 2025 2025 2025 
2025 2025 2025 2025 2025 2025 2025 2025 2025 
2025 2025 2025 2025 2025 2025 2025 2025 2025 
2025 2025 2025 2025 2025 2025 2025 2025 2025 
2025 2025 2025 2025 2025 2025 2025 2025 2025 
2025 2025 2025 2025 2025 2025 2025 2025 2025 
2025 2025 2025 2025 2025 2025 2025 2025 2025 
2025 2025 2025 2025 2025 2025 2025 2025 2025 
2025 2025 2025 2025 2025 2025 2025 2025 2025 
2025 2025 2025 2025 2025 2025 2025 2025 2025 
2025 2025 2025 2025 2025 2025 2025 2025 2025 
2025 2025 2025 2025 2025 2025 2025 2025 2025 
2025 2025 2025 2025 2025 2025 2025 2025 2025 
2025 2025 2025 2025 2025 2025 2025 2025 2025 
2025 2025 2025 2025 2025 2025 2025 2025 2025 
2025 2025 2025 2025 2025 2025 2025 2025 2025 
2025 2025 2025 2025 2025 2025 2025 2025 2025 
2025 2025 2025 2025 2025 2025 2025 2025 2025 
2025 2025 2025 2025 2025 2025 2025 2025 2025 
2025 2025 2025 2025 2025 2025 2025 2025 2025 
2025 2025 2025 2025 2025 2025 2025 2025 2025 
2025 2025 2025 2025 2025 2025 2025 2025 2025 
2025 2025 2025 2025 2025 2025 2025 2025 2025 
2025 2025 2025 2025 2025 2025 2025 2025 2025 
2025 2025 2025 2025 2025 2025 2025 2025 2025 
2025 2025 2025 2025 2025 2025 2025 2025 2025 
2025 2025 2025 2025 2025 2025 2025 2025 2025 
2025 2025 2025 2025 2025 2025 2025 2025 2025 
2025 2025 2025 2025 2025 2025 2025 2025 2025 
2025 2025 2025 2025 2025 2025 2025 2025 2025 
2025 2025 2025 2025 2025 2025 2025 2025 2025 
2025 2025 2025 2025 2025 2025 2025 2025 2025 
2025 2025 2025 2025 2025 2025 2025 2025 2025 
2025 2025 2025 2025 2025 2025 2025 2025 2025 
2025 2025 2025 2025 2025 2025 2025 2025 2025 
2025 2025 2025 2025 2025 2025 2025 2025 2025 
2025 2025 2025 2025 2025 2025 2025 2025 2025 
2025 2025 2025 2025 2025 2025 2025 2025 2025 
2025 2025 2025 2025 2025 2025 2025 2025 2025 
2025 2025 2025 2025 2025 2025 2025 2025 2025 
2025 2025 2025 2025 2025 2025 2025 2025 2025 
2025 2025 2025 2025 2025 2025 2025 2025 2025 
2025 2025 2025 2025 2025 2025 2025 2025 2025 
2025 2025 2025 2025 2025 2025 2025 2025 2025 
2025 2025 2025 2025 2025 2025 2025 2025 2025 
2025 2025 2025 2025 2025 2025 2025 2025 2025 
2025 2025 2025 2025 2025 2025 2025 2025 2025 
2025 2025 2025 2025 2025 2025 2025 2025 2025 
2025 2025 2025 2025 2025 2025 2025 2025 2025 
2025 2025 2025 2025 2025 2025 2025 2025 2025 
2025 2025 2025 2025 2025 2025 2025 2025 2025 
2025 2025 2025 2025 2025 2025 2025 2025 2025 
2025 2025 2025 2025 2025 2025 2025 2025 2025 
2025 2025 2025 2025 2025 2025 2025 2025 2025 
2025 2025 2025 2025 2025 2025 2025 2025 2025 
2025 2025 2025 2025 2025 2025 2025 2025 2025 
2025 2025 2025 2025 2025 2025 2025 2025 2025 
2025 2025 2025 2025 2025 2025 2025 2025 2025 
2025 2025 2025 2025 2025 2025 2025 2025 2025 
2025 2025 2025 2025 2025 2025 2025 2025 2025 
2025 2025 2025 2025 2025 2025 2025 2025 2025 
2025 2025 2025 2025 2025 2025 2025 2025 2025 
2025 2025 2025 2025 2025 2025 2025 2025 2025 
2025 2025 2025 2025 2025 2025 2025 2025 2025 
2025 2025 2025 2025 2025 2025 2025 2025 2025 
2025 2025 2025 2025 2025 2025 2025 2025 2025 
2025 2025 2025 2025 2025 2025 2025 2025 2025 
2025 2025 2025 2025 2025 2025 2025 2025 2025 
2025 2025 2025 2025 2025 2025 2025 2025 2025 
2025 2025 2025 2025 2025 2025 2025 2025 2025 
2025 2025 2025 2025 2025 2025 2025 2025 2025 
2025 2025 2025 2025 2025 2025 2025 2025 2025 
2025 2025 2025 2025 2025 2025 2025 2025 2025 
2025 2025 2025 2025 2025 2025 2025 2025 2025 
2025 2025 2025 2025 2025 2025 2025 2025 2025 
2025 2025 2025 2025 2025 2025 2025 2025 2025 
2025 2025 2025 2025 2025 2025 2025 2025 2025 
2025 2025 2025 2025 2025 2025 2025 2025 2025 
2025 2025 2025 2025 2025 2025 2025 2025 2025 
2025 2025 2025 2025 2025 2025 2025 2025 2025 
2025 2025 2025 2025 2025 2025 2025 2025 2025 
2025 2025 2025 2025 2025 2025 2025 2025 2025 
2025 2025 2025 2025 2025 2025 2025 2025 2025 
2025 2025 2025 2025 2025 2025 2025 2025 2025 
2025 2025 2025 2025 2025 2025 2025 2025 2025 
2025 2025 2025 2025 2025 2025 2025 2025 2025 
2025 2025 2025 2025 2025 2025 2025 2025 2025 
2025 2025 2025 2025 2025 2025 2025 2025 2025 
2025 2025 2025 2025 2025 2025 2025 2025 2025 
2025 2025 2025 2025 2025 2025 2025 2025 2025 
2025 2025 2025 2025 2025 2025 2025 2025 2025 
2025 2025 2025 2025 2025 2025 2025 2025 2025 
2025 2025 2025 2025 2025 2025 2025 2025 2025 
2025 2025 2025 2025 2025 2025 2025 2025 2025 
2025 2025 2025 2025 2025 2025 2025 2025 2025 
2025 2025 2025 2025 2025 2025 2025 2025 2025 
2025 2025 2025 2025 2025 2025 2025 2025 2025 
2025 2025 2025 2025 2025 2025 2025 2025 2025 
2025 2025 2025 2025 2025 2025 2025 2025 2025 
2025 2025 2025 2025 2025 2025 2025 2025 2025 
2025 2025 2025 2025 2025 2025 2025 2025 2025 
2025 2025 2025 2025 2025 2025 2025 2025 2025 
2025 2025 2025 2025 2025 2025 2025 2025 2025 
2025 2025 2025 2025 2025 2025 2025 2025 2025 
2025 2025 2025 2025 2025 2025 2025 2025 2025 
2025 2025 2025 2025 2025 2025 2025 2025 2025 
2025 2025 2025 2025 2025 2025 2025 2025 2025 
2025 2025 2025 2025 2025 2025 2025 2025 2025 
2025 2025 2025 2025 2025 2025 2025 2025 2025 
2025 2025 2025 2025 2025 2025 2025 2025 2025 
2025 2025 2025 2025 2025 2025 2025 2025 2025 
2025 2025 2025 2025 2025 2025 2025 2025 2025 
2025 2025 2025 2025 2025 2025 2025 2025 2025 
2025 2025 2025 2025 2025 2025 2025 2025 2025 
2025 2025 2025 2025 2025 2025 2025 2025 2025 
2025 2025 2025 2025 2025 2025 2025 2025 2025 
2025 2025 2025 2025 2025 2025 2025 2025 2025 
2025 2025 2025 2025 2025 2025 2025 2025 2025 
2025 2025 2025 2025 2025 2025 2025 2025 2025 
2025 2025 2025 2025 2025 2025 2025 2025 2025 
2025 2025 2025 2025 2025 2025 2025 2025 2025 
2025 2025 2025 2025 2025 2025 2025 2025 2025 
2025 2025 2025 2025 2025 2025 2025 2025 2025 
2025 2025 2025 2025 2025 2025 2025 2025 2025 
2025 2025 2025 2025 2025 2025 2025 2025 2025 
2025 2025 2025 2025 2025 2025 2025 2025 2025 
2025 2025 2025 2025 2025 2025 2025 2025 2025 
2025 2025 2025 2025 2025 2025 2025 2025 2025 
2025 2025 2025 2025 2025 2025 2025 2025 2025 
2025 2025 2025 2025 2025 2025 2025 2025 2025 
2025 2025 2025 2025 2025 2025 2025 2025 2025 
2025 2025 2025 2025 2025 2025 2025 2025 2025 
2025 2025 2025 2025 2025 2025 2025 2025 2025 
2025 2025 2025 2025 2025 2025 2025 2025 2025 
2025 2025 2025 2025 2025 2025 2025 2025 2025 
2025 2025 2025 2025 2025 2025 2025 2025 2025 
2025 2025 2025 2025 2025 2025 2025 2025 2025 
2025 2025 2025 2025 2025 2025 2025 2025 2025 
2025 2025 2025 2025 2025 2025 2025 2025 2025 
2025 2025 2025 2025 2025 2025 2025 2025 2025 
2025 2025 2025 2025 2025 2025 2025 2025 2025 
2025 2025 2025 2025 2025 2025 2025 2025 2025 
2025 2025 2025 2025 2025 2025 2025 2025 2025 
2025 2025 2025 2025 2025 2025 2025 2025 2025 
2025 2025 2025 2025 2025 2025 2025 2025 2025 
2025 2025 2025 2025 2025 2025 2025 2025 2025 
2025 2025 2025 2025 2025 2025 2025 2025 2025 
2025 2025 2025 2025 2025 2025 2025 2025 2025 
2025 2025 2025 2025 2025 2025 2025 2025 2025 
2025 2025 2025 2025 2025 2025 2025 2025 2025 
2025 2025 2025 2025 2025 2025 2025 2025 2025 
2025 2025 2025 2025 2025 2025 2025 2025 2025 
2025 2025 2025 2025 2025 2025 2025 2025 2025 
2025 2025 2025 2025 2025 2025 2025 2025 2025 
2025 2025 2025 2025 2025 2025 2025 2025 2025 
2025 2025 2025 2025 2025 2025 2025 2025 2025 
2025 2025 2025 2025 2025 2025 2025 2025 2025 
2025 2025 2025 2025 2025 2025 2025 2025 2025 
2025 2025 2025 2025 2025 2025 2025 2025 2025 
2025 2025 2025 2025 2025 2025 2025 2025 2025 
2025 2025 2025 2025 2025 2025 2025 2025 2025 
2025 2025 2025 2025 2025 2025 2025 2025 2025 
2025 2025 2025 2025 2025 2025 2025 2025 2025 
2025 2025 2025 2025 2025 2025 2025 2025 2025 
2025 2025 2025 2025 2025 2025 2025 2025 2025 
2025 2025 2025 2025 2025 2025 2025 2025 2025 
2025 2025 2025 2025 2025 2025 2025 2025 2025 
2025 2025 2025 2025 2025 2025 2025 2025 2025 
2025 2025 2025 2025 2025 2025 2025 2025 2025 
2025 2025 2025 2025 2025 2025 2025 2025 2025 