# vtk DataFile Version 4.2
vtk output
ASCII
DATASET POLYDATA
POINTS 19036 float
-28.002 -19.1469 50.3823 -27.7228 -19.4785 50.915 -27.2405 -19.5049 50.3008 
-28.9683 -19.0945 50.3625 -28.4059 -19.4805 51.0399 -29.7624 -19.2077 50.244 
-29.3844 -19.489 50.936 -30.1215 -19.5535 50.5452 -27.7994 -19.0567 49.4393 
-27.0691 -19.4589 49.1479 -28.7517 -18.9027 49.4604 -29.6465 -19.0641 49.4413 
-30.2781 -19.4748 49.6857 -27.6508 -19.1981 48.633 -27.1082 -19.6285 48.4008 
-28.6165 -19.0192 48.4329 -29.6172 -19.0184 48.4007 -30.0475 -19.736 48.4811 
-27.7425 -19.5812 48.0869 -28.6545 -19.4888 47.7354 -29.2086 -19.5912 47.2765 
-29.5336 -19.1536 47.6101 -30.0369 -19.4358 47.6059 -29.7468 -19.777 47.1024 
-30.0059 -20.1722 56.3755 -29.7158 -20.4729 56.9165 -29.2665 -20.5349 56.3433 
-30.9727 -20.1022 56.3639 -30.3753 -20.476 57.0252 -31.9435 -20.1956 56.2163 
-31.3606 -20.5107 56.9411 -32.1788 -20.5873 56.643 -29.8066 -20.1018 55.4807 
-29.1226 -20.4681 55.2064 -30.7014 -19.9402 55.5156 -31.5755 -19.9586 55.6151 
-32.6273 -20.4336 56.0448 -32.3965 -20.228 55.3356 -33.0157 -20.5543 55.6003 
-29.6793 -20.1008 54.3699 -28.9895 -20.4233 54.3943 -30.4871 -19.959 54.6565 
-31.4515 -20.1281 54.5139 -32.3082 -20.7039 54.383 -32.8925 -20.5864 55.0061 
-29.0188 -20.1986 53.5204 -28.4957 -20.5877 53.8979 -28.2222 -20.5362 53.1439 
-29.876 -20.0051 53.3076 -30.6754 -20.0883 53.5846 -31.3383 -20.4384 53.519 
-31.7442 -20.6888 53.843 -28.7103 -20.1276 52.3599 -27.9788 -20.4449 52.373 
-29.7301 -20.0057 52.4802 -30.7504 -20.0915 52.3912 -31.3113 -20.4687 52.7564 
-27.7723 -19.9944 51.4511 -27.5816 -20.6632 52.0384 -27.1614 -20.6388 51.4464 
-28.8262 -19.8367 51.521 -29.7893 -19.8745 51.4358 -30.5827 -19.9827 51.5862 
-31.5829 -20.4033 52.014 -31.4228 -20.2211 51.3183 -32.0428 -20.7449 51.645 
-26.8182 -20.1027 50.6457 -26.6266 -20.8147 50.879 -26.3526 -20.4843 50.2161 
-30.7825 -19.9647 50.4489 -31.367 -20.4798 50.512 -31.7587 -20.8455 51.0192 
-26.5682 -19.9505 49.6966 -26.3271 -20.6594 49.4938 -30.5613 -20.0581 49.307 
-30.9785 -20.5366 49.7883 -26.5732 -20.0433 48.7556 -26.4364 -20.5752 48.6417 
-29.6871 -20.2629 48.4114 -29.566 -20.5433 48.3924 -30.0364 -20.5405 48.7516 
-30.6057 -20.5201 49.2573 -26.8885 -20.2154 48.1563 -27.6343 -20.4356 47.7137 
-28.54 -20.0388 47.4031 -28.0519 -20.6477 47.2692 -29.7195 -20.3772 48.1415 
-30.0254 -20.4438 47.6188 -28.9416 -20.5572 46.9702 -29.7941 -20.7053 46.9758 
-35.727 -21.3145 60.2584 -35.5255 -21.5509 60.7549 -35.2273 -21.4926 60.1281 
-36.0188 -21.5511 60.5901 -31.8531 -21.1294 59.2974 -31.5979 -21.8018 59.8772 
-31.0423 -21.4152 59.422 -32.9719 -21.0813 59.345 -32.5077 -21.4639 59.8582 
-33.6992 -21.2348 59.2309 -33.3594 -21.6451 59.9303 -34.0248 -21.5935 59.5552 
-35.6117 -21.334 59.7032 -35.3307 -21.59 59.3781 -36.1135 -21.4957 59.8361 
-30.8517 -21.14 58.4975 -30.5448 -21.6311 59.1501 -30.134 -21.6369 58.5418 
-31.8434 -20.995 58.3625 -32.6932 -20.9756 58.4962 -33.5741 -21.1255 58.4838 
-34.1816 -21.5137 58.7151 -35.844 -21.5944 59.224 -29.7642 -20.9811 57.4978 
-29.6367 -21.8229 57.9581 -29.1418 -21.4951 57.3786 -30.7789 -20.8281 57.5369 
-31.7562 -20.8963 57.4587 -32.7135 -21.0033 57.4669 -33.5489 -21.1604 57.493 
-34.1923 -21.5376 57.7074 -28.8307 -21.1085 56.724 -28.6788 -21.8126 56.9308 
-28.3854 -21.4913 56.2815 -32.8685 -20.8278 56.4158 -33.7717 -21.1272 56.382 
-34.3044 -21.511 56.7614 -28.5217 -20.9769 55.6158 -28.0725 -21.6199 55.5579 
-33.463 -20.8949 55.37 -34.5845 -21.4347 56.0144 -34.3848 -21.2461 55.3335 
-35.1243 -21.7688 55.404 -27.8946 -21.2124 54.6921 -27.6204 -21.8584 54.9201 
-27.3921 -21.5312 54.2222 -28.4901 -20.7888 54.5595 -32.9727 -20.942 54.5833 
-33.6398 -21.2169 54.5935 -34.3173 -21.4451 54.6242 -34.8422 -21.6474 54.879 
-27.8202 -21.018 53.7477 -27.2879 -21.6452 53.4743 -31.8573 -20.9697 53.1224 
-32.2353 -21.269 53.6195 -32.9312 -21.4157 53.9643 -33.7889 -21.5988 54.1397 
-27.6524 -20.9599 52.7896 -27.2709 -21.4702 52.4032 -31.9916 -20.8721 52.3301 
-32.4837 -21.4768 53.0353 -32.4372 -21.2959 52.6056 -33.0232 -21.7973 52.3945 
-26.9561 -21.4314 51.5815 -32.5117 -21.5034 51.978 -32.1422 -21.347 51.4485 
-26.5679 -21.557 51.1259 -26.3444 -21.4997 50.4649 -31.2263 -21.3756 50.2312 
-31.7407 -21.7854 50.9929 -26.5666 -21.4329 49.8069 -26.6253 -21.1103 49.0973 
-26.9036 -21.7772 49.4804 -30.6083 -21.0862 49.4132 -30.4578 -21.755 49.2081 
-30.7763 -21.707 49.7181 -26.8346 -20.9329 48.2655 -27.0246 -21.7129 48.6903 
-29.77 -20.7609 48.246 -30.1638 -21.3264 48.4599 -27.3507 -21.5757 47.7256 
-27.5979 -21.0159 47.3618 -30.1058 -21.582 47.4691 -27.9285 -21.2502 47.1235 
-28.7054 -21.663 46.9393 -29.604 -21.5881 46.9144 -34.7504 -22.213 61.4072 
-34.466 -22.7813 61.818 -34.0909 -22.4413 61.3378 -35.8072 -21.9731 61.2957 
-35.3826 -22.6552 62.0367 -36.9302 -22.1079 61.3648 -36.4165 -22.459 62.0467 
-37.8482 -22.1821 61.247 -37.5774 -22.6909 62.0161 -38.2609 -22.6249 61.5808 
-34.0384 -22.0547 60.5262 -33.7025 -22.482 60.996 -33.3191 -22.4283 60.5954 
-34.9039 -21.8448 60.7078 -36.6894 -21.8604 60.3926 -37.6868 -21.9942 60.4957 
-38.5992 -22.3872 61.1707 -38.7796 -22.077 60.4879 -39.9161 -22.1582 60.2091 
-39.6161 -22.6877 61.017 -40.3299 -22.6038 60.557 -30.8117 -21.8993 59.6254 
-31.0125 -22.6035 59.8064 -30.3818 -22.3529 59.2 -31.6666 -22.5087 60.0373 
-32.4534 -22.4221 60.1865 -34.6977 -21.7967 59.4711 -36.6711 -21.8876 59.1754 
-37.7041 -21.9959 59.4581 -38.7071 -21.9665 59.4852 -39.745 -21.9387 59.4183 
-40.59 -22.3828 60.0456 -40.6092 -22.1485 59.3893 -41.0252 -22.7638 59.6811 
-29.9967 -22.3436 58.5264 -34.8137 -21.9015 58.1733 -35.7329 -21.9393 58.5706 
-36.8447 -22.0484 58.2733 -37.7166 -22.0351 58.4381 -38.7147 -22.003 58.4598 
-39.7332 -21.9426 58.4267 -40.8131 -22.0341 58.3617 -41.3304 -22.6339 58.7719 
-29.6961 -22.7829 57.9974 -29.1714 -22.4041 57.3965 -34.8517 -21.9066 57.1454 
-35.492 -22.0763 57.5725 -36.3851 -22.1833 57.4328 -37.4486 -22.194 57.5988 
-38.4625 -22.1566 57.6027 -39.4802 -22.1271 57.5742 -40.5005 -22.0977 57.5529 
-41.6418 -22.3558 57.9831 -41.4173 -22.2131 57.4728 -42.0631 -22.808 57.4712 
-28.7485 -22.5861 56.8396 -28.3448 -22.3213 56.2453 -34.9915 -21.8034 56.2424 
-35.6631 -22.1562 56.5668 -36.3363 -22.4608 56.528 -37.0329 -22.5193 56.8749 
-37.9979 -22.5095 56.9625 -38.9908 -22.5064 56.9426 -40.0204 -22.6705 56.9343 
-40.9078 -22.4581 57.0771 -41.5104 -22.6283 57.0076 -27.9758 -22.3504 55.5093 
-35.5418 -22.1004 55.7048 -36.1757 -22.7024 55.5635 -27.6561 -22.7954 54.9892 
-27.2686 -22.2888 54.3277 -34.5652 -21.9482 54.1387 -35.256 -22.3859 54.4624 
-35.6826 -22.5093 54.9799 -27.1729 -22.526 53.4477 -32.9446 -21.7537 53.2007 
-33.7078 -21.8918 53.556 -34.4908 -22.2243 53.2375 -35.0519 -22.6388 53.5209 
-27.0635 -22.4807 52.4123 -33.778 -22.0852 52.5532 -34.4391 -22.4301 52.4747 
-34.8515 -22.6631 52.8345 -26.7414 -22.0769 51.6245 -26.6835 -22.8505 51.8917 
-26.3656 -22.3126 51.2253 -32.3028 -22.1708 51.4852 -33.0933 -22.5695 51.6633 
-33.5463 -22.2471 51.6759 -33.4588 -22.4884 51.3644 -33.9896 -22.6064 51.7409 
-26.2889 -22.7677 50.6314 -31.3949 -22.492 50.3476 -31.8849 -22.5711 50.9898 
-33.6891 -22.4827 51.294 -26.6636 -22.2674 50.0278 -27.0378 -22.5417 49.3297 
-28.7316 -22.2901 49.2531 -28.3898 -22.4796 49.215 -28.6065 -22.6781 49.6952 
-29.1009 -22.6855 49.597 -30.6444 -22.2258 49.3053 -30.9873 -22.3712 49.7133 
-27.3007 -22.6912 48.4 -28.5655 -22.2431 48.311 -28.0833 -22.6365 48.4767 
-29.1807 -22.5315 48.6951 -30.2331 -22.5475 48.4418 -30.7281 -22.8611 49.1137 
-27.6614 -22.6136 47.9455 -27.9936 -21.979 47.5229 -28.7466 -22.1579 47.3324 
-29.2634 -22.5703 47.7174 -30.0043 -22.3784 47.3266 -29.4474 -22.3469 47.0772 
-36.0184 -23.0375 62.534 -35.8062 -23.8141 62.8066 -35.3545 -23.3728 62.4476 
-36.9472 -22.9471 62.5441 -36.7197 -23.6103 62.8881 -37.5831 -23.082 62.5205 
-37.4633 -23.4722 62.7767 -38.0892 -23.6869 62.4659 -33.622 -22.8828 61.3348 
-33.8904 -23.6822 61.8525 -33.1838 -23.5098 61.3597 -34.7827 -23.4765 62.1794 
-39.0252 -22.9118 61.513 -38.7063 -23.4391 61.9372 -39.6264 -23.1361 61.5 
-39.4887 -23.4971 61.7351 -40.0858 -23.7062 61.4336 -32.8762 -23.0564 60.7896 
-32.6806 -23.847 60.935 -32.3335 -23.4273 60.4497 -40.8014 -22.8795 60.3338 
-40.5389 -23.2989 60.8622 -41.0295 -23.5742 60.3342 -30.5848 -23.0934 59.3665 
-30.9935 -23.46 59.6171 -31.674 -23.4819 60.0139 -41.3262 -23.6572 59.4943 
-30.6591 -23.8725 59.0866 -30.1649 -23.36 58.5667 -41.6576 -23.4019 58.7551 
-41.84 -22.8765 58.2358 -42.0333 -23.5927 58.2823 -29.7758 -23.6187 57.8184 
-29.4067 -23.4344 57.3426 -42.4637 -23.7035 57.6895 -28.6154 -23.1149 56.3274 
-28.9951 -23.3086 56.7645 -32.7268 -23.1206 56.4132 -32.2369 -23.3604 56.4242 
-32.9307 -23.6984 56.8119 -33.6177 -23.5964 56.8723 -33.4161 -23.2035 56.312 
-34.1011 -23.6425 56.6402 -36.7955 -22.8027 56.1056 -37.6756 -22.8662 56.2963 
-38.5351 -22.8312 56.4325 -39.3715 -23.0891 56.2782 -40.191 -23.6704 56.3443 
-40.8404 -23.1618 56.7346 -41.8278 -23.0903 56.6658 -41.1965 -23.5004 56.4872 
-42.5974 -23.2608 56.9375 -42.5277 -23.2789 56.3489 -43.0583 -23.7865 56.5018 
-28.6882 -23.8693 56.0627 -28.1864 -23.3756 55.537 -31.8366 -23.0784 55.466 
-31.1194 -23.5065 55.4073 -31.819 -23.8028 56.0175 -32.7758 -23.0824 55.5142 
-33.3945 -23.3585 55.6205 -33.8828 -23.5231 56.1177 -36.7356 -23.0096 55.5202 
-37.394 -23.1401 55.5464 -38.5026 -23.1903 55.6618 -39.3054 -23.4566 55.5775 
-39.7701 -23.7157 55.8538 -41.7759 -23.654 56.0439 -42.7678 -23.6155 55.8814 
-27.7542 -23.6497 54.8205 -27.3605 -23.3938 54.2397 -30.9719 -23.1269 54.5395 
-30.3425 -23.4916 54.2512 -30.6102 -23.8406 54.9724 -31.6405 -22.9366 54.4616 
-32.3318 -23.1429 54.3996 -33.1415 -23.4715 54.8108 -35.6568 -23.0811 54.2897 
-36.1983 -23.5109 54.423 -36.937 -23.5716 54.9272 -37.9747 -23.6691 55.0314 
-38.9483 -23.8063 55.1054 -27.194 -23.3818 53.3305 -30.6549 -23.0507 53.3399 
-30.036 -23.6006 53.5534 -31.6464 -23.0747 53.551 -32.3744 -23.4313 53.5105 
-32.8575 -23.5878 54.0098 -35.4076 -23.4058 53.512 -35.7877 -23.6902 53.8296 
[...]
CELL_DATA 38172
SCALARS scalars float
LOOKUP_TABLE default
1008 1008 1008 1008 1008 1008 1008 1008 1008 
1008 1008 1008 1008 1008 1008 1008 1008 1008 
1008 1008 1008 1008 1008 1008 1008 1008 1008 
1008 1008 1008 1008 1008 1008 1008 1008 1008 
1008 1008 1008 1008 1008 1008 1008 1008 1008 
1008 1008 1008 1008 1008 1008 1008 1008 1008 
1008 1008 1008 1008 1008 1008 1008 1008 1008 
1008 1008 1008 1008 1008 1008 1008 1008 1008 
1008 1008 1008 1008 1008 1008 1008 1008 1008 
1008 1008 1008 1008 1008 1008 1008 1008 1008 
1008 1008 1008 1008 1008 1008 1008 1008 1008 
1008 1008 1008 1008 1008 1008 1008 1008 1008 
1008 1008 1008 1008 1008 1008 1008 1008 1008 
1008 1008 1008 1008 1008 1008 1008 1008 1008 
1008 1008 1008 1008 1008 1008 1008 1008 1008 
1008 1008 1008 1008 1008 1008 1008 1008 1008 
1008 1008 1008 1008 1008 1008 1008 1008 1008 
1008 1008 1008 1008 1008 1008 1008 1008 1008 
1008 1008 1008 1008 1008 1008 1008 1008 1008 
1008 1008 1008 1008 1008 1008 1008 1008 1008 
1008 1008 1008 1008 1008 1008 1008 1008 1008 
1008 1008 1008 1008 1008 1008 1008 1008 1008 
1008 1008 1008 1008 1008 1008 1008 1008 1008 
1008 1008 1008 1008 1008 1008 1008 1008 1008 
1008 1008 1008 1008 1008 1008 1008 1008 1008 
1008 1008 1008 1008 1008 1008 1008 1008 1008 
1008 1008 1008 1008 1008 1008 1008 1008 1008 
1008 1008 1008 1008 1008 1008 1008 1008 1008 
1008 1008 1008 1008 1008 1008 1008 1008 1008 
1008 1008 1008 1008 1008 1008 1008 1008 1008 
1008 1008 1008 1008 1008 1008 1008 1008 1008 
1008 1008 1008 1008 1008 1008 1008 1008 1008 
1008 1008 1008 1008 1008 1008 1008 1008 1008 
1008 1008 1008 1008 1008 1008 1008 1008 1008 
1008 1008 1008 1008 1008 1008 1008 1008 1008 
1008 1008 1008 1008 1008 1008 1008 1008 1008 
1008 1008 1008 1008 1008 1008 1008 1008 1008 
1008 1008 1008 1008 1008 1008 1008 1008 1008 
1008 1008 1008 1008 1008 1008 1008 1008 1008 
1008 1008 1008 1008 1008 1008 1008 1008 1008 
1008 1008 1008 1008 1008 1008 1008 1008 1008 
1008 1008 1008 1008 1008 1008 1008 1008 1008 
1008 1008 1008 1008 1008 1008 1008 1008 1008 
1008 1008 1008 1008 1008 1008 1008 1008 1008 
1008 1008 1008 1008 1008 1008 1008 1008 1008 
1008 1008 1008 1008 1008 1008 1008 1008 1008 
1008 1008 1008 1008 1008 1008 1008 1008 1008 
1008 1008 1008 1008 1008 1008 1008 1008 1008 
1008 1008 1008 1008 1008 1008 1008 1008 1008 
1008 1008 1008 1008 1008 1008 1008 1008 1008 
1008 1008 1008 1008 1008 1008 1008 1008 1008 
1008 1008 1008 1008 1008 1008 1008 1008 1008 
1008 1008 1008 1008 1008 1008 1008 1008 1008 
1008 1008 1008 1008 1008 1008 1008 1008 1008 
1008 1008 1008 1008 1008 1008 1008 1008 1008 
1008 1008 1008 1008 1008 1008 1008 1008 1008 
1008 1008 1008 1008 1008 1008 1008 1008 1008 
1008 1008 1008 1008 1008 1008 1008 1008 1008 
1008 1008 1008 1008 1008 1008 1008 1008 1008 
1008 1008 1008 1008 1008 1008 1008 1008 1008 
1008 1008 1008 1008 1008 1008 1008 1008 1008 
1008 1008 1008 1008 1008 1008 1008 1008 1008 
1008 1008 1008 1008 1008 1008 1008 1008 1008 
1008 1008 1008 1008 1008 1008 1008 1008 1008 
1008 1008 1008 1008 1008 1008 1008 1008 1008 
1008 1008 1008 1008 1008 1008 1008 1008 1008 
1008 1008 1008 1008 1008 1008 1008 1008 1008 
1008 1008 1008 1008 1008 1008 1008 1008 1008 
1008 1008 1008 1008 1008 1008 1008 1008 1008 
1008 1008 1008 1008 1008 1008 1008 1008 1008 
1008 1008 1008 1008 1008 1008 1008 1008 1008 
1008 1008 1008 1008 1008 1008 1008 1008 1008 
1008 1008 1008 1008 1008 1008 1008 1008 1008 
1008 1008 1008 1008 1008 1008 1008 1008 1008 
1008 1008 1008 1008 1008 1008 1008 1008 1008 
1008 1008 1008 1008 1008 1008 1008 1008 1008 
1008 1008 1008 1008 1008 1008 1008 1008 1008 
1008 1008 1008 1008 1008 1008 1008 1008 1008 
1008 1008 1008 1008 1008 1008 1008 1008 1008 
1008 1008 1008 1008 1008 1008 1008 1008 1008 
1008 1008 1008 1008 1008 1008 1008 1008 1008 
1008 1008 1008 1008 1008 1008 1008 1008 1008 
1008 1008 1008 1008 1008 1008 1008 1008 1008 
1008 1008 1008 1008 1008 1008 1008 1008 1008 
1008 1008 1008 1008 1008 1008 1008 1008 1008 
1008 1008 1008 1008 1008 1008 1008 1008 1008 
1008 1008 1008 1008 1008 1008 1008 1008 1008 
1008 1008 1008 1008 1008 1008 1008 1008 1008 
1008 1008 1008 1008 1008 1008 1008 1008 1008 
1008 1008 1008 1008 1008 1008 1008 1008 1008 
1008 1008 1008 1008 1008 1008 1008 1008 1008 
1008 1008 1008 1008 1008 1008 1008 1008 1008 
1008 1008 1008 1008 1008 1008 1008 1008 1008 
1008 1008 1008 1008 1008 1008 1008 1008 1008 
1008 1008 1008 1008 1008 1008 1008 1008 1008 
1008 1008 1008 1008 1008 1008 1008 1008 1008 
1008 1008 1008 1008 1008 1008 1008 1008 1008 
1008 1008 1008 1008 1008 1008 1008 1008 1008 
1008 1008 1008 1008 1008 1008 1008 1008 1008 
1008 1008 1008 1008 1008 1008 1008 1008 1008 
1008 1008 1008 1008 1008 1008 1008 1008 1008 
1008 1008 1008 1008 1008 1008 1008 1008 1008 
1008 1008 1008 1008 1008 1008 1008 1008 1008 
1008 1008 1008 1008 1008 1008 1008 1008 1008 
1008 1008 1008 1008 1008 1008 1008 1008 1008 
1008 1008 1008 1008 1008 1008 1008 1008 1008 
1008 1008 1008 1008 1008 1008 1008 1008 1008 
1008 1008 1008 1008 1008 1008 1008 1008 1008 
1008 1008 1008 1008 1008 1008 1008 1008 1008 
1008 1008 1008 1008 1008 1008 1008 1008 1008 
1008 1008 1008 1008 1008 1008 1008 1008 1008 
1008 1008 1008 1008 1008 1008 1008 1008 1008 
1008 1008 1008 1008 1008 1008 1008 1008 1008 
1008 1008 1008 1008 1008 1008 1008 1008 1008 
1008 1008 1008 1008 1008 1008 1008 1008 1008 
1008 1008 1008 1008 1008 1008 1008 1008 1008 
1008 1008 1008 1008 1008 1008 1008 1008 1008 
1008 1008 1008 1008 1008 1008 1008 1008 1008 
1008 1008 1008 1008 1008 1008 1008 1008 1008 
1008 1008 1008 1008 1008 1008 1008 1008 1008 
1008 1008 1008 1008 1008 1008 1008 1008 1008 
1008 1008 1008 1008 1008 1008 1008 1008 1008 
1008 1008 1008 1008 1008 1008 1008 1008 1008 
1008 1008 1008 1008 1008 1008 1008 1008 1008 
1008 1008 1008 1008 1008 1008 1008 1008 1008 
1008 1008 1008 1008 1008 1008 1008 1008 1008 
1008 1008 1008 1008 1008 1008 1008 1008 1008 
1008 1008 1008 1008 1008 1008 1008 1008 1008 
1008 1008 1008 1008 1008 1008 1008 1008 1008 
1008 1008 1008 1008 1008 1008 1008 1008 1008 
1008 1008 1008 1008 1008 1008 1008 1008 1008 
1008 1008 1008 1008 1008 1008 1008 1008 1008 
1008 1008 1008 1008 1008 1008 1008 1008 1008 
1008 1008 1008 1008 1008 1008 1008 1008 1008 
1008 1008 1008 1008 1008 1008 1008 1008 1008 
1008 1008 1008 1008 1008 1008 1008 1008 1008 
1008 1008 1008 1008 1008 1008 1008 1008 1008 
1008 1008 1008 1008 1008 1008 1008 1008 1008 
1008 1008 1008 1008 1008 1008 1008 1008 1008 
1008 1008 1008 1008 1008 1008 1008 1008 1008 
1008 1008 1008 1008 1008 1008 1008 1008 1008 
1008 1008 1008 1008 1008 1008 1008 1008 1008 
1008 1008 1008 1008 1008 1008 1008 1008 1008 
1008 1008 1008 1008 1008 1008 1008 1008 1008 
1008 1008 1008 1008 1008 1008 1008 1008 1008 
1008 1008 1008 1008 1008 1008 1008 1008 1008 
1008 1008 1008 1008 1008 1008 1008 1008 1008 
1008 1008 1008 1008 1008 1008 1008 1008 1008 
1008 1008 1008 1008 1008 1008 1008 1008 1008 
1008 1008 1008 1008 1008 1008 1008 1008 1008 
1008 1008 1008 1008 1008 1008 1008 1008 1008 
1008 1008 1008 1008 1008 1008 1008 1008 1008 
1008 1008 1008 1008 1008 1008 1008 1008 1008 
1008 1008 1008 1008 1008 1008 1008 1008 1008 
1008 1008 1008 1008 1008 1008 1008 1008 1008 
1008 1008 1008 1008 1008 1008 1008 1008 1008 
1008 1008 1008 1008 1008 1008 1008 1008 1008 
1008 1008 1008 1008 1008 1008 1008 1008 1008 
1008 1008 1008 1008 1008 1008 1008 1008 1008 
1008 1008 1008 1008 1008 1008 1008 1008 1008 
1008 1008 1008 1008 1008 1008 1008 1008 1008 
1008 1008 1008 1008 1008 1008 1008 1008 1008 
1008 1008 1008 1008 1008 1008 1008 1008 1008 
1008 1008 1008 1008 1008 1008 1008 1008 1008 
1008 1008 1008 1008 1008 1008 1008 1008 1008 
1008 1008 1008 1008 1008 1008 1008 1008 1008 
1008 1008 1008 1008 1008 1008 1008 1008 1008 
1008 1008 1008 1008 1008 1008 1008 1008 1008 
1008 1008 1008 1008 1008 1008 1008 1008 1008 
1008 1008 1008 1008 1008 1008 1008 1008 1008 
1008 1008 1008 1008 1008 1008 1008 1008 1008 
1008 1008 1008 1008 1008 1008 1008 1008 1008 
1008 1008 1008 1008 1008 1008 1008 1008 1008 
1008 1008 1008 1008 1008 1008 1008 1008 1008 
1008 1008 1008 1008 1008 1008 1008 1008 1008 
1008 1008 1008 1008 1008 1008 1008 1008 1008 
1008 1008 1008 1008 1008 1008 1008 1008 1008 
1008 1008 1008 1008 1008 1008 1008 1008 1008 
1008 1008 1008 1008 1008 1008 1008 1008 1008 
1008 1008 1008 1008 1008 1008 1008 1008 1008 
1008 1008 1008 1008 1008 1008 1008 1008 1008 
1008 1008 1008 1008 1008 1008 1008 1008 1008 
1008 1008 1008 1008 1008 1008 1008 1008 1008 
1008 1008 1008 1008 1008 1008 1008 1008 1008 
1008 1008 1008 1008 1008 1008 1008 1008 1008 
1008 1008 1008 1008 1008 1008 1008 1008 1008 
1008 1008 1008 1008 1008 1008 1008 1008 1008 
1008 1008 1008 1008 1008 1008 1008 1008 1008 
1008 1008 1008 1008 1008 1008 1008 1008 1008 
1008 1008 1008 1008 1008 1008 1008 1008 1008 
1008 1008 1008 1008 1008 1008 1008 1008 1008 
1008 1008 1008 1008 1008 1008 1008 1008 1008 
1008 1008 1008 1008 1008 1008 1008 1008 1008 
1008 1008 1008 1008 1008 1008 1008 1008 1008 
1008 1008 1008 1008 1008 1008 1008 1008 1008 
1008 1008 1008 1008 1008 1008 1008 1008 1008 
1008 1008 1008 1008 1008 1008 1008 1008 1008 
1008 1008 1008 1008 1008 1008 1008 1008 1008 
1008 1008 1008 1008 1008 1008 1008 1008 1008 
1008 1008 1008 1008 1008 1008 1008 1008 1008 
1008 1008 1008 1008 1008 1008 1008 1008 1008 
1008 1008 1008 1008 1008 1008 1008 1008 1008 
1008 1008 1008 1008 1008 1008 1008 1008 1008 
1008 1008 1008 1008 1008 1008 1008 1008 1008 
1008 1008 1008 1008 1008 1008 1008 1008 1008 
1008 1008 1008 1008 1008 1008 1008 1008 1008 
1008 1008 1008 1008 1008 1008 1008 1008 1008 
1008 1008 1008 1008 1008 1008 1008 1008 1008 
1008 1008 1008 1008 1008 1008 1008 1008 1008 
1008 1008 1008 1008 1008 1008 1008 1008 1008 
1008 1008 1008 1008 1008 1008 1008 1008 1008 
1008 1008 1008 1008 1008 1008 1008 1008 1008 
1008 1008 1008 1008 1008 1008 1008 1008 1008 
1008 1008 1008 1008 1008 1008 1008 1008 1008 
1008 1008 1008 1008 1008 1008 1008 1008 1008 
1008 1008 1008 1008 1008 1008 1008 1008 1008 
1008 1008 1008 1008 1008 1008 1008 1008 1008 
1008 1008 1008 1008 1008 1008 1008 1008 1008 
1008 1008 1008 1008 1008 1008 1008 1008 1008 
1008 1008 1008 1008 1008 1008 1008 1008 1008 
1008 1008 1008 1008 1008 1008 1008 1008 1008 
1008 1008 1008 1008 1008 1008 1008 1008 1008 
1008 1008 1008 1008 1008 1008 1008 1008 1008 
1008 1008 1008 1008 1008 1008 1008 1008 1008 
1008 1008 1008 1008 1008 1008 1008 1008 1008 
1008 1008 1008 1008 1008 1008 1008 1008 1008 
1008 1008 1008 1008 1008 1008 1008 1008 1008 
1008 1008 1008 1008 1008 1008 1008 1008 1008 
1008 1008 1008 1008 1008 1008 1008 1008 1008 
1008 1008 1008 1008 1008 1008 1008 1008 1008 
1008 1008 1008 1008 1008 1008 1008 1008 1008 
1008 1008 1008 1008 1008 1008 1008 1008 1008 
1008 1008 1008 1008 1008 1008 1008 1008 1008 
1008 1008 1008 1008 1008 1008 1008 1008 1008 
1008 1008 1008 1008 1008 1008 1008 1008 1008 
1008 1008 1008 1008 1008 1008 1008 1008 1008 
1008 1008 1008 1008 1008 1008 1008 1008 1008 
1008 1008 1008 1008 1008 1008 1008 1008 1008 
1008 1008 1008 1008 1008 1008 1008 1008 1008 
1008 1008 1008 1008 1008 1008 1008 1008 1008 
1008 1008 1008 1008 1008 1008 1008 1008 1008 
1008 1008 1008 1008 1008 1008 1008 1008 1008 
1008 1008 1008 1008 1008 1008 1008 1008 1008 
1008 1008 1008 1008 1008 1008 1008 1008 1008 
1008 1008 1008 1008 1008 1008 1008 1008 1008 
1008 1008 1008 1008 1008 1008 1008 1008 1008 
1008 1008 1008 1008 1008 1008 1008 1008 1008 
1008 1008 1008 1008 1008 1008 1008 1008 1008 
1008 1008 1008 1008 1008 1008 1008 1008 1008 
1008 1008 1008 1008 1008 1008 1008 1008 1008 
1008 1008 1008 1008 1008 1008 1008 1008 1008 
1008 1008 1008 1008 1008 1008 1008 1008 1008 
1008 1008 1008 1008 1008 1008 1008 1008 1008 
1008 1008 1008 1008 1008 1008 1008 1008 1008 
1008 1008 1008 1008 1008 1008 1008 1008 1008 
1008 1008 1008 1008 1008 1008 1008 1008 1008 
1008 1008 1008 1008 1008 1008 1008 1008 1008 
1008 1008 1008 1008 1008 1008 1008 1008 1008 
1008 1008 1008 1008 1008 1008 1008 1008 1008 
1008 1008 1008 1008 1008 1008 1008 1008 1008 
1008 1008 1008 1008 1008 1008 1008 1008 1008 
1008 1008 1008 1008 1008 1008 1008 1008 1008 
1008 1008 1008 1008 1008 1008 1008 1008 1008 
1008 1008 1008 1008 1008 1008 1008 1008 1008 
1008 1008 1008 1008 1008 1008 1008 1008 1008 
1008 1008 1008 1008 1008 1008 1008 1008 1008 
1008 1008 1008 1008 1008 1008 1008 1008 1008 
1008 1008 1008 1008 1008 1008 1008 1008 1008 
1008 1008 1008 1008 1008 1008 1008 1008 1008 
1008 1008 1008 1008 1008 1008 1008 1008 1008 
1008 1008 1008 1008 1008 1008 1008 1008 1008 
1008 1008 1008 1008 1008 1008 1008 1008 1008 
1008 1008 1008 1008 1008 1008 1008 1008 1008 
1008 1008 1008 1008 1008 1008 1008 1008 1008 
1008 1008 1008 1008 1008 1008 1008 1008 1008 
1008 1008 1008 1008 1008 1008 1008 1008 1008 
1008 1008 1008 1008 1008 1008 1008 1008 1008 
1008 1008 1008 1008 1008 1008 1008 1008 1008 
1008 1008 1008 1008 1008 1008 1008 1008 1008 
1008 1008 1008 1008 1008 1008 1008 1008 1008 
1008 1008 1008 1008 1008 1008 1008 1008 1008 
1008 1008 1008 1008 1008 1008 1008 1008 1008 
1008 1008 1008 1008 1008 1008 1008 1008 1008 
1008 1008 1008 1008 1008 1008 1008 1008 1008 
1008 1008 1008 1008 1008 1008 1008 1008 1008 
1008 1008 1008 1008 1008 1008 1008 1008 1008 
1008 1008 1008 1008 1008 1008 1008 1008 1008 
1008 1008 1008 1008 1008 1008 1008 1008 1008 
1008 1008 1008 1008 1008 1008 1008 1008 1008 
1008 1008 1008 1008 1008 1008 1008 1008 1008 
1008 1008 1008 1008 1008 1008 1008 1008 1008 
1008 1008 1008 1008 1008 1008 1008 1008 1008 
1008 1008 1008 1008 1008 1008 1008 1008 1008 
1008 1008 1008 1008 1008 1008 1008 1008 1008 
1008 1008 1008 1008 1008 1008 1008 1008 1008 
1008 1008 1008 1008 1008 1008 1008 1008 1008 
1008 1008 1008 1008 1008 1008 1008 1008 1008 
1008 1008 1008 1008 1008 1008 1008 1008 1008 
1008 1008 1008 1008 1008 1008 1008 1008 1008 
1008 1008 1008 1008 1008 1008 1008 1008 1008 
1008 1008 1008 1008 1008 1008 1008 1008 1008 
1008 1008 1008 1008 1008 1008 1008 1008 1008 
1008 1008 1008 1008 1008 1008 1008 1008 1008 
1008 1008 1008 1008 1008 1008 1008 1008 1008 
1008 1008 1008 1008 1008 1008 1008 1008 1008 
1008 1008 1008 1008 1008 1008 1008 1008 1008 
1008 1008 1008 1008 1008 1008 1008 1008 1008 
1008 1008 1008 1008 1008 1008 1008 1008 1008 
1008 1008 1008 1008 1008 1008 1008 1008 1008 
1008 1008 1008 1008 1008 1008 1008 1008 1008 
1008 1008 1008 1008 1008 1008 1008 1008 1008 
1008 1008 1008 1008 1008 1008 1008 1008 1008 
1008 1008 1008 1008 1008 1008 1008 1008 1008 
1008 1008 1008 1008 1008 1008 1008 1008 1008 
1008 1008 1008 1008 1008 1008 1008 1008 1008 
1008 1008 1008 1008 1008 1008 1008 1008 1008 
1008 1008 1008 1008 1008 1008 1008 1008 1008 
1008 1008 1008 1008 1008 1008 1008 1008 1008 
1008 1008 1008 1008 1008 1008 1008 1008 1008 
1008 1008 1008 1008 1008 1008 1008 1008 1008 
1008 1008 1008 1008 1008 1008 1008 1008 1008 
1008 1008 1008 1008 1008 1008 1008 1008 1008 
1008 1008 1008 1008 1008 1008 1008 1008 1008 
1008 1008 1008 1008 1008 1008 1008 1008 1008 
1008 1008 1008 1008 1008 1008 1008 1008 1008 
1008 1008 1008 1008 1008 1008 1008 1008 1008 
1008 1008 1008 1008 1008 1008 1008 1008 1008 
1008 1008 1008 1008 1008 1008 1008 1008 1008 
1008 1008 1008 1008 1008 1008 1008 1008 1008 
1008 1008 1008 1008 1008 1008 1008 1008 1008 
1008 1008 1008 1008 1008 1008 1008 1008 1008 
1008 1008 1008 1008 1008 1008 1008 1008 1008 
1008 1008 1008 1008 1008 1008 1008 1008 1008 
1008 1008 1008 1008 1008 1008 1008 1008 1008 
1008 1008 1008 1008 1008 1008 1008 1008 1008 
1008 1008 1008 1008 1008 1008 1008 1008 1008 
1008 1008 1008 1008 1008 1008 1008 1008 1008 
1008 1008 1008 1008 1008 1008 1008 1008 1008 
1008 1008 1008 1008 1008 1008 1008 1008 1008 
1008 1008 1008 1008 1008 1008 1008 1008 1008 
1008 1008 1008 1008 1008 1008 1008 1008 1008 
1008 1008 1008 1008 1008 1008 1008 1008 1008 
1008 1008 1008 1008 1008 1008 1008 1008 1008 
1008 1008 1008 1008 1008 1008 1008 1008 1008 
1008 1008 1008 1008 1008 1008 1008 1008 1008 
1008 1008 1008 1008 1008 1008 1008 1008 1008 
1008 1008 1008 1008 1008 1008 1008 1008 1008 
1008 1008 1008 1008 1008 1008 1008 1008 1008 
1008 1008 1008 1008 1008 1008 1008 1008 1008 
1008 1008 1008 1008 1008 1008 1008 1008 1008 
1008 1008 1008 1008 1008 1008 1008 1008 1008 
1008 1008 1008 1008 1008 1008 1008 1008 1008 
1008 1008 1008 1008 1008 1008 1008 1008 1008 
1008 1008 1008 1008 1008 1008 1008 1008 1008 
1008 1008 1008 1008 1008 1008 1008 1008 1008 
1008 1008 1008 1008 1008 1008 1008 1008 1008 
1008 1008 1008 1008 1008 1008 1008 1008 1008 
1008 1008 1008 1008 1008 1008 1008 1008 1008 
1008 1008 1008 1008 1008 1008 1008 1008 1008 
1008 1008 1008 1008 1008 1008 1008 1008 1008 
1008 1008 1008 1008 1008 1008 1008 1008 1008 
1008 1008 1008 1008 1008 1008 1008 1008 1008 
1008 1008 1008 1008 1008 1008 1008 1008 1008 
1008 1008 1008 1008 1008 1008 1008 1008 1008 
1008 1008 1008 1008 1008 1008 1008 1008 1008 
1008 1008 1008 1008 1008 1008 1008 1008 1008 
1008 1008 1008 1008 1008 1008 1008 1008 1008 
1008 1008 1008 1008 1008 1008 1008 1008 1008 
1008 1008 1008 1008 1008 1008 1008 1008 1008 
1008 1008 1008 1008 1008 1008 1008 1008 1008 
1008 1008 1008 1008 1008 1008 1008 1008 1008 
1008 1008 1008 1008 1008 1008 1008 1008 1008 
1008 1008 1008 1008 1008 1008 1008 1008 1008 
1008 1008 1008 1008 1008 1008 1008 1008 1008 
1008 1008 1008 1008 1008 1008 1008 1008 1008 
1008 1008 1008 1008 1008 1008 1008 1008 1008 
1008 1008 1008 1008 1008 1008 1008 1008 1008 
1008 1008 1008 1008 1008 1008 1008 1008 1008 
1008 1008 1008 1008 1008 1008 1008 1008 1008 
1008 1008 1008 1008 1008 1008 1008 1008 1008 
1008 1008 1008 1008 1008 1008 1008 1008 1008 
1008 1008 1008 1008 1008 1008 1008 1008 1008 
1008 1008 1008 1008 1008 1008 1008 1008 1008 
1008 1008 1008 1008 1008 1008 1008 1008 1008 
1008 1008 1008 1008 1008 1008 1008 1008 1008 
1008 1008 1008 1008 1008 1008 1008 1008 1008 
1008 1008 1008 1008 1008 1008 1008 1008 1008 
1008 1008 1008 1008 1008 1008 1008 1008 1008 
1008 1008 1008 1008 1008 1008 1008 1008 1008 
1008 1008 1008 1008 1008 1008 1008 1008 1008 
1008 1008 1008 1008 1008 1008 1008 1008 1008 
1008 1008 1008 1008 1008 1008 1008 1008 1008 
1008 1008 1008 1008 1008 1008 1008 1008 1008 
1008 1008 1008 1008 1008 1008 1008 1008 1008 
1008 1008 1008 1008 1008 1008 1008 1008 1008 
1008 1008 1008 1008 1008 1008 1008 1008 1008 
1008 1008 1008 1008 1008 1008 1008 1008 1008 
1008 1008 1008 1008 1008 1008 1008 1008 1008 
1008 1008 1008 1008 1008 1008 1008 1008 1008 
1008 1008 1008 1008 1008 1008 1008 1008 1008 
1008 1008 1008 1008 1008 1008 1008 1008 1008 
1008 1008 1008 1008 1008 1008 1008 1008 1008 
1008 1008 1008 1008 1008 1008 1008 1008 1008 
1008 1008 1008 1008 1008 1008 1008 1008 1008 
1008 1008 1008 1008 1008 1008 1008 1008 1008 
1008 1008 1008 1008 1008 1008 1008 1008 1008 
1008 1008 1008 1008 1008 1008 1008 1008 1008 
1008 1008 1008 1008 1008 1008 1008 1008 1008 
1008 1008 1008 1008 1008 1008 1008 1008 1008 
1008 1008 1008 1008 1008 1008 1008 1008 1008 
1008 1008 1008 1008 1008 1008 1008 1008 1008 
1008 1008 1008 1008 1008 1008 1008 1008 1008 
1008 1008 1008 1008 1008 1008 1008 1008 1008 
1008 1008 1008 1008 1008 1008 1008 1008 1008 
1008 1008 1008 1008 1008 1008 1008 1008 1008 
1008 1008 1008 1008 1008 1008 1008 1008 1008 
1008 1008 1008 1008 1008 1008 1008 1008 1008 
1008 1008 1008 1008 1008 1008 1008 1008 1008 
1008 1008 1008 1008 1008 1008 1008 1008 1008 
1008 1008 1008 1008 1008 1008 1008 1008 1008 
1008 1008 1008 1008 1008 1008 1008 1008 1008 
1008 1008 1008 1008 1008 1008 1008 1008 1008 
1008 1008 1008 1008 1008 1008 1008 1008 1008 
1008 1008 1008 1008 1008 1008 1008 1008 1008 
1008 1008 1008 1008 1008 1008 1008 1008 1008 
1008 1008 1008 1008 1008 1008 1008 1008 1008 
1008 1008 1008 1008 1008 1008 1008 1008 1008 
1008 1008 1008 1008 1008 1008 1008 1008 1008 
1008 1008 1008 1008 1008 1008 1008 1008 1008 
1008 1008 1008 1008 1008 1008 1008 1008 1008 
1008 1008 1008 1008 1008 1008 1008 1008 1008 
1008 1008 1008 1008 1008 1008 1008 1008 1008 
1008 1008 1008 1008 1008 1008 1008 1008 1008 