# vtk DataFile Version 4.2
vtk output
ASCII
DATASET POLYDATA
POINTS 25874 float
-23.6361 84.6579 -3.51154 -23.5909 84.3903 -3.10066 -23.4245 84.2131 -3.69153 
-23.9112 84.5053 -3.33846 -23.8364 84.4995 -3.8072 -24.6875 83.625 8.47963 
-24.7203 83.2132 8.92528 -24.5337 83.3423 8.41182 -25.1491 83.2997 8.34341 
-24.7152 83.4773 8.27145 -24.8893 83.8506 -1.72128 -24.507 83.2351 -1.18996 
-24.11 83.5725 -1.6088 -25.7174 83.8202 -1.71817 -25.5929 83.2188 -0.980532 
-26.2325 83.3997 -1.49678 -24.0418 84.0183 -2.48077 -23.6972 83.5401 -1.9533 
-23.302 83.6161 -2.69729 -24.9064 84.0506 -2.68591 -25.6075 83.9223 -2.49254 
-26.2262 83.5633 -2.25315 -23.0346 83.3371 -3.74846 -24.5632 84.1697 -3.70903 
-25.5847 83.8921 -3.53043 -26.2471 83.5293 -3.24032 -23.94 84.129 -4.53407 
-23.3237 83.6817 -4.58683 -24.687 84.0444 -4.63957 -25.406 83.8319 -4.64042 
-26.2167 83.4863 -4.22516 -23.6897 83.8027 -5.35129 -23.346 83.3094 -5.34187 
-24.5453 83.8524 -5.39164 -25.3579 83.5981 -5.4415 -25.9649 83.445 -4.99805 
-23.7535 83.3545 -6.04858 -24.8034 83.4836 -5.94808 -21.6264 83.6185 -9.46591 
-21.579 83.3897 -9.06287 -21.4003 83.1836 -9.61525 -21.8907 83.4838 -9.29882 
-21.8066 83.4641 -9.7327 -22.6965 83.5208 -10.2512 -22.3058 83.4713 -10.7421 
-22.7879 83.675 -10.7477 -23.071 83.4649 -10.4328 -22.657 83.6877 -11.3377 
-22.3656 83.4445 -11.6672 -23.1808 83.5328 -11.2106 -22.8734 83.4792 -11.8466 
-24.0021 82.8152 9.35692 -23.599 82.4985 9.82114 -23.311 82.5548 9.4604 
-24.6467 82.9257 9.51641 -24.6367 82.3325 10.0206 -25.2485 82.5761 9.51545 
-23.4047 82.3406 9.0228 -24.1938 82.7056 8.50205 -25.8256 82.8774 8.2485 
-25.557 82.816 8.91097 -26.0899 82.236 8.70773 -24.8193 82.9157 7.96896 
-25.7113 82.9273 7.36162 -24.9711 82.5824 7.29707 -26.3585 82.3606 7.82734 
-25.0893 82.7882 6.56329 -24.5557 82.3803 6.86655 -24.4686 82.4159 6.2964 
-25.7356 83.0508 6.47474 -26.6111 82.6311 7.0504 -26.4046 82.8597 6.34293 
-27.0645 82.18 6.59439 -24.8859 82.6019 5.86938 -25.1533 82.3665 5.10272 
-25.6829 82.8755 5.62233 -26.4175 82.6764 5.48297 -26.8625 82.4175 5.84793 
-25.639 82.7141 4.66728 -25.4199 82.2702 4.20677 -26.2365 82.3982 4.51797 
-25.7778 82.4186 4.00717 -22.5836 82.6138 0.487312 -22.6984 82.1478 0.729599 
-22.4285 82.3417 0.442881 -23.0793 82.2446 0.376571 -22.6037 82.4693 0.303187 
-25.7516 82.8106 -0.506017 -25.8895 82.3027 -0.270023 -25.2811 82.4586 -0.390805 
-26.243 82.5256 -0.504933 -23.6563 83.1153 -1.66721 -23.9636 82.6536 -1.11632 
-23.2455 82.4943 -1.51449 -24.6337 82.6443 -0.788737 -26.7491 82.9684 -1.81062 
-26.755 82.506 -0.983018 -27.2677 82.3589 -1.49923 -20.8439 82.7124 -2.41456 
-20.8229 82.2603 -2.28042 -20.4793 82.5324 -2.47129 -21.7358 82.7877 -2.6076 
-21.4326 82.5179 -2.18814 -22.8339 82.9426 -2.31256 -22.3365 82.3458 -1.96873 
-26.7466 83.0313 -2.76596 -27.2629 82.504 -2.26427 -20.8272 82.6216 -2.69424 
-21.511 82.3812 -3.15912 -22.159 82.4671 -3.52134 -22.5104 82.9285 -3.18789 
-26.7723 83.0073 -3.79892 -27.2675 82.5191 -3.29387 -22.5216 82.4304 -3.91939 
-23.056 82.8401 -4.62149 -26.6094 83.0114 -4.85505 -27.2686 82.4112 -4.46543 
-23.276 82.3545 -5.64397 -25.7077 83.2142 -5.69459 -26.4812 82.815 -5.77061 
-27.0396 82.3817 -5.47961 -22.6913 82.3326 -6.32055 -22.4802 82.4823 -6.52987 
-22.8886 82.7837 -6.38836 -23.4524 82.9229 -6.64707 -24.5662 83.034 -6.47504 
-25.653 82.8135 -6.412 -26.3387 82.328 -6.60263 -26.8091 82.3367 -6.13508 
-22.8598 82.4374 -6.71159 -23.8191 82.371 -6.99503 -24.9412 82.4751 -7.03871 
-25.7013 82.329 -7.02234 -22.0023 82.9922 -8.64182 -21.9481 82.3127 -8.1682 
-21.4557 82.7789 -8.76318 -22.8964 82.7903 -8.72015 -22.4543 82.5199 -8.11615 
-23.0932 82.3861 -8.28009 -21.0465 82.3526 -9.47468 -22.5913 83.2485 -9.72534 
-23.6464 82.5371 -8.78952 -23.8733 82.8795 -9.53285 -24.7585 82.7344 -9.73903 
-24.4139 82.471 -9.06493 -25.0902 82.411 -9.44343 -21.7589 83.1757 -10.3314 
-21.1616 82.6223 -10.6589 -23.7357 83.1722 -10.646 -24.6422 82.8658 -10.5103 
-25.2787 82.5187 -10.2633 -21.799 83.0164 -11.4929 -21.1584 82.502 -11.8839 
-23.5346 83.2006 -11.7736 -24.4025 82.8492 -11.6293 -25.2526 82.3344 -11.4332 
-21.7 82.7416 -12.375 -21.2802 82.4717 -12.5423 -22.5928 83.0284 -12.3529 
-23.6881 82.8326 -12.4684 -24.3636 82.3455 -12.6097 -24.8012 82.3437 -12.1253 
-21.7467 82.3776 -13.0091 -22.9711 82.532 -13.1011 -23.7639 82.3764 -13.0651 
-22.8492 81.8153 10.5136 -22.7349 81.1832 10.8235 -22.3285 81.5271 10.2812 
-23.7821 82.0529 10.419 -23.6674 81.4061 10.9118 -24.6485 81.8989 10.5443 
-24.5053 81.5297 10.8053 -25.1725 81.3007 10.4952 -22.8647 82.055 9.74814 
-22.416 81.2523 9.76139 -25.8489 82.1184 9.35187 -25.606 81.6943 9.8888 
-26.088 81.4043 9.36931 -22.9379 81.5364 9.08538 -23.5577 81.9866 8.21003 
-23.0062 81.4173 8.47126 -26.3795 81.349 8.51124 -23.0297 81.8132 7.50109 
-22.6182 81.3608 8.08184 -22.3341 81.3992 7.40456 -23.7202 81.9776 7.43133 
-24.3361 82.2434 7.55054 -26.7255 81.6224 7.82498 -26.8722 82.1195 7.32274 
-27.0872 81.4173 7.32629 -22.7897 81.8035 6.52152 -22.2708 81.2202 6.40597 
-23.8208 82.0692 6.61266 -27.2954 81.2731 6.65654 -22.7668 81.5973 5.83323 
-23.2607 81.4197 5.25789 -23.47 81.7937 5.71687 -24.3815 82.0525 5.61845 
-26.7916 82.1386 5.08181 -27.2039 81.5498 5.7451 -24.0442 81.4517 5.0265 
-24.748 81.6543 4.94102 -25.0521 81.6392 4.35047 -26.7571 81.9296 4.44891 
-27.108 81.2607 4.58043 -25.6687 81.9598 3.57575 -25.3006 81.4294 3.44055 
-26.1576 81.8186 3.58676 -26.7298 81.5274 3.87686 -26.002 81.2451 3.16668 
-22.9307 81.2804 0.808976 -22.4816 81.7595 0.569728 -24.0257 81.9197 0.3214 
-23.6259 81.5233 0.893556 -24.8621 81.85 0.221816 -24.4947 81.4667 0.760684 
-25.2183 81.2568 0.658887 -22.7451 81.8953 0.116451 -23.5907 82.0998 -0.552334 
-22.993 81.2977 -0.423264 -24.5003 82.1738 -0.279776 -25.7415 81.6028 0.0597965 
-26.7383 82.0015 -0.496159 -26.4652 81.6879 -0.23855 -27.1456 81.2967 -0.571194 
-22.888 81.8609 -1.26467 -22.6993 81.1077 -1.10031 -22.2993 81.3663 -1.72265 
-27.7706 81.9183 -1.84333 -27.5738 81.6754 -1.1443 -28.0363 81.2511 -1.52391 
-20.7422 82.1183 -2.72682 -21.0563 81.4642 -2.64349 -21.5744 81.828 -2.09284 
-27.7782 82.0226 -2.79756 -28.1494 81.3438 -2.2989 -21.229 81.3811 -3.55361 
-21.8255 82.0224 -3.6498 -27.7607 82.0255 -3.8396 -28.1473 81.4089 -3.3295 
-21.9301 81.6267 -4.11829 -22.767 81.9065 -4.66391 -22.177 81.406 -4.55477 
-27.687 81.861 -4.67426 -28.0499 81.3958 -4.27686 -22.6784 81.2087 -5.01276 
-23.5516 81.6464 -5.24082 -23.8413 81.7337 -5.52371 -23.9634 81.4759 -5.50415 
-27.3654 81.7199 -5.37239 -27.7268 81.1882 -5.03002 -22.5842 82.1989 -6.55817 
-23.1167 81.7017 -6.72555 -23.6038 81.3939 -5.87054 -26.7322 81.9919 -6.57048 
-27.0529 81.4619 -6.34457 -22.8476 81.2779 -7.31665 -22.5717 81.4119 -7.64153 
-22.8037 81.8976 -7.69927 -23.7763 81.9574 -7.59222 -24.7065 82.068 -7.68053 
-25.5453 81.9623 -7.64747 -26.1803 81.7369 -7.41732 -26.6905 81.5083 -7.06647 
-21.4695 82.006 -8.65873 -22.0497 81.461 -8.17499 -23.7679 82.1573 -8.32969 
-24.7793 82.079 -8.57749 -25.7569 81.8304 -8.58826 -26.2627 81.4696 -8.20791 
-20.4985 81.91 -9.72754 -20.8193 81.558 -9.02818 -20.1234 81.2767 -9.59919 
-21.451 81.4238 -8.68092 -25.7672 82.1099 -9.66461 -26.5592 81.5173 -8.93159 
-26.5931 81.7644 -9.59884 -27.0807 81.4137 -9.46074 -19.9741 81.8201 -10.4723 
-19.6695 81.311 -10.2368 -19.3576 81.4306 -10.9006 -20.6404 82.1682 -10.3379 
-25.8763 82.1664 -10.8099 -26.6084 81.8634 -10.5752 -27.2531 81.5002 -10.2937 
-19.7181 81.8653 -11.5682 -19.217 81.4901 -11.7307 -20.5108 82.1548 -11.2976 
-25.8466 82.0354 -11.4697 -26.4143 81.8042 -11.4645 -27.2532 81.3112 -11.4696 
-19.5742 81.7225 -12.3292 -19.3269 81.2132 -12.2917 -20.5467 82.0518 -12.4505 
-24.75 82.0072 -12.5633 -25.2316 81.509 -12.5585 -25.933 81.6228 -12.0737 
-26.6971 81.3426 -12.103 -19.9586 81.4202 -12.8025 -20.8815 81.663 -13.1607 
-21.5993 81.9433 -13.6059 -21.1886 81.401 -13.7432 -22.4071 82.0451 -13.7679 
-23.406 81.9415 -13.5759 -24.1693 81.7501 -13.3575 -24.7179 81.5097 -13.0703 
-21.7658 81.7639 -14.2448 -21.4287 81.1696 -14.498 -22.278 81.6345 -14.4327 
-23.0328 81.3168 -14.1634 -23.9185 81.1865 -13.8568 -21.9728 81.2829 -14.8196 
-22.7934 80.2266 10.9416 -22.3462 80.6153 10.4048 -23.6716 80.5138 11.0627 
-24.6123 80.7502 10.9201 -25.3127 80.161 10.5494 -29.9728 80.7353 10.2385 
-29.5502 80.4316 10.7655 -29.2627 80.5193 10.1763 -30.1413 80.4461 10.6648 
-22.5629 80.5465 9.82622 -22.6877 80.9592 9.47351 -22.91 80.5549 9.28921 
-25.797 80.7116 10.0217 -26.138 80.4578 9.35256 -29.8572 80.8822 9.47398 
-29.1808 80.5204 9.26098 -30.5581 80.5904 10.0945 -30.5813 80.808 9.44943 
-31.0475 80.4533 9.56672 -22.7496 80.1323 8.93363 -22.387 80.7354 8.24061 
-22.7853 80.8914 8.66676 -26.3579 80.1681 8.44656 -29.8331 80.9071 8.49959 
-29.1872 80.5019 8.25702 -30.7617 80.9134 8.44115 -31.2951 80.5248 8.78414 
-22.0683 80.6408 7.47696 -26.7482 80.806 7.90712 -27.0942 80.3997 7.14778 
-29.8195 80.8996 7.49529 -29.1802 80.4936 7.25299 -30.7 81.0296 7.46615 
-31.5827 80.5962 8.02334 -31.5648 80.8084 7.37622 -32.0643 80.4239 7.49773 
-22.2052 80.4191 6.68695 -27.3082 80.6119 6.31599 -29.8173 80.8843 6.48916 
-29.1755 80.4906 6.25143 -30.7118 81.0335 6.46774 -31.5969 80.8811 6.45465 
-32.225 80.4711 6.69583 -22.6838 81.1532 5.36081 -22.3498 80.5419 5.46753 
-27.2759 80.4554 5.44437 -29.8183 80.8838 5.47337 -29.1664 80.4958 5.22942 
-30.718 81.0376 5.475 -31.7762 80.8999 5.38008 -32.3615 80.5127 5.76071 
-22.645 80.7304 4.6826 -22.3237 80.2188 4.26011 -23.5775 80.9562 4.49741 
-24.5234 81.2138 4.47032 -27.2533 80.257 4.5535 -29.8283 80.8999 4.43769 
-29.1854 80.5119 4.21595 -30.7185 81.0471 4.46456 -31.5596 81.0135 4.56903 
-32.6019 80.5739 5.02301 -32.4008 80.7528 4.32628 -32.9953 80.4102 4.59483 
-22.9997 80.4361 3.9945 -23.7959 80.5473 3.76404 -23.9712 80.54 3.24118 
-24.4852 80.9628 3.6004 -26.5923 81.0745 3.29655 -27.0997 80.3864 3.5802 
-29.8434 80.858 3.50238 -29.2944 80.5276 3.55939 -30.7376 81.0505 3.41883 
-31.7253 80.9056 3.52928 -32.4347 80.5624 3.51853 -32.897 80.4024 4.01861 
[...]
CELL_DATA 51912
SCALARS scalars float
LOOKUP_TABLE default
1027 1027 1027 1027 1027 1027 1027 1027 1027 
1027 1027 1027 1027 1027 1027 1027 1027 1027 
1027 1027 1027 1027 1027 1027 1027 1027 1027 
1027 1027 1027 1027 1027 1027 1027 1027 1027 
1027 1027 1027 1027 1027 1027 1027 1027 1027 
1027 1027 1027 1027 1027 1027 1027 1027 1027 
1027 1027 1027 1027 1027 1027 1027 1027 1027 
1027 1027 1027 1027 1027 1027 1027 1027 1027 
1027 1027 1027 1027 1027 1027 1027 1027 1027 
1027 1027 1027 1027 1027 1027 1027 1027 1027 
1027 1027 1027 1027 1027 1027 1027 1027 1027 
1027 1027 1027 1027 1027 1027 1027 1027 1027 
1027 1027 1027 1027 1027 1027 1027 1027 1027 
1027 1027 1027 1027 1027 1027 1027 1027 1027 
1027 1027 1027 1027 1027 1027 1027 1027 1027 
1027 1027 1027 1027 1027 1027 1027 1027 1027 
1027 1027 1027 1027 1027 1027 1027 1027 1027 
1027 1027 1027 1027 1027 1027 1027 1027 1027 
1027 1027 1027 1027 1027 1027 1027 1027 1027 
1027 1027 1027 1027 1027 1027 1027 1027 1027 
1027 1027 1027 1027 1027 1027 1027 1027 1027 
1027 1027 1027 1027 1027 1027 1027 1027 1027 
1027 1027 1027 1027 1027 1027 1027 1027 1027 
1027 1027 1027 1027 1027 1027 1027 1027 1027 
1027 1027 1027 1027 1027 1027 1027 1027 1027 
1027 1027 1027 1027 1027 1027 1027 1027 1027 
1027 1027 1027 1027 1027 1027 1027 1027 1027 
1027 1027 1027 1027 1027 1027 1027 1027 1027 
1027 1027 1027 1027 1027 1027 1027 1027 1027 
1027 1027 1027 1027 1027 1027 1027 1027 1027 
1027 1027 1027 1027 1027 1027 1027 1027 1027 
1027 1027 1027 1027 1027 1027 1027 1027 1027 
1027 1027 1027 1027 1027 1027 1027 1027 1027 
1027 1027 1027 1027 1027 1027 1027 1027 1027 
1027 1027 1027 1027 1027 1027 1027 1027 1027 
1027 1027 1027 1027 1027 1027 1027 1027 1027 
1027 1027 1027 1027 1027 1027 1027 1027 1027 
1027 1027 1027 1027 1027 1027 1027 1027 1027 
1027 1027 1027 1027 1027 1027 1027 1027 1027 
1027 1027 1027 1027 1027 1027 1027 1027 1027 
1027 1027 1027 1027 1027 1027 1027 1027 1027 
1027 1027 1027 1027 1027 1027 1027 1027 1027 
1027 1027 1027 1027 1027 1027 1027 1027 1027 
1027 1027 1027 1027 1027 1027 1027 1027 1027 
1027 1027 1027 1027 1027 1027 1027 1027 1027 
1027 1027 1027 1027 1027 1027 1027 1027 1027 
1027 1027 1027 1027 1027 1027 1027 1027 1027 
1027 1027 1027 1027 1027 1027 1027 1027 1027 
1027 1027 1027 1027 1027 1027 1027 1027 1027 
1027 1027 1027 1027 1027 1027 1027 1027 1027 
1027 1027 1027 1027 1027 1027 1027 1027 1027 
1027 1027 1027 1027 1027 1027 1027 1027 1027 
1027 1027 1027 1027 1027 1027 1027 1027 1027 
1027 1027 1027 1027 1027 1027 1027 1027 1027 
1027 1027 1027 1027 1027 1027 1027 1027 1027 
1027 1027 1027 1027 1027 1027 1027 1027 1027 
1027 1027 1027 1027 1027 1027 1027 1027 1027 
1027 1027 1027 1027 1027 1027 1027 1027 1027 
1027 1027 1027 1027 1027 1027 1027 1027 1027 
1027 1027 1027 1027 1027 1027 1027 1027 1027 
1027 1027 1027 1027 1027 1027 1027 1027 1027 
1027 1027 1027 1027 1027 1027 1027 1027 1027 
1027 1027 1027 1027 1027 1027 1027 1027 1027 
1027 1027 1027 1027 1027 1027 1027 1027 1027 
1027 1027 1027 1027 1027 1027 1027 1027 1027 
1027 1027 1027 1027 1027 1027 1027 1027 1027 
1027 1027 1027 1027 1027 1027 1027 1027 1027 
1027 1027 1027 1027 1027 1027 1027 1027 1027 
1027 1027 1027 1027 1027 1027 1027 1027 1027 
1027 1027 1027 1027 1027 1027 1027 1027 1027 
1027 1027 1027 1027 1027 1027 1027 1027 1027 
1027 1027 1027 1027 1027 1027 1027 1027 1027 
1027 1027 1027 1027 1027 1027 1027 1027 1027 
1027 1027 1027 1027 1027 1027 1027 1027 1027 
1027 1027 1027 1027 1027 1027 1027 1027 1027 
1027 1027 1027 1027 1027 1027 1027 1027 1027 
1027 1027 1027 1027 1027 1027 1027 1027 1027 
1027 1027 1027 1027 1027 1027 1027 1027 1027 
1027 1027 1027 1027 1027 1027 1027 1027 1027 
1027 1027 1027 1027 1027 1027 1027 1027 1027 
1027 1027 1027 1027 1027 1027 1027 1027 1027 
1027 1027 1027 1027 1027 1027 1027 1027 1027 
1027 1027 1027 1027 1027 1027 1027 1027 1027 
1027 1027 1027 1027 1027 1027 1027 1027 1027 
1027 1027 1027 1027 1027 1027 1027 1027 1027 
1027 1027 1027 1027 1027 1027 1027 1027 1027 
1027 1027 1027 1027 1027 1027 1027 1027 1027 
1027 1027 1027 1027 1027 1027 1027 1027 1027 
1027 1027 1027 1027 1027 1027 1027 1027 1027 
1027 1027 1027 1027 1027 1027 1027 1027 1027 
1027 1027 1027 1027 1027 1027 1027 1027 1027 
1027 1027 1027 1027 1027 1027 1027 1027 1027 
1027 1027 1027 1027 1027 1027 1027 1027 1027 
1027 1027 1027 1027 1027 1027 1027 1027 1027 
1027 1027 1027 1027 1027 1027 1027 1027 1027 
1027 1027 1027 1027 1027 1027 1027 1027 1027 
1027 1027 1027 1027 1027 1027 1027 1027 1027 
1027 1027 1027 1027 1027 1027 1027 1027 1027 
1027 1027 1027 1027 1027 1027 1027 1027 1027 
1027 1027 1027 1027 1027 1027 1027 1027 1027 
1027 1027 1027 1027 1027 1027 1027 1027 1027 
1027 1027 1027 1027 1027 1027 1027 1027 1027 
1027 1027 1027 1027 1027 1027 1027 1027 1027 
1027 1027 1027 1027 1027 1027 1027 1027 1027 
1027 1027 1027 1027 1027 1027 1027 1027 1027 
1027 1027 1027 1027 1027 1027 1027 1027 1027 
1027 1027 1027 1027 1027 1027 1027 1027 1027 
1027 1027 1027 1027 1027 1027 1027 1027 1027 
1027 1027 1027 1027 1027 1027 1027 1027 1027 
1027 1027 1027 1027 1027 1027 1027 1027 1027 
1027 1027 1027 1027 1027 1027 1027 1027 1027 
1027 1027 1027 1027 1027 1027 1027 1027 1027 
1027 1027 1027 1027 1027 1027 1027 1027 1027 
1027 1027 1027 1027 1027 1027 1027 1027 1027 
1027 1027 1027 1027 1027 1027 1027 1027 1027 
1027 1027 1027 1027 1027 1027 1027 1027 1027 
1027 1027 1027 1027 1027 1027 1027 1027 1027 
1027 1027 1027 1027 1027 1027 1027 1027 1027 
1027 1027 1027 1027 1027 1027 1027 1027 1027 
1027 1027 1027 1027 1027 1027 1027 1027 1027 
1027 1027 1027 1027 1027 1027 1027 1027 1027 
1027 1027 1027 1027 1027 1027 1027 1027 1027 
1027 1027 1027 1027 1027 1027 1027 1027 1027 
1027 1027 1027 1027 1027 1027 1027 1027 1027 
1027 1027 1027 1027 1027 1027 1027 1027 1027 
1027 1027 1027 1027 1027 1027 1027 1027 1027 
1027 1027 1027 1027 1027 1027 1027 1027 1027 
1027 1027 1027 1027 1027 1027 1027 1027 1027 
1027 1027 1027 1027 1027 1027 1027 1027 1027 
1027 1027 1027 1027 1027 1027 1027 1027 1027 
1027 1027 1027 1027 1027 1027 1027 1027 1027 
1027 1027 1027 1027 1027 1027 1027 1027 1027 
1027 1027 1027 1027 1027 1027 1027 1027 1027 
1027 1027 1027 1027 1027 1027 1027 1027 1027 
1027 1027 1027 1027 1027 1027 1027 1027 1027 
1027 1027 1027 1027 1027 1027 1027 1027 1027 
1027 1027 1027 1027 1027 1027 1027 1027 1027 
1027 1027 1027 1027 1027 1027 1027 1027 1027 
1027 1027 1027 1027 1027 1027 1027 1027 1027 
1027 1027 1027 1027 1027 1027 1027 1027 1027 
1027 1027 1027 1027 1027 1027 1027 1027 1027 
1027 1027 1027 1027 1027 1027 1027 1027 1027 
1027 1027 1027 1027 1027 1027 1027 1027 1027 
1027 1027 1027 1027 1027 1027 1027 1027 1027 
1027 1027 1027 1027 1027 1027 1027 1027 1027 
1027 1027 1027 1027 1027 1027 1027 1027 1027 
1027 1027 1027 1027 1027 1027 1027 1027 1027 
1027 1027 1027 1027 1027 1027 1027 1027 1027 
1027 1027 1027 1027 1027 1027 1027 1027 1027 
1027 1027 1027 1027 1027 1027 1027 1027 1027 
1027 1027 1027 1027 1027 1027 1027 1027 1027 
1027 1027 1027 1027 1027 1027 1027 1027 1027 
1027 1027 1027 1027 1027 1027 1027 1027 1027 
1027 1027 1027 1027 1027 1027 1027 1027 1027 
1027 1027 1027 1027 1027 1027 1027 1027 1027 
1027 1027 1027 1027 1027 1027 1027 1027 1027 
1027 1027 1027 1027 1027 1027 1027 1027 1027 
1027 1027 1027 1027 1027 1027 1027 1027 1027 
1027 1027 1027 1027 1027 1027 1027 1027 1027 
1027 1027 1027 1027 1027 1027 1027 1027 1027 
1027 1027 1027 1027 1027 1027 1027 1027 1027 
1027 1027 1027 1027 1027 1027 1027 1027 1027 
1027 1027 1027 1027 1027 1027 1027 1027 1027 
1027 1027 1027 1027 1027 1027 1027 1027 1027 
1027 1027 1027 1027 1027 1027 1027 1027 1027 
1027 1027 1027 1027 1027 1027 1027 1027 1027 
1027 1027 1027 1027 1027 1027 1027 1027 1027 
1027 1027 1027 1027 1027 1027 1027 1027 1027 
1027 1027 1027 1027 1027 1027 1027 1027 1027 
1027 1027 1027 1027 1027 1027 1027 1027 1027 
1027 1027 1027 1027 1027 1027 1027 1027 1027 
1027 1027 1027 1027 1027 1027 1027 1027 1027 
1027 1027 1027 1027 1027 1027 1027 1027 1027 
1027 1027 1027 1027 1027 1027 1027 1027 1027 
1027 1027 1027 1027 1027 1027 1027 1027 1027 
1027 1027 1027 1027 1027 1027 1027 1027 1027 
1027 1027 1027 1027 1027 1027 1027 1027 1027 
1027 1027 1027 1027 1027 1027 1027 1027 1027 
1027 1027 1027 1027 1027 1027 1027 1027 1027 
1027 1027 1027 1027 1027 1027 1027 1027 1027 
1027 1027 1027 1027 1027 1027 1027 1027 1027 
1027 1027 1027 1027 1027 1027 1027 1027 1027 
1027 1027 1027 1027 1027 1027 1027 1027 1027 
1027 1027 1027 1027 1027 1027 1027 1027 1027 
1027 1027 1027 1027 1027 1027 1027 1027 1027 
1027 1027 1027 1027 1027 1027 1027 1027 1027 
1027 1027 1027 1027 1027 1027 1027 1027 1027 
1027 1027 1027 1027 1027 1027 1027 1027 1027 
1027 1027 1027 1027 1027 1027 1027 1027 1027 
1027 1027 1027 1027 1027 1027 1027 1027 1027 
1027 1027 1027 1027 1027 1027 1027 1027 1027 
1027 1027 1027 1027 1027 1027 1027 1027 1027 
1027 1027 1027 1027 1027 1027 1027 1027 1027 
1027 1027 1027 1027 1027 1027 1027 1027 1027 
1027 1027 1027 1027 1027 1027 1027 1027 1027 
1027 1027 1027 1027 1027 1027 1027 1027 1027 
1027 1027 1027 1027 1027 1027 1027 1027 1027 
1027 1027 1027 1027 1027 1027 1027 1027 1027 
1027 1027 1027 1027 1027 1027 1027 1027 1027 
1027 1027 1027 1027 1027 1027 1027 1027 1027 
1027 1027 1027 1027 1027 1027 1027 1027 1027 
1027 1027 1027 1027 1027 1027 1027 1027 1027 
1027 1027 1027 1027 1027 1027 1027 1027 1027 
1027 1027 1027 1027 1027 1027 1027 1027 1027 
1027 1027 1027 1027 1027 1027 1027 1027 1027 
1027 1027 1027 1027 1027 1027 1027 1027 1027 
1027 1027 1027 1027 1027 1027 1027 1027 1027 
1027 1027 1027 1027 1027 1027 1027 1027 1027 
1027 1027 1027 1027 1027 1027 1027 1027 1027 
1027 1027 1027 1027 1027 1027 1027 1027 1027 
1027 1027 1027 1027 1027 1027 1027 1027 1027 
1027 1027 1027 1027 1027 1027 1027 1027 1027 
1027 1027 1027 1027 1027 1027 1027 1027 1027 
1027 1027 1027 1027 1027 1027 1027 1027 1027 
1027 1027 1027 1027 1027 1027 1027 1027 1027 
1027 1027 1027 1027 1027 1027 1027 1027 1027 
1027 1027 1027 1027 1027 1027 1027 1027 1027 
1027 1027 1027 1027 1027 1027 1027 1027 1027 
1027 1027 1027 1027 1027 1027 1027 1027 1027 
1027 1027 1027 1027 1027 1027 1027 1027 1027 
1027 1027 1027 1027 1027 1027 1027 1027 1027 
1027 1027 1027 1027 1027 1027 1027 1027 1027 
1027 1027 1027 1027 1027 1027 1027 1027 1027 
1027 1027 1027 1027 1027 1027 1027 1027 1027 
1027 1027 1027 1027 1027 1027 1027 1027 1027 
1027 1027 1027 1027 1027 1027 1027 1027 1027 
1027 1027 1027 1027 1027 1027 1027 1027 1027 
1027 1027 1027 1027 1027 1027 1027 1027 1027 
1027 1027 1027 1027 1027 1027 1027 1027 1027 
1027 1027 1027 1027 1027 1027 1027 1027 1027 
1027 1027 1027 1027 1027 1027 1027 1027 1027 
1027 1027 1027 1027 1027 1027 1027 1027 1027 
1027 1027 1027 1027 1027 1027 1027 1027 1027 
1027 1027 1027 1027 1027 1027 1027 1027 1027 
1027 1027 1027 1027 1027 1027 1027 1027 1027 
1027 1027 1027 1027 1027 1027 1027 1027 1027 
1027 1027 1027 1027 1027 1027 1027 1027 1027 
1027 1027 1027 1027 1027 1027 1027 1027 1027 
1027 1027 1027 1027 1027 1027 1027 1027 1027 
1027 1027 1027 1027 1027 1027 1027 1027 1027 
1027 1027 1027 1027 1027 1027 1027 1027 1027 
1027 1027 1027 1027 1027 1027 1027 1027 1027 
1027 1027 1027 1027 1027 1027 1027 1027 1027 
1027 1027 1027 1027 1027 1027 1027 1027 1027 
1027 1027 1027 1027 1027 1027 1027 1027 1027 
1027 1027 1027 1027 1027 1027 1027 1027 1027 
1027 1027 1027 1027 1027 1027 1027 1027 1027 
1027 1027 1027 1027 1027 1027 1027 1027 1027 
1027 1027 1027 1027 1027 1027 1027 1027 1027 
1027 1027 1027 1027 1027 1027 1027 1027 1027 
1027 1027 1027 1027 1027 1027 1027 1027 1027 
1027 1027 1027 1027 1027 1027 1027 1027 1027 
1027 1027 1027 1027 1027 1027 1027 1027 1027 
1027 1027 1027 1027 1027 1027 1027 1027 1027 
1027 1027 1027 1027 1027 1027 1027 1027 1027 
1027 1027 1027 1027 1027 1027 1027 1027 1027 
1027 1027 1027 1027 1027 1027 1027 1027 1027 
1027 1027 1027 1027 1027 1027 1027 1027 1027 
1027 1027 1027 1027 1027 1027 1027 1027 1027 
1027 1027 1027 1027 1027 1027 1027 1027 1027 
1027 1027 1027 1027 1027 1027 1027 1027 1027 
1027 1027 1027 1027 1027 1027 1027 1027 1027 
1027 1027 1027 1027 1027 1027 1027 1027 1027 
1027 1027 1027 1027 1027 1027 1027 1027 1027 
1027 1027 1027 1027 1027 1027 1027 1027 1027 
1027 1027 1027 1027 1027 1027 1027 1027 1027 
1027 1027 1027 1027 1027 1027 1027 1027 1027 
1027 1027 1027 1027 1027 1027 1027 1027 1027 
1027 1027 1027 1027 1027 1027 1027 1027 1027 
1027 1027 1027 1027 1027 1027 1027 1027 1027 
1027 1027 1027 1027 1027 1027 1027 1027 1027 
1027 1027 1027 1027 1027 1027 1027 1027 1027 
1027 1027 1027 1027 1027 1027 1027 1027 1027 
1027 1027 1027 1027 1027 1027 1027 1027 1027 
1027 1027 1027 1027 1027 1027 1027 1027 1027 
1027 1027 1027 1027 1027 1027 1027 1027 1027 
1027 1027 1027 1027 1027 1027 1027 1027 1027 
1027 1027 1027 1027 1027 1027 1027 1027 1027 
1027 1027 1027 1027 1027 1027 1027 1027 1027 
1027 1027 1027 1027 1027 1027 1027 1027 1027 
1027 1027 1027 1027 1027 1027 1027 1027 1027 
1027 1027 1027 1027 1027 1027 1027 1027 1027 
1027 1027 1027 1027 1027 1027 1027 1027 1027 
1027 1027 1027 1027 1027 1027 1027 1027 1027 
1027 1027 1027 1027 1027 1027 1027 1027 1027 
1027 1027 1027 1027 1027 1027 1027 1027 1027 
1027 1027 1027 1027 1027 1027 1027 1027 1027 
1027 1027 1027 1027 1027 1027 1027 1027 1027 
1027 1027 1027 1027 1027 1027 1027 1027 1027 
1027 1027 1027 1027 1027 1027 1027 1027 1027 
1027 1027 1027 1027 1027 1027 1027 1027 1027 
1027 1027 1027 1027 1027 1027 1027 1027 1027 
1027 1027 1027 1027 1027 1027 1027 1027 1027 
1027 1027 1027 1027 1027 1027 1027 1027 1027 
1027 1027 1027 1027 1027 1027 1027 1027 1027 
1027 1027 1027 1027 1027 1027 1027 1027 1027 
1027 1027 1027 1027 1027 1027 1027 1027 1027 
1027 1027 1027 1027 1027 1027 1027 1027 1027 
1027 1027 1027 1027 1027 1027 1027 1027 1027 
1027 1027 1027 1027 1027 1027 1027 1027 1027 
1027 1027 1027 1027 1027 1027 1027 1027 1027 
1027 1027 1027 1027 1027 1027 1027 1027 1027 
1027 1027 1027 1027 1027 1027 1027 1027 1027 
1027 1027 1027 1027 1027 1027 1027 1027 1027 
1027 1027 1027 1027 1027 1027 1027 1027 1027 
1027 1027 1027 1027 1027 1027 1027 1027 1027 
1027 1027 1027 1027 1027 1027 1027 1027 1027 
1027 1027 1027 1027 1027 1027 1027 1027 1027 
1027 1027 1027 1027 1027 1027 1027 1027 1027 
1027 1027 1027 1027 1027 1027 1027 1027 1027 
1027 1027 1027 1027 1027 1027 1027 1027 1027 
1027 1027 1027 1027 1027 1027 1027 1027 1027 
1027 1027 1027 1027 1027 1027 1027 1027 1027 
1027 1027 1027 1027 1027 1027 1027 1027 1027 
1027 1027 1027 1027 1027 1027 1027 1027 1027 
1027 1027 1027 1027 1027 1027 1027 1027 1027 
1027 1027 1027 1027 1027 1027 1027 1027 1027 
1027 1027 1027 1027 1027 1027 1027 1027 1027 
1027 1027 1027 1027 1027 1027 1027 1027 1027 
1027 1027 1027 1027 1027 1027 1027 1027 1027 
1027 1027 1027 1027 1027 1027 1027 1027 1027 
1027 1027 1027 1027 1027 1027 1027 1027 1027 
1027 1027 1027 1027 1027 1027 1027 1027 1027 
1027 1027 1027 1027 1027 1027 1027 1027 1027 
1027 1027 1027 1027 1027 1027 1027 1027 1027 
1027 1027 1027 1027 1027 1027 1027 1027 1027 
1027 1027 1027 1027 1027 1027 1027 1027 1027 
1027 1027 1027 1027 1027 1027 1027 1027 1027 
1027 1027 1027 1027 1027 1027 1027 1027 1027 
1027 1027 1027 1027 1027 1027 1027 1027 1027 
1027 1027 1027 1027 1027 1027 1027 1027 1027 
1027 1027 1027 1027 1027 1027 1027 1027 1027 
1027 1027 1027 1027 1027 1027 1027 1027 1027 
1027 1027 1027 1027 1027 1027 1027 1027 1027 
1027 1027 1027 1027 1027 1027 1027 1027 1027 
1027 1027 1027 1027 1027 1027 1027 1027 1027 
1027 1027 1027 1027 1027 1027 1027 1027 1027 
1027 1027 1027 1027 1027 1027 1027 1027 1027 
1027 1027 1027 1027 1027 1027 1027 1027 1027 
1027 1027 1027 1027 1027 1027 1027 1027 1027 
1027 1027 1027 1027 1027 1027 1027 1027 1027 
1027 1027 1027 1027 1027 1027 1027 1027 1027 
1027 1027 1027 1027 1027 1027 1027 1027 1027 
1027 1027 1027 1027 1027 1027 1027 1027 1027 
1027 1027 1027 1027 1027 1027 1027 1027 1027 
1027 1027 1027 1027 1027 1027 1027 1027 1027 
1027 1027 1027 1027 1027 1027 1027 1027 1027 
1027 1027 1027 1027 1027 1027 1027 1027 1027 
1027 1027 1027 1027 1027 1027 1027 1027 1027 
1027 1027 1027 1027 1027 1027 1027 1027 1027 
1027 1027 1027 1027 1027 1027 1027 1027 1027 
1027 1027 1027 1027 1027 1027 1027 1027 1027 
1027 1027 1027 1027 1027 1027 1027 1027 1027 
1027 1027 1027 1027 1027 1027 1027 1027 1027 
1027 1027 1027 1027 1027 1027 1027 1027 1027 
1027 1027 1027 1027 1027 1027 1027 1027 1027 
1027 1027 1027 1027 1027 1027 1027 1027 1027 
1027 1027 1027 1027 1027 1027 1027 1027 1027 
1027 1027 1027 1027 1027 1027 1027 1027 1027 
1027 1027 1027 1027 1027 1027 1027 1027 1027 
1027 1027 1027 1027 1027 1027 1027 1027 1027 
1027 1027 1027 1027 1027 1027 1027 1027 1027 
1027 1027 1027 1027 1027 1027 1027 1027 1027 
1027 1027 1027 1027 1027 1027 1027 1027 1027 
1027 1027 1027 1027 1027 1027 1027 1027 1027 
1027 1027 1027 1027 1027 1027 1027 1027 1027 
1027 1027 1027 1027 1027 1027 1027 1027 1027 
1027 1027 1027 1027 1027 1027 1027 1027 1027 
1027 1027 1027 1027 1027 1027 1027 1027 1027 
1027 1027 1027 1027 1027 1027 1027 1027 1027 
1027 1027 1027 1027 1027 1027 1027 1027 1027 
1027 1027 1027 1027 1027 1027 1027 1027 1027 
1027 1027 1027 1027 1027 1027 1027 1027 1027 
1027 1027 1027 1027 1027 1027 1027 1027 1027 
1027 1027 1027 1027 1027 1027 1027 1027 1027 
1027 1027 1027 1027 1027 1027 1027 1027 1027 
1027 1027 1027 1027 1027 1027 1027 1027 1027 
1027 1027 1027 1027 1027 1027 1027 1027 1027 
1027 1027 1027 1027 1027 1027 1027 1027 1027 
1027 1027 1027 1027 1027 1027 1027 1027 1027 
1027 1027 1027 1027 1027 1027 1027 1027 1027 
1027 1027 1027 1027 1027 1027 1027 1027 1027 
1027 1027 1027 1027 1027 1027 1027 1027 1027 
1027 1027 1027 1027 1027 1027 1027 1027 1027 
1027 1027 1027 1027 1027 1027 1027 1027 1027 
1027 1027 1027 1027 1027 1027 1027 1027 1027 
1027 1027 1027 1027 1027 1027 1027 1027 1027 
1027 1027 1027 1027 1027 1027 1027 1027 1027 
1027 1027 1027 1027 1027 1027 1027 1027 1027 
1027 1027 1027 1027 1027 1027 1027 1027 1027 
1027 1027 1027 1027 1027 1027 1027 1027 1027 
1027 1027 1027 1027 1027 1027 1027 1027 1027 
1027 1027 1027 1027 1027 1027 1027 1027 1027 
1027 1027 1027 1027 1027 1027 1027 1027 1027 
1027 1027 1027 1027 1027 1027 1027 1027 1027 
1027 1027 1027 1027 1027 1027 1027 1027 1027 
1027 1027 1027 1027 1027 1027 1027 1027 1027 
1027 1027 1027 1027 1027 1027 1027 1027 1027 
1027 1027 1027 1027 1027 1027 1027 1027 1027 
1027 1027 1027 1027 1027 1027 1027 1027 1027 
1027 1027 1027 1027 1027 1027 1027 1027 1027 
1027 1027 1027 1027 1027 1027 1027 1027 1027 
1027 1027 1027 1027 1027 1027 1027 1027 1027 
1027 1027 1027 1027 1027 1027 1027 1027 1027 
1027 1027 1027 1027 1027 1027 1027 1027 1027 
1027 1027 1027 1027 1027 1027 1027 1027 1027 
1027 1027 1027 1027 1027 1027 1027 1027 1027 
1027 1027 1027 1027 1027 1027 1027 1027 1027 
1027 1027 1027 1027 1027 1027 1027 1027 1027 
1027 1027 1027 1027 1027 1027 1027 1027 1027 
1027 1027 1027 1027 1027 1027 1027 1027 1027 
1027 1027 1027 1027 1027 1027 1027 1027 1027 
1027 1027 1027 1027 1027 1027 1027 1027 1027 
1027 1027 1027 1027 1027 1027 1027 1027 1027 
1027 1027 1027 1027 1027 1027 1027 1027 1027 
1027 1027 1027 1027 1027 1027 1027 1027 1027 
1027 1027 1027 1027 1027 1027 1027 1027 1027 
1027 1027 1027 1027 1027 1027 1027 1027 1027 
1027 1027 1027 1027 1027 1027 1027 1027 1027 
1027 1027 1027 1027 1027 1027 1027 1027 1027 
1027 1027 1027 1027 1027 1027 1027 1027 1027 
1027 1027 1027 1027 1027 1027 1027 1027 1027 
1027 1027 1027 1027 1027 1027 1027 1027 1027 
1027 1027 1027 1027 1027 1027 1027 1027 1027 
1027 1027 1027 1027 1027 1027 1027 1027 1027 
1027 1027 1027 1027 1027 1027 1027 1027 1027 
1027 1027 1027 1027 1027 1027 1027 1027 1027 
1027 1027 1027 1027 1027 1027 1027 1027 1027 
1027 1027 1027 1027 1027 1027 1027 1027 1027 
1027 1027 1027 1027 1027 1027 1027 1027 1027 
1027 1027 1027 1027 1027 1027 1027 1027 1027 
1027 1027 1027 1027 1027 1027 1027 1027 1027 
1027 1027 1027 1027 1027 1027 1027 1027 1027 