# vtk DataFile Version 4.2
vtk output
ASCII
DATASET POLYDATA
POINTS 5082 float
-0.0795471 35.2045 25.8065 -0.212654 36.0053 25.2206 -0.635093 35.4181 25.4602 
0.296881 35.5367 25.3926 -0.325443 34.6871 25.8558 -0.722553 34.5639 25.3943 
0.52572 35.0245 25.6221 0.331114 34.5194 25.7975 0.932118 34.6064 25.443 
3.7609 34.464 25.6959 3.58562 34.7458 25.5222 3.49954 34.2996 25.546 
3.99349 34.5866 25.2175 0.0132974 34.0287 25.5627 0.772802 34.091 25.4376 
3.81934 34.0558 25.4244 -0.36633 36.5567 24.8264 -0.407797 36.9725 24.3761 
-0.681767 36.4052 24.6026 0.00297371 36.6023 24.5886 -1.06452 35.2921 24.4116 
1.03286 35.2897 25.0638 0.522309 36.0065 24.7842 1.99894 35.3451 24.8451 
1.41155 35.9793 24.4944 2.89592 35.5239 24.8489 2.44491 36.0103 24.4659 
3.59305 35.2382 25.0417 3.62089 36.0205 24.3232 4.21441 35.2421 24.3981 
-1.20382 34.4416 24.9083 -1.40992 34.828 24.5249 -1.64246 34.1876 24.474 
1.62091 34.2979 25.0954 2.892 34.6212 25.1681 4.24208 34.4886 24.5418 
-1.27728 33.4512 24.9099 -1.76838 33.3134 24.5224 -0.38835 33.5229 25.1734 
0.835747 33.411 25.1329 1.87051 33.272 24.9816 2.55264 33.631 25.0301 
3.40623 33.4651 25.0199 4.18245 33.777 24.5579 -1.27993 32.5024 24.8202 
-1.65334 32.712 24.2228 -0.385204 32.4343 25.0485 0.496346 32.5802 25.0326 
1.45951 32.3908 24.8774 2.56811 32.6757 24.8314 3.23858 32.4068 24.4003 
3.94166 32.9321 24.1794 -1.1014 32.0499 24.3282 -0.581234 31.4958 24.4094 
-0.39072 31.5207 24.8798 0.661019 31.5408 24.9051 1.40686 31.5198 24.5959 
2.09312 31.8889 24.5191 2.77776 31.9423 24.3684 -0.143957 30.9775 24.6574 
0.213526 30.4638 24.4157 0.499344 30.4653 24.8411 1.19249 30.5536 24.4193 
0.613086 29.6055 24.7792 0.375059 29.3298 24.279 0.970159 29.4905 24.4368 
0.750967 28.9588 24.4442 -0.00632491 37.3534 23.9311 -0.313476 38.0296 23.3441 
-0.674069 37.3868 23.5893 0.859372 37.2181 23.7934 0.558195 38.0038 23.3036 
1.22138 37.5516 23.36 -1.05318 36.2453 23.4206 0.717631 36.6166 24.2123 
1.58367 37.1258 23.5816 1.76274 36.5962 24.0024 2.96241 36.4941 23.9913 
2.58302 36.9737 23.4046 3.65186 36.5173 23.8881 3.64383 36.7913 23.3687 
4.23744 36.5203 23.508 -1.27145 35.6357 23.7557 -1.3448 35.7734 23.5197 
-1.39862 35.52 23.5265 4.63068 35.343 23.7203 4.52628 35.9626 23.7385 
4.95148 35.6834 23.3831 -1.39016 34.5144 23.9834 -1.07859 35.2387 23.4071 
-0.791694 34.5226 23.2662 4.49522 34.5446 23.8459 4.87388 35.0652 23.3825 
-1.27666 33.9298 23.2825 -1.6778 33.5891 23.7939 4.6705 33.8189 23.6882 
4.58067 33.3126 23.8989 5.03297 33.5512 23.2073 -1.27295 32.957 23.33 
-1.38094 32.4373 23.9161 -0.850575 32.4195 23.4544 3.21654 32.4387 23.5029 
3.97676 32.8234 23.3476 4.62339 33.0657 23.3926 -0.503807 31.8738 23.7531 
-0.224901 31.2765 24.1422 0.049424 31.5254 23.3766 1.85594 31.1349 24.2049 
2.61554 31.3074 24.0182 3.04587 31.4068 23.5394 0.217827 30.446 23.5497 
1.707 30.4084 23.9137 2.39938 30.5954 23.774 3.05357 30.5354 23.356 
0.198352 29.5528 23.4347 1.40426 29.6384 23.7826 2.07281 29.8894 23.4909 
2.78091 29.9898 23.318 0.609548 28.5156 24.0116 0.314406 28.4265 23.3751 
1.19099 28.5258 23.5072 0.713086 27.935 23.3954 -0.0310446 38.5119 22.946 
-0.395561 38.8255 22.4614 -0.791585 38.1835 22.706 0.568214 38.5258 22.9319 
0.596226 38.985 22.3428 1.16357 38.4772 22.5153 -1.05274 37.2793 22.7838 
1.98835 37.4545 23.0824 1.6626 37.9671 22.6376 2.77537 37.37 22.8308 
2.61625 37.747 22.3696 3.28812 37.5063 22.2949 -1.22216 36.6134 22.7611 
-1.38443 37.0415 22.348 -1.52373 36.506 22.1756 3.62784 37.1284 22.6018 
5.07525 36.3511 23.0614 4.66038 36.8903 22.5432 5.9403 36.2484 22.8153 
5.71555 36.811 22.3166 6.36184 36.6097 22.3575 -1.21176 36.1136 22.5815 
-1.24148 35.6296 23.269 -0.952082 35.4715 22.4802 5.45461 35.4319 23.0939 
6.59116 36.1086 22.5966 6.38975 35.3606 22.7921 7.04234 35.611 22.1885 
-0.468613 34.7596 22.5879 -0.253142 34.4889 22.7491 -0.0521616 34.2034 22.1851 
5.08563 34.3781 23.15 5.80976 34.6818 22.8526 6.33614 34.5576 22.5879 
6.82602 34.8443 22.3806 -1.36272 33.464 23.1148 -0.282548 34.1091 22.5938 
-0.783692 33.6003 22.7564 2.83504 33.1826 22.8307 2.33909 33.3834 22.4357 
2.74587 33.9924 22.1901 3.2297 33.5323 22.3293 5.63824 33.9267 22.2984 
5.04718 33.3249 22.684 -0.453892 32.9155 22.6668 -0.229686 32.3219 23.0034 
0.109358 32.5485 22.2875 2.57035 32.5764 22.9954 2.2581 32.4312 22.418 
3.56669 33.0397 22.7577 4.41046 33.0962 22.6257 0.252651 31.4958 22.4559 
2.67262 31.7377 22.9845 2.37181 31.5133 22.1615 0.211431 30.4587 22.5339 
2.80564 31.0381 22.5957 3.1423 30.5253 22.5093 0.171049 29.4218 22.5548 
1.85589 29.11 23.1969 2.63816 29.3084 22.9819 3.18527 29.71 22.5396 
0.1686 28.556 22.3986 1.80976 28.5245 22.969 2.39574 28.5633 22.7716 
3.07098 28.5328 22.2562 0.575436 27.5164 22.9371 0.332952 27.5907 22.3702 
1.11918 27.3589 22.5712 1.93547 27.9111 22.6045 2.61659 28.0488 22.4698 
0.648714 27.1458 22.4532 -1.14931 39.5039 21.795 -1.38457 39.9907 21.3845 
-1.68344 39.4266 21.364 -0.236806 39.373 22.0404 -0.594892 39.9943 21.5612 
0.611004 39.4717 21.9442 0.612859 39.9689 21.364 1.21547 39.4757 21.4996 
-1.17705 38.7733 22.0104 -1.72645 38.4934 21.3707 1.85378 38.389 21.9096 
1.71009 38.9616 21.4602 2.31077 38.543 21.2962 -1.35814 37.8031 22.1025 
-1.72702 37.3665 21.5613 2.50974 38.1454 21.7274 3.87284 37.382 21.874 
3.58681 37.9425 21.3894 4.32894 37.5012 21.2817 -1.91426 36.5545 21.3092 
4.54143 37.1647 21.7219 5.63442 37.0831 21.4323 6.85544 36.3784 22.0987 
6.64529 36.8331 21.536 7.29135 36.319 21.4927 -1.41354 35.9412 21.6073 
-0.947937 35.4077 21.3013 7.44578 35.5961 21.5073 -0.574741 34.5428 21.3937 
-0.219941 34.4665 22.0056 2.633 34.5228 21.8341 2.24448 34.3726 21.6661 
2.63018 34.8663 21.2928 3.13843 34.5092 21.515 6.61658 34.3127 22.115 
7.19951 34.7422 21.6933 -0.10824 33.499 22.1819 -0.151578 34.0492 21.6194 
0.0627339 33.2648 21.42 2.1034 33.4612 21.5765 3.54337 33.9811 21.7428 
3.9955 33.4493 22.0448 4.70626 33.92 21.4561 4.80357 33.4646 22.102 
5.82781 33.8965 21.2969 6.77271 34.0355 21.365 0.264 32.3182 21.56 
2.12481 32.4267 21.465 0.257052 31.4701 21.4555 2.2982 31.56 21.1879 
0.212147 30.4495 21.49 2.72645 30.8663 21.7293 3.12058 30.2596 21.5108 
0.1715 29.4285 21.5282 3.12384 29.316 21.5112 0.167734 28.3992 21.5192 
3.14661 28.4147 21.4669 0.258256 27.3004 21.2473 1.79256 27.2774 22.1961 
2.62902 27.4353 22.0129 3.65318 27.9335 21.419 3.73325 27.4874 21.783 
4.5319 27.4506 21.7224 4.6833 27.7972 21.4231 5.31103 27.3938 21.244 
0.741646 26.836 21.8525 1.58551 26.7055 21.8256 1.05462 26.2621 21.3328 
2.26055 26.5728 21.5793 3.05021 26.8681 21.5757 3.98604 26.9802 21.5567 
4.75673 27.0012 21.4145 1.76886 26.0873 21.1209 -1.04583 40.4978 20.9752 
-1.3807 40.7893 20.2475 -1.68278 40.2306 20.6959 -0.0596902 40.4982 21.0576 
-0.593689 41.0151 20.3589 0.647505 40.4704 20.9536 0.644259 40.9734 20.3481 
1.23333 40.4531 20.4919 -1.87396 39.4799 20.4896 1.72979 39.4628 20.962 
1.71855 39.9538 20.4612 2.20921 39.4627 20.4479 -1.85363 38.4247 20.5127 
3.02642 38.4678 20.9974 2.59514 38.9618 20.6771 3.61073 38.46 20.8006 
3.41386 38.8934 20.4079 4.06135 38.5377 20.4926 -1.97826 37.2748 20.4547 
5.06947 37.4267 20.9685 4.5793 37.9499 20.6925 5.84151 37.3584 20.7029 
5.40336 37.8612 20.4022 6.16639 37.602 20.3114 -2.31614 36.5791 20.7412 
-2.32268 36.6789 20.3127 -2.47797 36.4211 20.4623 6.5687 37.1673 20.6821 
7.7677 36.0971 20.9116 7.42626 36.8933 20.6456 8.04053 36.6558 20.2199 
-2.01634 36.1725 20.6117 -1.31545 35.7639 20.643 -0.926858 35.2938 20.446 
1.9063 35.1988 20.8117 1.37928 35.5641 20.1635 1.70183 36.0084 20.1719 
2.24612 35.581 20.3485 7.74184 35.1601 21.0317 8.24917 35.7159 20.3194 
-0.792705 34.5764 20.2817 1.60392 35.0805 20.3851 1.94317 34.4792 20.5837 
2.59991 35.2198 20.6628 3.55663 34.9723 20.5349 4.00308 34.4462 21.0438 
4.63586 34.7489 20.3114 4.77217 34.3652 20.7784 5.27853 34.5184 20.2972 
7.56387 34.3896 21.0153 8.15798 34.6982 20.5285 -0.316609 33.6128 21.0365 
-0.621849 33.6574 20.2803 2.12627 33.4896 20.4903 5.49192 34.1299 20.7325 
6.59461 34.0113 20.4938 7.77709 34.0428 20.3969 -0.220598 33.0777 20.5332 
0.118443 32.4403 20.5523 2.27286 32.5187 20.3895 0.227318 31.4686 20.4288 
2.43335 31.6734 20.4369 0.215086 30.4566 20.471 2.70931 30.983 20.8014 
3.03117 30.4301 20.4909 0.186679 29.4402 20.5142 2.7728 29.5085 20.8669 
2.39092 29.1837 20.5467 2.69316 29.8573 20.1972 0.166559 28.4101 20.5159 
2.69954 28.7389 20.9807 2.32639 28.5134 20.207 0.137386 27.538 20.3486 
3.00666 28.0644 20.5584 3.86856 27.9284 20.3276 4.75374 27.967 20.5618 
5.84793 27.4597 20.8272 5.54893 27.7829 20.7498 6.06726 27.4172 20.1931 
0.557983 26.45 21.0981 0.278779 26.5888 20.3224 2.74627 26.2114 21.139 
3.54007 26.4029 21.2117 4.37143 26.2643 20.9779 5.22468 26.6209 20.8086 
5.84975 26.955 20.5444 0.944823 26.0058 20.5483 1.65075 25.8789 20.463 
2.66398 25.9927 20.2919 3.46784 25.4633 20.3454 3.54756 25.7178 20.7704 
4.1067 25.5206 20.5631 4.77384 25.8942 20.1696 3.71615 25.2641 20.5077 
0.000692047 41.4809 19.9706 -0.515237 41.8076 19.2406 -0.778212 41.452 19.6927 
0.657821 41.4872 19.941 0.56642 42.01 19.2389 1.22641 41.4635 19.4977 
-1.32451 41.1726 19.5535 -1.77268 40.5196 19.5686 1.75441 40.4349 19.9392 
1.73242 40.9423 19.4356 2.2179 40.4505 19.4185 -1.86027 39.5081 19.4529 
3.00735 39.4568 19.9731 2.57645 39.9718 19.6578 3.99076 39.3092 19.8912 
3.44015 39.9799 19.4041 4.99727 39.3494 19.7949 4.39612 39.9892 19.4253 
5.99342 39.3364 19.8155 5.38336 40.0228 19.4693 6.92912 39.2355 19.7764 
6.35024 39.9561 19.498 7.14392 39.6775 19.4689 -1.83813 38.4366 19.4965 
4.78651 38.5967 20.1373 5.80936 38.4183 20.0385 6.79621 38.4607 19.9603 
7.60399 39.0663 19.582 7.6151 38.3837 19.7954 8.11576 38.3807 19.323 
-1.83441 37.6043 19.3338 6.82918 37.6145 20.1653 7.61479 37.5334 20.0483 
8.11478 37.4542 19.614 -2.19959 36.3746 20.0677 -1.80461 36.7732 19.4751 
1.58403 36.5214 19.8191 1.34982 36.2301 19.7529 1.90878 36.8013 19.2124 
2.01656 36.4771 19.6701 8.39089 36.6022 19.4383 -1.48268 36.0082 19.8162 
[...]
CELL_DATA 10168
SCALARS scalars float
LOOKUP_TABLE default
1023 1023 1023 1023 1023 1023 1023 1023 1023 
1023 1023 1023 1023 1023 1023 1023 1023 1023 
1023 1023 1023 1023 1023 1023 1023 1023 1023 
1023 1023 1023 1023 1023 1023 1023 1023 1023 
1023 1023 1023 1023 1023 1023 1023 1023 1023 
1023 1023 1023 1023 1023 1023 1023 1023 1023 
1023 1023 1023 1023 1023 1023 1023 1023 1023 
1023 1023 1023 1023 1023 1023 1023 1023 1023 
1023 1023 1023 1023 1023 1023 1023 1023 1023 
1023 1023 1023 1023 1023 1023 1023 1023 1023 
1023 1023 1023 1023 1023 1023 1023 1023 1023 
1023 1023 1023 1023 1023 1023 1023 1023 1023 
1023 1023 1023 1023 1023 1023 1023 1023 1023 
1023 1023 1023 1023 1023 1023 1023 1023 1023 
1023 1023 1023 1023 1023 1023 1023 1023 1023 
1023 1023 1023 1023 1023 1023 1023 1023 1023 
1023 1023 1023 1023 1023 1023 1023 1023 1023 
1023 1023 1023 1023 1023 1023 1023 1023 1023 
1023 1023 1023 1023 1023 1023 1023 1023 1023 
1023 1023 1023 1023 1023 1023 1023 1023 1023 
1023 1023 1023 1023 1023 1023 1023 1023 1023 
1023 1023 1023 1023 1023 1023 1023 1023 1023 
1023 1023 1023 1023 1023 1023 1023 1023 1023 
1023 1023 1023 1023 1023 1023 1023 1023 1023 
1023 1023 1023 1023 1023 1023 1023 1023 1023 
1023 1023 1023 1023 1023 1023 1023 1023 1023 
1023 1023 1023 1023 1023 1023 1023 1023 1023 
1023 1023 1023 1023 1023 1023 1023 1023 1023 
1023 1023 1023 1023 1023 1023 1023 1023 1023 
1023 1023 1023 1023 1023 1023 1023 1023 1023 
1023 1023 1023 1023 1023 1023 1023 1023 1023 
1023 1023 1023 1023 1023 1023 1023 1023 1023 
1023 1023 1023 1023 1023 1023 1023 1023 1023 
1023 1023 1023 1023 1023 1023 1023 1023 1023 
1023 1023 1023 1023 1023 1023 1023 1023 1023 
1023 1023 1023 1023 1023 1023 1023 1023 1023 
1023 1023 1023 1023 1023 1023 1023 1023 1023 
1023 1023 1023 1023 1023 1023 1023 1023 1023 
1023 1023 1023 1023 1023 1023 1023 1023 1023 
1023 1023 1023 1023 1023 1023 1023 1023 1023 
1023 1023 1023 1023 1023 1023 1023 1023 1023 
1023 1023 1023 1023 1023 1023 1023 1023 1023 
1023 1023 1023 1023 1023 1023 1023 1023 1023 
1023 1023 1023 1023 1023 1023 1023 1023 1023 
1023 1023 1023 1023 1023 1023 1023 1023 1023 
1023 1023 1023 1023 1023 1023 1023 1023 1023 
1023 1023 1023 1023 1023 1023 1023 1023 1023 
1023 1023 1023 1023 1023 1023 1023 1023 1023 
1023 1023 1023 1023 1023 1023 1023 1023 1023 
1023 1023 1023 1023 1023 1023 1023 1023 1023 
1023 1023 1023 1023 1023 1023 1023 1023 1023 
1023 1023 1023 1023 1023 1023 1023 1023 1023 
1023 1023 1023 1023 1023 1023 1023 1023 1023 
1023 1023 1023 1023 1023 1023 1023 1023 1023 
1023 1023 1023 1023 1023 1023 1023 1023 1023 
1023 1023 1023 1023 1023 1023 1023 1023 1023 
1023 1023 1023 1023 1023 1023 1023 1023 1023 
1023 1023 1023 1023 1023 1023 1023 1023 1023 
1023 1023 1023 1023 1023 1023 1023 1023 1023 
1023 1023 1023 1023 1023 1023 1023 1023 1023 
1023 1023 1023 1023 1023 1023 1023 1023 1023 
1023 1023 1023 1023 1023 1023 1023 1023 1023 
1023 1023 1023 1023 1023 1023 1023 1023 1023 
1023 1023 1023 1023 1023 1023 1023 1023 1023 
1023 1023 1023 1023 1023 1023 1023 1023 1023 
1023 1023 1023 1023 1023 1023 1023 1023 1023 
1023 1023 1023 1023 1023 1023 1023 1023 1023 
1023 1023 1023 1023 1023 1023 1023 1023 1023 
1023 1023 1023 1023 1023 1023 1023 1023 1023 
1023 1023 1023 1023 1023 1023 1023 1023 1023 
1023 1023 1023 1023 1023 1023 1023 1023 1023 
1023 1023 1023 1023 1023 1023 1023 1023 1023 
1023 1023 1023 1023 1023 1023 1023 1023 1023 
1023 1023 1023 1023 1023 1023 1023 1023 1023 
1023 1023 1023 1023 1023 1023 1023 1023 1023 
1023 1023 1023 1023 1023 1023 1023 1023 1023 
1023 1023 1023 1023 1023 1023 1023 1023 1023 
1023 1023 1023 1023 1023 1023 1023 1023 1023 
1023 1023 1023 1023 1023 1023 1023 1023 1023 
1023 1023 1023 1023 1023 1023 1023 1023 1023 
1023 1023 1023 1023 1023 1023 1023 1023 1023 
1023 1023 1023 1023 1023 1023 1023 1023 1023 
1023 1023 1023 1023 1023 1023 1023 1023 1023 
1023 1023 1023 1023 1023 1023 1023 1023 1023 
1023 1023 1023 1023 1023 1023 1023 1023 1023 
1023 1023 1023 1023 1023 1023 1023 1023 1023 
1023 1023 1023 1023 1023 1023 1023 1023 1023 
1023 1023 1023 1023 1023 1023 1023 1023 1023 
1023 1023 1023 1023 1023 1023 1023 1023 1023 
1023 1023 1023 1023 1023 1023 1023 1023 1023 
1023 1023 1023 1023 1023 1023 1023 1023 1023 
1023 1023 1023 1023 1023 1023 1023 1023 1023 
1023 1023 1023 1023 1023 1023 1023 1023 1023 
1023 1023 1023 1023 1023 1023 1023 1023 1023 
1023 1023 1023 1023 1023 1023 1023 1023 1023 
1023 1023 1023 1023 1023 1023 1023 1023 1023 
1023 1023 1023 1023 1023 1023 1023 1023 1023 
1023 1023 1023 1023 1023 1023 1023 1023 1023 
1023 1023 1023 1023 1023 1023 1023 1023 1023 
1023 1023 1023 1023 1023 1023 1023 1023 1023 
1023 1023 1023 1023 1023 1023 1023 1023 1023 
1023 1023 1023 1023 1023 1023 1023 1023 1023 
1023 1023 1023 1023 1023 1023 1023 1023 1023 
1023 1023 1023 1023 1023 1023 1023 1023 1023 
1023 1023 1023 1023 1023 1023 1023 1023 1023 
1023 1023 1023 1023 1023 1023 1023 1023 1023 
1023 1023 1023 1023 1023 1023 1023 1023 1023 
1023 1023 1023 1023 1023 1023 1023 1023 1023 
1023 1023 1023 1023 1023 1023 1023 1023 1023 
1023 1023 1023 1023 1023 1023 1023 1023 1023 
1023 1023 1023 1023 1023 1023 1023 1023 1023 
1023 1023 1023 1023 1023 1023 1023 1023 1023 
1023 1023 1023 1023 1023 1023 1023 1023 1023 
1023 1023 1023 1023 1023 1023 1023 1023 1023 
1023 1023 1023 1023 1023 1023 1023 1023 1023 
1023 1023 1023 1023 1023 1023 1023 1023 1023 
1023 1023 1023 1023 1023 1023 1023 1023 1023 
1023 1023 1023 1023 1023 1023 1023 1023 1023 
1023 1023 1023 1023 1023 1023 1023 1023 1023 
1023 1023 1023 1023 1023 1023 1023 1023 1023 
1023 1023 1023 1023 1023 1023 1023 1023 1023 
1023 1023 1023 1023 1023 1023 1023 1023 1023 
1023 1023 1023 1023 1023 1023 1023 1023 1023 
1023 1023 1023 1023 1023 1023 1023 1023 1023 
1023 1023 1023 1023 1023 1023 1023 1023 1023 
1023 1023 1023 1023 1023 1023 1023 1023 1023 
1023 1023 1023 1023 1023 1023 1023 1023 1023 
1023 1023 1023 1023 1023 1023 1023 1023 1023 
1023 1023 1023 1023 1023 1023 1023 1023 1023 
1023 1023 1023 1023 1023 1023 1023 1023 1023 
1023 1023 1023 1023 1023 1023 1023 1023 1023 
1023 1023 1023 1023 1023 1023 1023 1023 1023 
1023 1023 1023 1023 1023 1023 1023 1023 1023 
1023 1023 1023 1023 1023 1023 1023 1023 1023 
1023 1023 1023 1023 1023 1023 1023 1023 1023 
1023 1023 1023 1023 1023 1023 1023 1023 1023 
1023 1023 1023 1023 1023 1023 1023 1023 1023 
1023 1023 1023 1023 1023 1023 1023 1023 1023 
1023 1023 1023 1023 1023 1023 1023 1023 1023 
1023 1023 1023 1023 1023 1023 1023 1023 1023 
1023 1023 1023 1023 1023 1023 1023 1023 1023 
1023 1023 1023 1023 1023 1023 1023 1023 1023 
1023 1023 1023 1023 1023 1023 1023 1023 1023 
1023 1023 1023 1023 1023 1023 1023 1023 1023 
1023 1023 1023 1023 1023 1023 1023 1023 1023 
1023 1023 1023 1023 1023 1023 1023 1023 1023 
1023 1023 1023 1023 1023 1023 1023 1023 1023 
1023 1023 1023 1023 1023 1023 1023 1023 1023 
1023 1023 1023 1023 1023 1023 1023 1023 1023 
1023 1023 1023 1023 1023 1023 1023 1023 1023 
1023 1023 1023 1023 1023 1023 1023 1023 1023 
1023 1023 1023 1023 1023 1023 1023 1023 1023 
1023 1023 1023 1023 1023 1023 1023 1023 1023 
1023 1023 1023 1023 1023 1023 1023 1023 1023 
1023 1023 1023 1023 1023 1023 1023 1023 1023 
1023 1023 1023 1023 1023 1023 1023 1023 1023 
1023 1023 1023 1023 1023 1023 1023 1023 1023 
1023 1023 1023 1023 1023 1023 1023 1023 1023 
1023 1023 1023 1023 1023 1023 1023 1023 1023 
1023 1023 1023 1023 1023 1023 1023 1023 1023 
1023 1023 1023 1023 1023 1023 1023 1023 1023 
1023 1023 1023 1023 1023 1023 1023 1023 1023 
1023 1023 1023 1023 1023 1023 1023 1023 1023 
1023 1023 1023 1023 1023 1023 1023 1023 1023 
1023 1023 1023 1023 1023 1023 1023 1023 1023 
1023 1023 1023 1023 1023 1023 1023 1023 1023 
1023 1023 1023 1023 1023 1023 1023 1023 1023 
1023 1023 1023 1023 1023 1023 1023 1023 1023 
1023 1023 1023 1023 1023 1023 1023 1023 1023 
1023 1023 1023 1023 1023 1023 1023 1023 1023 
1023 1023 1023 1023 1023 1023 1023 1023 1023 
1023 1023 1023 1023 1023 1023 1023 1023 1023 
1023 1023 1023 1023 1023 1023 1023 1023 1023 
1023 1023 1023 1023 1023 1023 1023 1023 1023 
1023 1023 1023 1023 1023 1023 1023 1023 1023 
1023 1023 1023 1023 1023 1023 1023 1023 1023 
1023 1023 1023 1023 1023 1023 1023 1023 1023 
1023 1023 1023 1023 1023 1023 1023 1023 1023 
1023 1023 1023 1023 1023 1023 1023 1023 1023 
1023 1023 1023 1023 1023 1023 1023 1023 1023 
1023 1023 1023 1023 1023 1023 1023 1023 1023 
1023 1023 1023 1023 1023 1023 1023 1023 1023 
1023 1023 1023 1023 1023 1023 1023 1023 1023 
1023 1023 1023 1023 1023 1023 1023 1023 1023 
1023 1023 1023 1023 1023 1023 1023 1023 1023 
1023 1023 1023 1023 1023 1023 1023 1023 1023 
1023 1023 1023 1023 1023 1023 1023 1023 1023 
1023 1023 1023 1023 1023 1023 1023 1023 1023 
1023 1023 1023 1023 1023 1023 1023 1023 1023 
1023 1023 1023 1023 1023 1023 1023 1023 1023 
1023 1023 1023 1023 1023 1023 1023 1023 1023 
1023 1023 1023 1023 1023 1023 1023 1023 1023 
1023 1023 1023 1023 1023 1023 1023 1023 1023 
1023 1023 1023 1023 1023 1023 1023 1023 1023 
1023 1023 1023 1023 1023 1023 1023 1023 1023 
1023 1023 1023 1023 1023 1023 1023 1023 1023 
1023 1023 1023 1023 1023 1023 1023 1023 1023 
1023 1023 1023 1023 1023 1023 1023 1023 1023 
1023 1023 1023 1023 1023 1023 1023 1023 1023 
1023 1023 1023 1023 1023 1023 1023 1023 1023 
1023 1023 1023 1023 1023 1023 1023 1023 1023 
1023 1023 1023 1023 1023 1023 1023 1023 1023 
1023 1023 1023 1023 1023 1023 1023 1023 1023 
1023 1023 1023 1023 1023 1023 1023 1023 1023 
1023 1023 1023 1023 1023 1023 1023 1023 1023 
1023 1023 1023 1023 1023 1023 1023 1023 1023 
1023 1023 1023 1023 1023 1023 1023 1023 1023 
1023 1023 1023 1023 1023 1023 1023 1023 1023 
1023 1023 1023 1023 1023 1023 1023 1023 1023 
1023 1023 1023 1023 1023 1023 1023 1023 1023 
1023 1023 1023 1023 1023 1023 1023 1023 1023 
1023 1023 1023 1023 1023 1023 1023 1023 1023 
1023 1023 1023 1023 1023 1023 1023 1023 1023 
1023 1023 1023 1023 1023 1023 1023 1023 1023 
1023 1023 1023 1023 1023 1023 1023 1023 1023 
1023 1023 1023 1023 1023 1023 1023 1023 1023 
1023 1023 1023 1023 1023 1023 1023 1023 1023 
1023 1023 1023 1023 1023 1023 1023 1023 1023 
1023 1023 1023 1023 1023 1023 1023 1023 1023 
1023 1023 1023 1023 1023 1023 1023 1023 1023 
1023 1023 1023 1023 1023 1023 1023 1023 1023 
1023 1023 1023 1023 1023 1023 1023 1023 1023 
1023 1023 1023 1023 1023 1023 1023 1023 1023 
1023 1023 1023 1023 1023 1023 1023 1023 1023 
1023 1023 1023 1023 1023 1023 1023 1023 1023 
1023 1023 1023 1023 1023 1023 1023 1023 1023 
1023 1023 1023 1023 1023 1023 1023 1023 1023 
1023 1023 1023 1023 1023 1023 1023 1023 1023 
1023 1023 1023 1023 1023 1023 1023 1023 1023 
1023 1023 1023 1023 1023 1023 1023 1023 1023 
1023 1023 1023 1023 1023 1023 1023 1023 1023 
1023 1023 1023 1023 1023 1023 1023 1023 1023 
1023 1023 1023 1023 1023 1023 1023 1023 1023 
1023 1023 1023 1023 1023 1023 1023 1023 1023 
1023 1023 1023 1023 1023 1023 1023 1023 1023 
1023 1023 1023 1023 1023 1023 1023 1023 1023 
1023 1023 1023 1023 1023 1023 1023 1023 1023 
1023 1023 1023 1023 1023 1023 1023 1023 1023 
1023 1023 1023 1023 1023 1023 1023 1023 1023 
1023 1023 1023 1023 1023 1023 1023 1023 1023 
1023 1023 1023 1023 1023 1023 1023 1023 1023 
1023 1023 1023 1023 1023 1023 1023 1023 1023 
1023 1023 1023 1023 1023 1023 1023 1023 1023 
1023 1023 1023 1023 1023 1023 1023 1023 1023 
1023 1023 1023 1023 1023 1023 1023 1023 1023 
1023 1023 1023 1023 1023 1023 1023 1023 1023 
1023 1023 1023 1023 1023 1023 1023 1023 1023 
1023 1023 1023 1023 1023 1023 1023 1023 1023 
1023 1023 1023 1023 1023 1023 1023 1023 1023 
1023 1023 1023 1023 1023 1023 1023 1023 1023 
1023 1023 1023 1023 1023 1023 1023 1023 1023 
1023 1023 1023 1023 1023 1023 1023 1023 1023 
1023 1023 1023 1023 1023 1023 1023 1023 1023 
1023 1023 1023 1023 1023 1023 1023 1023 1023 
1023 1023 1023 1023 1023 1023 1023 1023 1023 
1023 1023 1023 1023 1023 1023 1023 1023 1023 
1023 1023 1023 1023 1023 1023 1023 1023 1023 
1023 1023 1023 1023 1023 1023 1023 1023 1023 
1023 1023 1023 1023 1023 1023 1023 1023 1023 
1023 1023 1023 1023 1023 1023 1023 1023 1023 
1023 1023 1023 1023 1023 1023 1023 1023 1023 
1023 1023 1023 1023 1023 1023 1023 1023 1023 
1023 1023 1023 1023 1023 1023 1023 1023 1023 
1023 1023 1023 1023 1023 1023 1023 1023 1023 
1023 1023 1023 1023 1023 1023 1023 1023 1023 
1023 1023 1023 1023 1023 1023 1023 1023 1023 
1023 1023 1023 1023 1023 1023 1023 1023 1023 
1023 1023 1023 1023 1023 1023 1023 1023 1023 
1023 1023 1023 1023 1023 1023 1023 1023 1023 
1023 1023 1023 1023 1023 1023 1023 1023 1023 
1023 1023 1023 1023 1023 1023 1023 1023 1023 
1023 1023 1023 1023 1023 1023 1023 1023 1023 
1023 1023 1023 1023 1023 1023 1023 1023 1023 
1023 1023 1023 1023 1023 1023 1023 1023 1023 
1023 1023 1023 1023 1023 1023 1023 1023 1023 
1023 1023 1023 1023 1023 1023 1023 1023 1023 
1023 1023 1023 1023 1023 1023 1023 1023 1023 
1023 1023 1023 1023 1023 1023 1023 1023 1023 
1023 1023 1023 1023 1023 1023 1023 1023 1023 
1023 1023 1023 1023 1023 1023 1023 1023 1023 
1023 1023 1023 1023 1023 1023 1023 1023 1023 
1023 1023 1023 1023 1023 1023 1023 1023 1023 
1023 1023 1023 1023 1023 1023 1023 1023 1023 
1023 1023 1023 1023 1023 1023 1023 1023 1023 
1023 1023 1023 1023 1023 1023 1023 1023 1023 
1023 1023 1023 1023 1023 1023 1023 1023 1023 
1023 1023 1023 1023 1023 1023 1023 1023 1023 
1023 1023 1023 1023 1023 1023 1023 1023 1023 
1023 1023 1023 1023 1023 1023 1023 1023 1023 
1023 1023 1023 1023 1023 1023 1023 1023 1023 
1023 1023 1023 1023 1023 1023 1023 1023 1023 
1023 1023 1023 1023 1023 1023 1023 1023 1023 
1023 1023 1023 1023 1023 1023 1023 1023 1023 
1023 1023 1023 1023 1023 1023 1023 1023 1023 
1023 1023 1023 1023 1023 1023 1023 1023 1023 
1023 1023 1023 1023 1023 1023 1023 1023 1023 
1023 1023 1023 1023 1023 1023 1023 1023 1023 
1023 1023 1023 1023 1023 1023 1023 1023 1023 
1023 1023 1023 1023 1023 1023 1023 1023 1023 
1023 1023 1023 1023 1023 1023 1023 1023 1023 
1023 1023 1023 1023 1023 1023 1023 1023 1023 
1023 1023 1023 1023 1023 1023 1023 1023 1023 
1023 1023 1023 1023 1023 1023 1023 1023 1023 
1023 1023 1023 1023 1023 1023 1023 1023 1023 
1023 1023 1023 1023 1023 1023 1023 1023 1023 
1023 1023 1023 1023 1023 1023 1023 1023 1023 
1023 1023 1023 1023 1023 1023 1023 1023 1023 
1023 1023 1023 1023 1023 1023 1023 1023 1023 
1023 1023 1023 1023 1023 1023 1023 1023 1023 
1023 1023 1023 1023 1023 1023 1023 1023 1023 
1023 1023 1023 1023 1023 1023 1023 1023 1023 
1023 1023 1023 1023 1023 1023 1023 1023 1023 
1023 1023 1023 1023 1023 1023 1023 1023 1023 
1023 1023 1023 1023 1023 1023 1023 1023 1023 
1023 1023 1023 1023 1023 1023 1023 1023 1023 
1023 1023 1023 1023 1023 1023 1023 1023 1023 
1023 1023 1023 1023 1023 1023 1023 1023 1023 
1023 1023 1023 1023 1023 1023 1023 1023 1023 
1023 1023 1023 1023 1023 1023 1023 1023 1023 
1023 1023 1023 1023 1023 1023 1023 1023 1023 
1023 1023 1023 1023 1023 1023 1023 1023 1023 
1023 1023 1023 1023 1023 1023 1023 1023 1023 
1023 1023 1023 1023 1023 1023 1023 1023 1023 
1023 1023 1023 1023 1023 1023 1023 1023 1023 
1023 1023 1023 1023 1023 1023 1023 1023 1023 
1023 1023 1023 1023 1023 1023 1023 1023 1023 
1023 1023 1023 1023 1023 1023 1023 1023 1023 
1023 1023 1023 1023 1023 1023 1023 1023 1023 
1023 1023 1023 1023 1023 1023 1023 1023 1023 
1023 1023 1023 1023 1023 1023 1023 1023 1023 
1023 1023 1023 1023 1023 1023 1023 1023 1023 
1023 1023 1023 1023 1023 1023 1023 1023 1023 
1023 1023 1023 1023 1023 1023 1023 1023 1023 
1023 1023 1023 1023 1023 1023 1023 1023 1023 
1023 1023 1023 1023 1023 1023 1023 1023 1023 
1023 1023 1023 1023 1023 1023 1023 1023 1023 
1023 1023 1023 1023 1023 1023 1023 1023 1023 
1023 1023 1023 1023 1023 1023 1023 1023 1023 
1023 1023 1023 1023 1023 1023 1023 1023 1023 
1023 1023 1023 1023 1023 1023 1023 1023 1023 
1023 1023 1023 1023 1023 1023 1023 1023 1023 
1023 1023 1023 1023 1023 1023 1023 1023 1023 
1023 1023 1023 1023 1023 1023 1023 1023 1023 
1023 1023 1023 1023 1023 1023 1023 1023 1023 
1023 1023 1023 1023 1023 1023 1023 1023 1023 
1023 1023 1023 1023 1023 1023 1023 1023 1023 
1023 1023 1023 1023 1023 1023 1023 1023 1023 
1023 1023 1023 1023 1023 1023 1023 1023 1023 
1023 1023 1023 1023 1023 1023 1023 1023 1023 
1023 1023 1023 1023 1023 1023 1023 1023 1023 
1023 1023 1023 1023 1023 1023 1023 1023 1023 
1023 1023 1023 1023 1023 1023 1023 1023 1023 
1023 1023 1023 1023 1023 1023 1023 1023 1023 
1023 1023 1023 1023 1023 1023 1023 1023 1023 
1023 1023 1023 1023 1023 1023 1023 1023 1023 
1023 1023 1023 1023 1023 1023 1023 1023 1023 
1023 1023 1023 1023 1023 1023 1023 1023 1023 
1023 1023 1023 1023 1023 1023 1023 1023 1023 
1023 1023 1023 1023 1023 1023 1023 1023 1023 
1023 1023 1023 1023 1023 1023 1023 1023 1023 
1023 1023 1023 1023 1023 1023 1023 1023 1023 
1023 1023 1023 1023 1023 1023 1023 1023 1023 
1023 1023 1023 1023 1023 1023 1023 1023 1023 
1023 1023 1023 1023 1023 1023 1023 1023 1023 
1023 1023 1023 1023 1023 1023 1023 1023 1023 
1023 1023 1023 1023 1023 1023 1023 1023 1023 
1023 1023 1023 1023 1023 1023 1023 1023 1023 
1023 1023 1023 1023 1023 1023 1023 1023 1023 
1023 1023 1023 1023 1023 1023 1023 1023 1023 
1023 1023 1023 1023 1023 1023 1023 1023 1023 
1023 1023 1023 1023 1023 1023 1023 1023 1023 
1023 1023 1023 1023 1023 1023 1023 1023 1023 
1023 1023 1023 1023 1023 1023 1023 1023 1023 
1023 1023 1023 1023 1023 1023 1023 1023 1023 
1023 1023 1023 1023 1023 1023 1023 1023 1023 
1023 1023 1023 1023 1023 1023 1023 1023 1023 
1023 1023 1023 1023 1023 1023 1023 1023 1023 
1023 1023 1023 1023 1023 1023 1023 1023 1023 
1023 1023 1023 1023 1023 1023 1023 1023 1023 
1023 1023 1023 1023 1023 1023 1023 1023 1023 
1023 1023 1023 1023 1023 1023 1023 1023 1023 
1023 1023 1023 1023 1023 1023 1023 1023 1023 
1023 1023 1023 1023 1023 1023 1023 1023 1023 
1023 1023 1023 1023 1023 1023 1023 1023 1023 
1023 1023 1023 1023 1023 1023 1023 1023 1023 
1023 1023 1023 1023 1023 1023 1023 1023 1023 
1023 1023 1023 1023 1023 1023 1023 1023 1023 
1023 1023 1023 1023 1023 1023 1023 1023 1023 
1023 1023 1023 1023 1023 1023 1023 1023 1023 
1023 1023 1023 1023 1023 1023 1023 1023 1023 
1023 1023 1023 1023 1023 1023 1023 1023 1023 
1023 1023 1023 1023 1023 1023 1023 1023 1023 
1023 1023 1023 1023 1023 1023 1023 1023 1023 
1023 1023 1023 1023 1023 1023 1023 1023 1023 
1023 1023 1023 1023 1023 1023 1023 1023 1023 
1023 1023 1023 1023 1023 1023 1023 1023 1023 
1023 1023 1023 1023 1023 1023 1023 1023 1023 
1023 1023 1023 1023 1023 1023 1023 1023 1023 
1023 1023 1023 1023 1023 1023 1023 1023 1023 
1023 1023 1023 1023 1023 1023 1023 1023 1023 
1023 1023 1023 1023 1023 1023 1023 1023 1023 
1023 1023 1023 1023 1023 1023 1023 1023 1023 
1023 1023 1023 1023 1023 1023 1023 1023 1023 
1023 1023 1023 1023 1023 1023 1023 1023 1023 
1023 1023 1023 1023 1023 1023 1023 1023 1023 
1023 1023 1023 1023 1023 1023 1023 1023 1023 
1023 1023 1023 1023 1023 1023 1023 1023 1023 
1023 1023 1023 1023 1023 1023 1023 1023 1023 
1023 1023 1023 1023 1023 1023 1023 1023 1023 
1023 1023 1023 1023 1023 1023 1023 1023 1023 
1023 1023 1023 1023 1023 1023 1023 1023 1023 
1023 1023 1023 1023 1023 1023 1023 1023 1023 
1023 1023 1023 1023 1023 1023 1023 1023 1023 
1023 1023 1023 1023 1023 1023 1023 1023 1023 
1023 1023 1023 1023 1023 1023 1023 1023 1023 
1023 1023 1023 1023 1023 1023 1023 1023 1023 
1023 1023 1023 1023 1023 1023 1023 1023 1023 
1023 1023 1023 1023 1023 1023 1023 1023 1023 
1023 1023 1023 1023 1023 1023 1023 1023 1023 
1023 1023 1023 1023 1023 1023 1023 1023 1023 
1023 1023 1023 1023 1023 1023 1023 1023 1023 
1023 1023 1023 1023 1023 1023 1023 1023 1023 
1023 1023 1023 1023 1023 1023 1023 1023 1023 
1023 1023 1023 1023 1023 1023 1023 1023 1023 
1023 1023 1023 1023 1023 1023 1023 1023 1023 
1023 1023 1023 1023 1023 1023 1023 1023 1023 
1023 1023 1023 1023 1023 1023 1023 1023 1023 
1023 1023 1023 1023 1023 1023 1023 1023 1023 
1023 1023 1023 1023 1023 1023 1023 1023 1023 
1023 1023 1023 1023 1023 1023 1023 1023 1023 
1023 1023 1023 1023 1023 1023 1023 1023 1023 
1023 1023 1023 1023 1023 1023 1023 1023 1023 
1023 1023 1023 1023 1023 1023 1023 1023 1023 