# vtk DataFile Version 4.2
vtk output
ASCII
DATASET POLYDATA
POINTS 2280 float
9.67665 -29.1811 44.282 9.81208 -28.9544 44.1406 9.9647 -29.2376 44.1091 
9.66465 -29.0034 44.1432 9.7358 -29.662 44.3681 10.0474 -29.7392 44.1283 
9.42731 -29.2635 44.0025 9.17509 -29.7437 44.3509 8.90874 -29.6273 43.9097 
3.65398 -29.8247 44.3666 3.72035 -29.494 43.9386 4.0635 -29.771 44.1562 
3.06998 -29.8423 44.3353 3.23898 -29.4889 44.0549 2.83608 -29.63 44.0585 
2.01165 -29.6669 44.2084 2.00458 -29.5024 44.1484 2.12546 -29.5929 44.0965 
1.85533 -29.591 44.1025 9.73931 -30.2404 44.3205 10.0636 -30.2268 44.0153 
9.19037 -30.2951 44.4824 8.62839 -29.9529 44.1336 8.50426 -30.3361 44.4067 
7.96011 -30.4459 44.3046 8.04992 -29.9987 43.9497 7.64559 -30.2802 44.0582 
5.46462 -30.2405 44.2607 5.54496 -30.0974 43.9243 5.76992 -30.4172 43.9797 
4.94023 -30.3534 44.3274 5.0263 -30.0555 44.0632 4.22354 -30.2596 44.3958 
4.47976 -29.9833 44.0905 3.69093 -30.3844 44.483 3.27708 -30.2109 44.4643 
2.67313 -29.9434 44.1785 2.78716 -30.362 44.2979 1.98773 -29.8129 44.0687 
2.41897 -30.2052 44.0848 9.72798 -30.6599 44.1846 9.55345 -31.1249 44.1424 
9.23399 -30.8915 44.3834 8.6873 -30.835 44.4773 8.1689 -30.9465 44.3533 
7.69859 -30.6885 44.1576 5.44486 -30.5492 44.1579 4.98568 -30.707 44.2096 
4.72603 -30.9214 44.1412 4.52492 -30.7499 44.328 3.93679 -30.8338 44.3737 
3.28268 -30.7816 44.3529 2.80253 -30.8375 44.1724 2.46619 -30.581 44.0843 
9.18885 -31.4045 44.2753 9.39949 -31.5839 44.0803 8.69961 -31.3839 44.328 
8.24408 -31.4299 44.1658 7.88947 -31.1517 44.1011 4.36937 -31.171 44.0459 
3.62678 -31.2325 44.1363 3.09874 -31.1416 44.1007 8.99615 -31.7825 44.1164 
8.54288 -31.7306 44.0769 9.79574 -29.1443 43.9306 8.99485 -29.1415 43.7406 
9.1103 -28.7362 43.3594 9.43526 -29.0941 43.4126 8.39798 -29.1097 43.7274 
8.5671 -28.8094 43.4639 7.94036 -29.1832 43.6896 8.07683 -28.8846 43.5366 
7.78245 -29.066 43.3974 1.82923 -28.9561 43.4357 2.20818 -29.1832 43.4669 
1.88982 -29.2609 43.8316 1.34701 -29.1769 43.6854 1.4926 -28.9419 43.5494 
1.21574 -29.0776 43.5099 9.71067 -29.4073 43.5298 10.091 -29.674 43.7226 
8.61955 -29.5103 43.6323 8.71969 -29.7176 43.541 8.36079 -29.7492 43.604 
8.13146 -29.528 43.738 7.69446 -29.6812 43.4523 3.9063 -29.4423 43.396 
4.13197 -29.6747 43.7346 3.3867 -29.2874 43.4988 2.36969 -29.6964 43.917 
2.73452 -29.3329 43.5632 1.52206 -29.752 43.8321 1.06916 -29.4963 43.4612 
10.3302 -30.303 43.7295 10.3239 -30.0184 43.3187 10.595 -30.4193 43.4966 
8.55054 -29.8524 43.6839 7.24693 -30.407 43.8474 7.34372 -30.0905 43.5374 
6.78962 -30.3885 43.6594 6.7946 -30.0997 43.4415 6.46729 -30.2413 43.4082 
5.71199 -30.0412 43.3989 5.91102 -30.3672 43.5976 5.16543 -29.8973 43.4855 
4.58847 -29.851 43.6242 2.0524 -30.3125 43.9261 1.52267 -30.4222 43.7012 
1.04467 -30.2376 43.4106 10.3685 -30.8279 43.6959 10.6514 -30.904 43.3214 
9.99631 -30.7703 43.9458 7.50766 -31.0041 43.9138 7.00401 -30.9088 43.7042 
6.53528 -30.6533 43.4962 5.63024 -30.7751 43.8219 5.85609 -30.8349 43.5434 
5.10586 -30.9446 43.9107 2.5389 -31.0514 43.9272 1.90585 -30.9144 43.762 
1.56624 -30.8729 43.5654 1.3108 -30.6612 43.4242 10.3513 -31.2387 43.5573 
10.1603 -31.6993 43.5278 9.85391 -31.4266 43.8324 7.95399 -31.6388 43.9033 
7.3425 -31.4925 43.722 7.01 -31.4336 43.5291 6.71177 -31.1328 43.4514 
5.44187 -31.1437 43.4992 4.88054 -31.2968 43.6169 4.43686 -31.4686 43.7059 
4.73941 -31.5414 43.3922 3.93913 -31.5201 43.8198 3.23806 -31.4772 43.8459 
2.68388 -31.5388 43.7492 2.18324 -31.4415 43.7088 1.72625 -31.3231 43.5336 
9.72481 -32.0805 43.6992 10.0498 -32.0597 43.5056 9.2142 -32.0908 43.8988 
8.51589 -32.1354 43.8998 7.87694 -32.2249 43.8258 7.35146 -32.1421 43.7358 
7.05049 -31.8998 43.5035 4.33812 -31.6843 43.4269 3.72957 -31.8134 43.4759 
3.04522 -31.8324 43.5517 2.42569 -31.8353 43.4426 1.86524 -31.7058 43.3651 
9.85516 -32.4123 43.4537 9.48513 -32.7323 43.5259 9.21239 -32.6597 43.7268 
8.58942 -32.7254 43.8383 7.98169 -32.7266 43.8333 7.37943 -32.7264 43.8143 
6.89039 -32.3629 43.5522 6.86843 -32.748 43.6953 6.57823 -32.6803 43.4705 
9.2399 -33.0297 43.4665 8.85916 -33.3237 43.5391 8.68738 -33.1687 43.7152 
8.13477 -33.2381 43.7475 7.53475 -33.2399 43.7473 6.97203 -33.2242 43.6972 
6.53184 -33.117 43.5088 8.53701 -33.5604 43.4474 7.81419 -33.625 43.5313 
7.21559 -33.6091 43.514 6.73152 -33.5013 43.47 9.11809 -28.4602 43.0429 
9.21663 -28.3823 42.8943 9.34691 -28.6084 43.0676 8.98676 -28.5382 42.7645 
9.41448 -28.9546 42.9186 8.70829 -28.623 43.0185 8.09891 -28.826 43.0355 
7.76941 -29.2535 42.9935 3.02164 -29.0696 43.1883 3.12606 -28.8799 42.7191 
3.40822 -29.0988 42.9875 2.56803 -29.1161 43.1233 2.65103 -28.8871 42.8276 
1.92539 -29.0533 43.2399 2.24867 -29.0342 42.8161 1.44125 -29.1241 43.2387 
9.921 -29.7195 43.2613 9.63095 -29.4709 42.9196 8.58928 -29.7354 43.436 
7.70925 -29.6864 42.9964 4.78483 -29.6656 43.1543 5.02477 -29.4569 42.6805 
5.24631 -29.7003 42.9871 4.31884 -29.6294 43.3164 4.3212 -29.4312 42.8838 
3.74566 -29.2814 42.926 2.06417 -29.1834 43.0742 1.46655 -29.2248 42.8722 
0.956607 -29.38 42.9897 0.750137 -29.8856 43.1884 0.57735 -29.5655 42.781 
10.2676 -30.0666 42.8377 10.6078 -30.3697 43.1091 9.97348 -29.8507 42.9831 
7.43062 -30.2157 43.1859 7.58001 -30.1096 42.8992 7.07526 -30.3316 42.9316 
6.7373 -30.1364 42.9906 6.14844 -30.3336 43.3335 6.13073 -30.0478 42.977 
5.55116 -29.8603 43.0549 0.745422 -30.268 43.1693 0.557556 -30.1868 42.7987 
10.6715 -30.8812 42.8558 7.28072 -30.4508 42.8314 6.2407 -30.9678 43.3227 
1.37627 -31.1113 43.2766 1.05293 -30.8496 43.0757 0.755951 -30.6114 42.9296 
10.5022 -31.4494 43.3153 10.6812 -31.471 42.9767 6.65676 -31.6083 43.2861 
6.24243 -31.512 43.1589 5.80814 -31.4832 43.1517 5.19137 -31.4992 43.208 
1.47991 -31.5232 43.2205 1.11679 -31.3561 42.9184 10.3739 -31.9781 43.2108 
10.6438 -32.1231 42.6885 6.64221 -32.2388 43.3163 6.21784 -32.0423 43.0907 
5.82177 -32.0561 42.8839 5.4157 -31.8486 42.855 4.83349 -31.7931 42.9748 
4.27831 -31.9173 43.0572 3.86347 -32.0541 43.1249 4.16349 -32.1423 42.7968 
3.37042 -32.1085 43.245 2.79515 -32.1252 43.2233 2.35328 -32.0957 43.0444 
1.89823 -31.9404 42.899 1.33045 -31.7257 42.8291 10.2796 -32.4625 43.0053 
9.80401 -32.7336 43.2181 10.1329 -32.728 42.9064 6.1722 -32.7987 43.1985 
5.8701 -32.5181 42.8743 3.69767 -32.292 42.776 3.05059 -32.3303 42.8569 
2.48259 -32.2934 42.7771 9.82384 -33.0256 42.9054 9.18022 -33.325 43.2287 
9.51843 -33.3183 42.9104 6.21342 -33.475 43.2844 5.65273 -32.9067 42.9351 
5.52881 -33.3224 43.1418 4.98405 -33.4237 43.0696 5.07371 -32.9817 42.7715 
4.70387 -33.2861 42.8252 9.19915 -33.6072 42.9263 8.54804 -33.9435 43.1455 
8.91336 -33.8936 42.9208 7.96215 -34.0036 43.3134 7.36081 -34.0054 43.3136 
6.70501 -33.9153 43.2802 6.08016 -34.01 43.2209 5.56574 -33.9088 43.2362 
4.94079 -33.9284 43.1854 4.6067 -33.6995 42.9602 8.65621 -34.1956 42.8599 
8.28172 -34.5044 42.9197 8.00723 -34.4432 43.1271 7.38271 -34.5174 43.2321 
6.79156 -34.5141 43.2172 6.18499 -34.5095 43.2067 5.57588 -34.4998 43.224 
5.06669 -34.4131 43.2417 4.4482 -34.1588 43.0049 4.55437 -34.5867 43.1076 
4.14846 -34.4844 42.718 8.03638 -34.8176 42.8639 7.64648 -35.131 42.9439 
7.47635 -34.9612 43.1151 6.9151 -35.0421 43.1478 6.32258 -35.0488 43.1413 
5.71976 -35.0457 43.142 5.05167 -34.9768 43.1391 4.57043 -35.0502 42.9952 
4.28678 -34.8915 42.8465 7.33106 -35.3764 42.8643 6.61218 -35.444 42.9472 
6.01385 -35.4462 42.94 5.39834 -35.4284 42.9377 4.86907 -35.341 42.9125 
9.25999 -28.5911 42.7874 9.19633 -29.0102 42.5261 8.54441 -28.8539 42.4846 
8.87953 -29.1491 42.1533 8.04553 -29.0588 42.5952 8.2983 -29.2415 42.2793 
3.05986 -28.8722 42.1897 3.45948 -29.1505 42.3254 2.70703 -28.7637 42.412 
1.76216 -29.0681 42.6426 2.07811 -28.8899 42.354 1.18354 -29.0768 42.6069 
1.32792 -28.9018 42.2043 0.74968 -29.1499 42.623 0.79389 -28.8596 42.2291 
0.450696 -29.1193 42.3279 9.93755 -29.7967 42.5826 9.65257 -29.4555 42.2006 
9.9966 -29.7445 42.2159 9.24782 -29.2332 42.1771 7.87888 -29.6202 42.5594 
8.1708 -29.7084 42.2145 5.61955 -29.7305 42.622 5.40714 -29.5162 42.3123 
5.7462 -29.8198 42.1961 4.90833 -29.4291 42.3127 4.4027 -29.4342 42.3869 
3.88149 -29.4016 42.3598 0.369461 -29.6553 42.4109 10.4388 -30.4734 42.6487 
10.1593 -30.1116 42.2849 7.81805 -29.9885 42.1337 7.53182 -30.0951 42.3707 
7.28222 -30.3888 42.5586 6.71809 -30.3413 42.6678 7.13404 -30.3244 42.0849 
6.35946 -30.32 42.5402 5.95978 -30.1426 42.343 0.368381 -30.1916 42.3476 
10.4878 -30.9409 42.5032 10.2324 -30.7664 42.1445 6.78153 -30.5099 42.3493 
6.19296 -30.4774 42.1381 0.766809 -31.1243 42.6575 0.464163 -30.8264 42.3534 
10.3869 -31.2409 42.2109 10.6413 -31.4672 42.4982 0.866895 -31.5222 42.5879 
0.602261 -31.3849 42.3076 10.6571 -32.0176 42.2773 5.51534 -32.3036 42.672 
5.10618 -32.1015 42.6383 4.61892 -32.1829 42.609 2.08472 -32.1641 42.6793 
1.72301 -32.0819 42.4051 1.28479 -31.912 42.2661 0.830832 -31.6931 42.2539 
10.4024 -32.6791 42.6605 10.5978 -32.5186 42.311 5.47292 -32.6997 42.7103 
5.07046 -32.5014 42.5533 4.63853 -32.6302 42.3972 4.19975 -32.4157 42.381 
3.71976 -32.4739 42.2899 3.16455 -32.4623 42.2795 2.57266 -32.3986 42.311 
1.95618 -32.2809 42.2339 10.2893 -32.9775 42.4027 9.82327 -33.3197 42.5945 
10.1108 -33.2285 42.0847 4.25739 -33.4876 42.5722 4.52072 -33.028 42.4379 
4.0894 -33.3295 42.0602 9.67847 -33.6262 42.3838 9.21113 -33.9089 42.6209 
9.50132 -34.0139 42.107 4.17329 -33.9746 42.7223 3.85556 -33.6546 42.318 
3.86729 -33.8209 42.4781 3.69819 -33.8964 42.3218 9.06357 -34.2453 42.4243 
8.59504 -34.5067 42.6188 8.91381 -34.4969 42.3198 3.86155 -34.1289 42.4184 
3.99781 -34.3884 42.1136 3.2974 -34.3328 42.2909 3.47163 -34.6984 42.3406 
3.15454 -34.6144 42.4567 2.97297 -34.4313 42.2975 8.61151 -34.8088 42.3138 
7.96722 -35.1322 42.6378 8.30626 -35.1143 42.3217 4.43097 -35.3416 42.6942 
4.19083 -34.985 42.3744 3.21907 -34.964 42.4496 3.39906 -35.1541 42.3042 
2.90817 -34.8938 42.3511 8.00344 -35.4258 42.3427 7.45235 -35.6865 42.5496 
7.76216 -35.7637 42.2505 6.94025 -35.725 42.6467 6.34804 -35.7276 42.6539 
[...]
CELL_DATA 4568
SCALARS scalars float
LOOKUP_TABLE default
2032 2032 2032 2032 2032 2032 2032 2032 2032 
2032 2032 2032 2032 2032 2032 2032 2032 2032 
2032 2032 2032 2032 2032 2032 2032 2032 2032 
2032 2032 2032 2032 2032 2032 2032 2032 2032 
2032 2032 2032 2032 2032 2032 2032 2032 2032 
2032 2032 2032 2032 2032 2032 2032 2032 2032 
2032 2032 2032 2032 2032 2032 2032 2032 2032 
2032 2032 2032 2032 2032 2032 2032 2032 2032 
2032 2032 2032 2032 2032 2032 2032 2032 2032 
2032 2032 2032 2032 2032 2032 2032 2032 2032 
2032 2032 2032 2032 2032 2032 2032 2032 2032 
2032 2032 2032 2032 2032 2032 2032 2032 2032 
2032 2032 2032 2032 2032 2032 2032 2032 2032 
2032 2032 2032 2032 2032 2032 2032 2032 2032 
2032 2032 2032 2032 2032 2032 2032 2032 2032 
2032 2032 2032 2032 2032 2032 2032 2032 2032 
2032 2032 2032 2032 2032 2032 2032 2032 2032 
2032 2032 2032 2032 2032 2032 2032 2032 2032 
2032 2032 2032 2032 2032 2032 2032 2032 2032 
2032 2032 2032 2032 2032 2032 2032 2032 2032 
2032 2032 2032 2032 2032 2032 2032 2032 2032 
2032 2032 2032 2032 2032 2032 2032 2032 2032 
2032 2032 2032 2032 2032 2032 2032 2032 2032 
2032 2032 2032 2032 2032 2032 2032 2032 2032 
2032 2032 2032 2032 2032 2032 2032 2032 2032 
2032 2032 2032 2032 2032 2032 2032 2032 2032 
2032 2032 2032 2032 2032 2032 2032 2032 2032 
2032 2032 2032 2032 2032 2032 2032 2032 2032 
2032 2032 2032 2032 2032 2032 2032 2032 2032 
2032 2032 2032 2032 2032 2032 2032 2032 2032 
2032 2032 2032 2032 2032 2032 2032 2032 2032 
2032 2032 2032 2032 2032 2032 2032 2032 2032 
2032 2032 2032 2032 2032 2032 2032 2032 2032 
2032 2032 2032 2032 2032 2032 2032 2032 2032 
2032 2032 2032 2032 2032 2032 2032 2032 2032 
2032 2032 2032 2032 2032 2032 2032 2032 2032 
2032 2032 2032 2032 2032 2032 2032 2032 2032 
2032 2032 2032 2032 2032 2032 2032 2032 2032 
2032 2032 2032 2032 2032 2032 2032 2032 2032 
2032 2032 2032 2032 2032 2032 2032 2032 2032 
2032 2032 2032 2032 2032 2032 2032 2032 2032 
2032 2032 2032 2032 2032 2032 2032 2032 2032 
2032 2032 2032 2032 2032 2032 2032 2032 2032 
2032 2032 2032 2032 2032 2032 2032 2032 2032 
2032 2032 2032 2032 2032 2032 2032 2032 2032 
2032 2032 2032 2032 2032 2032 2032 2032 2032 
2032 2032 2032 2032 2032 2032 2032 2032 2032 
2032 2032 2032 2032 2032 2032 2032 2032 2032 
2032 2032 2032 2032 2032 2032 2032 2032 2032 
2032 2032 2032 2032 2032 2032 2032 2032 2032 
2032 2032 2032 2032 2032 2032 2032 2032 2032 
2032 2032 2032 2032 2032 2032 2032 2032 2032 
2032 2032 2032 2032 2032 2032 2032 2032 2032 
2032 2032 2032 2032 2032 2032 2032 2032 2032 
2032 2032 2032 2032 2032 2032 2032 2032 2032 
2032 2032 2032 2032 2032 2032 2032 2032 2032 
2032 2032 2032 2032 2032 2032 2032 2032 2032 
2032 2032 2032 2032 2032 2032 2032 2032 2032 
2032 2032 2032 2032 2032 2032 2032 2032 2032 
2032 2032 2032 2032 2032 2032 2032 2032 2032 
2032 2032 2032 2032 2032 2032 2032 2032 2032 
2032 2032 2032 2032 2032 2032 2032 2032 2032 
2032 2032 2032 2032 2032 2032 2032 2032 2032 
2032 2032 2032 2032 2032 2032 2032 2032 2032 
2032 2032 2032 2032 2032 2032 2032 2032 2032 
2032 2032 2032 2032 2032 2032 2032 2032 2032 
2032 2032 2032 2032 2032 2032 2032 2032 2032 
2032 2032 2032 2032 2032 2032 2032 2032 2032 
2032 2032 2032 2032 2032 2032 2032 2032 2032 
2032 2032 2032 2032 2032 2032 2032 2032 2032 
2032 2032 2032 2032 2032 2032 2032 2032 2032 
2032 2032 2032 2032 2032 2032 2032 2032 2032 
2032 2032 2032 2032 2032 2032 2032 2032 2032 
2032 2032 2032 2032 2032 2032 2032 2032 2032 
2032 2032 2032 2032 2032 2032 2032 2032 2032 
2032 2032 2032 2032 2032 2032 2032 2032 2032 
2032 2032 2032 2032 2032 2032 2032 2032 2032 
2032 2032 2032 2032 2032 2032 2032 2032 2032 
2032 2032 2032 2032 2032 2032 2032 2032 2032 
2032 2032 2032 2032 2032 2032 2032 2032 2032 
2032 2032 2032 2032 2032 2032 2032 2032 2032 
2032 2032 2032 2032 2032 2032 2032 2032 2032 
2032 2032 2032 2032 2032 2032 2032 2032 2032 
2032 2032 2032 2032 2032 2032 2032 2032 2032 
2032 2032 2032 2032 2032 2032 2032 2032 2032 
2032 2032 2032 2032 2032 2032 2032 2032 2032 
2032 2032 2032 2032 2032 2032 2032 2032 2032 
2032 2032 2032 2032 2032 2032 2032 2032 2032 
2032 2032 2032 2032 2032 2032 2032 2032 2032 
2032 2032 2032 2032 2032 2032 2032 2032 2032 
2032 2032 2032 2032 2032 2032 2032 2032 2032 
2032 2032 2032 2032 2032 2032 2032 2032 2032 
2032 2032 2032 2032 2032 2032 2032 2032 2032 
2032 2032 2032 2032 2032 2032 2032 2032 2032 
2032 2032 2032 2032 2032 2032 2032 2032 2032 
2032 2032 2032 2032 2032 2032 2032 2032 2032 
2032 2032 2032 2032 2032 2032 2032 2032 2032 
2032 2032 2032 2032 2032 2032 2032 2032 2032 
2032 2032 2032 2032 2032 2032 2032 2032 2032 
2032 2032 2032 2032 2032 2032 2032 2032 2032 
2032 2032 2032 2032 2032 2032 2032 2032 2032 
2032 2032 2032 2032 2032 2032 2032 2032 2032 
2032 2032 2032 2032 2032 2032 2032 2032 2032 
2032 2032 2032 2032 2032 2032 2032 2032 2032 
2032 2032 2032 2032 2032 2032 2032 2032 2032 
2032 2032 2032 2032 2032 2032 2032 2032 2032 
2032 2032 2032 2032 2032 2032 2032 2032 2032 
2032 2032 2032 2032 2032 2032 2032 2032 2032 
2032 2032 2032 2032 2032 2032 2032 2032 2032 
2032 2032 2032 2032 2032 2032 2032 2032 2032 
2032 2032 2032 2032 2032 2032 2032 2032 2032 
2032 2032 2032 2032 2032 2032 2032 2032 2032 
2032 2032 2032 2032 2032 2032 2032 2032 2032 
2032 2032 2032 2032 2032 2032 2032 2032 2032 
2032 2032 2032 2032 2032 2032 2032 2032 2032 
2032 2032 2032 2032 2032 2032 2032 2032 2032 
2032 2032 2032 2032 2032 2032 2032 2032 2032 
2032 2032 2032 2032 2032 2032 2032 2032 2032 
2032 2032 2032 2032 2032 2032 2032 2032 2032 
2032 2032 2032 2032 2032 2032 2032 2032 2032 
2032 2032 2032 2032 2032 2032 2032 2032 2032 
2032 2032 2032 2032 2032 2032 2032 2032 2032 
2032 2032 2032 2032 2032 2032 2032 2032 2032 
2032 2032 2032 2032 2032 2032 2032 2032 2032 
2032 2032 2032 2032 2032 2032 2032 2032 2032 
2032 2032 2032 2032 2032 2032 2032 2032 2032 
2032 2032 2032 2032 2032 2032 2032 2032 2032 
2032 2032 2032 2032 2032 2032 2032 2032 2032 
2032 2032 2032 2032 2032 2032 2032 2032 2032 
2032 2032 2032 2032 2032 2032 2032 2032 2032 
2032 2032 2032 2032 2032 2032 2032 2032 2032 
2032 2032 2032 2032 2032 2032 2032 2032 2032 
2032 2032 2032 2032 2032 2032 2032 2032 2032 
2032 2032 2032 2032 2032 2032 2032 2032 2032 
2032 2032 2032 2032 2032 2032 2032 2032 2032 
2032 2032 2032 2032 2032 2032 2032 2032 2032 
2032 2032 2032 2032 2032 2032 2032 2032 2032 
2032 2032 2032 2032 2032 2032 2032 2032 2032 
2032 2032 2032 2032 2032 2032 2032 2032 2032 
2032 2032 2032 2032 2032 2032 2032 2032 2032 
2032 2032 2032 2032 2032 2032 2032 2032 2032 
2032 2032 2032 2032 2032 2032 2032 2032 2032 
2032 2032 2032 2032 2032 2032 2032 2032 2032 
2032 2032 2032 2032 2032 2032 2032 2032 2032 
2032 2032 2032 2032 2032 2032 2032 2032 2032 
2032 2032 2032 2032 2032 2032 2032 2032 2032 
2032 2032 2032 2032 2032 2032 2032 2032 2032 
2032 2032 2032 2032 2032 2032 2032 2032 2032 
2032 2032 2032 2032 2032 2032 2032 2032 2032 
2032 2032 2032 2032 2032 2032 2032 2032 2032 
2032 2032 2032 2032 2032 2032 2032 2032 2032 
2032 2032 2032 2032 2032 2032 2032 2032 2032 
2032 2032 2032 2032 2032 2032 2032 2032 2032 
2032 2032 2032 2032 2032 2032 2032 2032 2032 
2032 2032 2032 2032 2032 2032 2032 2032 2032 
2032 2032 2032 2032 2032 2032 2032 2032 2032 
2032 2032 2032 2032 2032 2032 2032 2032 2032 
2032 2032 2032 2032 2032 2032 2032 2032 2032 
2032 2032 2032 2032 2032 2032 2032 2032 2032 
2032 2032 2032 2032 2032 2032 2032 2032 2032 
2032 2032 2032 2032 2032 2032 2032 2032 2032 
2032 2032 2032 2032 2032 2032 2032 2032 2032 
2032 2032 2032 2032 2032 2032 2032 2032 2032 
2032 2032 2032 2032 2032 2032 2032 2032 2032 
2032 2032 2032 2032 2032 2032 2032 2032 2032 
2032 2032 2032 2032 2032 2032 2032 2032 2032 
2032 2032 2032 2032 2032 2032 2032 2032 2032 
2032 2032 2032 2032 2032 2032 2032 2032 2032 
2032 2032 2032 2032 2032 2032 2032 2032 2032 
2032 2032 2032 2032 2032 2032 2032 2032 2032 
2032 2032 2032 2032 2032 2032 2032 2032 2032 
2032 2032 2032 2032 2032 2032 2032 2032 2032 
2032 2032 2032 2032 2032 2032 2032 2032 2032 
2032 2032 2032 2032 2032 2032 2032 2032 2032 
2032 2032 2032 2032 2032 2032 2032 2032 2032 
2032 2032 2032 2032 2032 2032 2032 2032 2032 
2032 2032 2032 2032 2032 2032 2032 2032 2032 
2032 2032 2032 2032 2032 2032 2032 2032 2032 
2032 2032 2032 2032 2032 2032 2032 2032 2032 
2032 2032 2032 2032 2032 2032 2032 2032 2032 
2032 2032 2032 2032 2032 2032 2032 2032 2032 
2032 2032 2032 2032 2032 2032 2032 2032 2032 
2032 2032 2032 2032 2032 2032 2032 2032 2032 
2032 2032 2032 2032 2032 2032 2032 2032 2032 
2032 2032 2032 2032 2032 2032 2032 2032 2032 
2032 2032 2032 2032 2032 2032 2032 2032 2032 
2032 2032 2032 2032 2032 2032 2032 2032 2032 
2032 2032 2032 2032 2032 2032 2032 2032 2032 
2032 2032 2032 2032 2032 2032 2032 2032 2032 
2032 2032 2032 2032 2032 2032 2032 2032 2032 
2032 2032 2032 2032 2032 2032 2032 2032 2032 
2032 2032 2032 2032 2032 2032 2032 2032 2032 
2032 2032 2032 2032 2032 2032 2032 2032 2032 
2032 2032 2032 2032 2032 2032 2032 2032 2032 
2032 2032 2032 2032 2032 2032 2032 2032 2032 
2032 2032 2032 2032 2032 2032 2032 2032 2032 
2032 2032 2032 2032 2032 2032 2032 2032 2032 
2032 2032 2032 2032 2032 2032 2032 2032 2032 
2032 2032 2032 2032 2032 2032 2032 2032 2032 
2032 2032 2032 2032 2032 2032 2032 2032 2032 
2032 2032 2032 2032 2032 2032 2032 2032 2032 
2032 2032 2032 2032 2032 2032 2032 2032 2032 
2032 2032 2032 2032 2032 2032 2032 2032 2032 
2032 2032 2032 2032 2032 2032 2032 2032 2032 
2032 2032 2032 2032 2032 2032 2032 2032 2032 
2032 2032 2032 2032 2032 2032 2032 2032 2032 
2032 2032 2032 2032 2032 2032 2032 2032 2032 
2032 2032 2032 2032 2032 2032 2032 2032 2032 
2032 2032 2032 2032 2032 2032 2032 2032 2032 
2032 2032 2032 2032 2032 2032 2032 2032 2032 
2032 2032 2032 2032 2032 2032 2032 2032 2032 
2032 2032 2032 2032 2032 2032 2032 2032 2032 
2032 2032 2032 2032 2032 2032 2032 2032 2032 
2032 2032 2032 2032 2032 2032 2032 2032 2032 
2032 2032 2032 2032 2032 2032 2032 2032 2032 
2032 2032 2032 2032 2032 2032 2032 2032 2032 
2032 2032 2032 2032 2032 2032 2032 2032 2032 
2032 2032 2032 2032 2032 2032 2032 2032 2032 
2032 2032 2032 2032 2032 2032 2032 2032 2032 
2032 2032 2032 2032 2032 2032 2032 2032 2032 
2032 2032 2032 2032 2032 2032 2032 2032 2032 
2032 2032 2032 2032 2032 2032 2032 2032 2032 
2032 2032 2032 2032 2032 2032 2032 2032 2032 
2032 2032 2032 2032 2032 2032 2032 2032 2032 
2032 2032 2032 2032 2032 2032 2032 2032 2032 
2032 2032 2032 2032 2032 2032 2032 2032 2032 
2032 2032 2032 2032 2032 2032 2032 2032 2032 
2032 2032 2032 2032 2032 2032 2032 2032 2032 
2032 2032 2032 2032 2032 2032 2032 2032 2032 
2032 2032 2032 2032 2032 2032 2032 2032 2032 
2032 2032 2032 2032 2032 2032 2032 2032 2032 
2032 2032 2032 2032 2032 2032 2032 2032 2032 
2032 2032 2032 2032 2032 2032 2032 2032 2032 
2032 2032 2032 2032 2032 2032 2032 2032 2032 
2032 2032 2032 2032 2032 2032 2032 2032 2032 
2032 2032 2032 2032 2032 2032 2032 2032 2032 
2032 2032 2032 2032 2032 2032 2032 2032 2032 
2032 2032 2032 2032 2032 2032 2032 2032 2032 
2032 2032 2032 2032 2032 2032 2032 2032 2032 
2032 2032 2032 2032 2032 2032 2032 2032 2032 
2032 2032 2032 2032 2032 2032 2032 2032 2032 
2032 2032 2032 2032 2032 2032 2032 2032 2032 
2032 2032 2032 2032 2032 2032 2032 2032 2032 
2032 2032 2032 2032 2032 2032 2032 2032 2032 
2032 2032 2032 2032 2032 2032 2032 2032 2032 
2032 2032 2032 2032 2032 2032 2032 2032 2032 
2032 2032 2032 2032 2032 2032 2032 2032 2032 
2032 2032 2032 2032 2032 2032 2032 2032 2032 
2032 2032 2032 2032 2032 2032 2032 2032 2032 
2032 2032 2032 2032 2032 2032 2032 2032 2032 
2032 2032 2032 2032 2032 2032 2032 2032 2032 
2032 2032 2032 2032 2032 2032 2032 2032 2032 
2032 2032 2032 2032 2032 2032 2032 2032 2032 
2032 2032 2032 2032 2032 2032 2032 2032 2032 
2032 2032 2032 2032 2032 2032 2032 2032 2032 
2032 2032 2032 2032 2032 2032 2032 2032 2032 
2032 2032 2032 2032 2032 2032 2032 2032 2032 
2032 2032 2032 2032 2032 2032 2032 2032 2032 
2032 2032 2032 2032 2032 2032 2032 2032 2032 
2032 2032 2032 2032 2032 2032 2032 2032 2032 
2032 2032 2032 2032 2032 2032 2032 2032 2032 
2032 2032 2032 2032 2032 2032 2032 2032 2032 
2032 2032 2032 2032 2032 2032 2032 2032 2032 
2032 2032 2032 2032 2032 2032 2032 2032 2032 
2032 2032 2032 2032 2032 2032 2032 2032 2032 
2032 2032 2032 2032 2032 2032 2032 2032 2032 
2032 2032 2032 2032 2032 2032 2032 2032 2032 
2032 2032 2032 2032 2032 2032 2032 2032 2032 
2032 2032 2032 2032 2032 2032 2032 2032 2032 
2032 2032 2032 2032 2032 2032 2032 2032 2032 
2032 2032 2032 2032 2032 2032 2032 2032 2032 
2032 2032 2032 2032 2032 2032 2032 2032 2032 
2032 2032 2032 2032 2032 2032 2032 2032 2032 
2032 2032 2032 2032 2032 2032 2032 2032 2032 
2032 2032 2032 2032 2032 2032 2032 2032 2032 
2032 2032 2032 2032 2032 2032 2032 2032 2032 
2032 2032 2032 2032 2032 2032 2032 2032 2032 
2032 2032 2032 2032 2032 2032 2032 2032 2032 
2032 2032 2032 2032 2032 2032 2032 2032 2032 
2032 2032 2032 2032 2032 2032 2032 2032 2032 
2032 2032 2032 2032 2032 2032 2032 2032 2032 
2032 2032 2032 2032 2032 2032 2032 2032 2032 
2032 2032 2032 2032 2032 2032 2032 2032 2032 
2032 2032 2032 2032 2032 2032 2032 2032 2032 
2032 2032 2032 2032 2032 2032 2032 2032 2032 
2032 2032 2032 2032 2032 2032 2032 2032 2032 
2032 2032 2032 2032 2032 2032 2032 2032 2032 
2032 2032 2032 2032 2032 2032 2032 2032 2032 
2032 2032 2032 2032 2032 2032 2032 2032 2032 
2032 2032 2032 2032 2032 2032 2032 2032 2032 
2032 2032 2032 2032 2032 2032 2032 2032 2032 
2032 2032 2032 2032 2032 2032 2032 2032 2032 
2032 2032 2032 2032 2032 2032 2032 2032 2032 
2032 2032 2032 2032 2032 2032 2032 2032 2032 
2032 2032 2032 2032 2032 2032 2032 2032 2032 
2032 2032 2032 2032 2032 2032 2032 2032 2032 
2032 2032 2032 2032 2032 2032 2032 2032 2032 
2032 2032 2032 2032 2032 2032 2032 2032 2032 
2032 2032 2032 2032 2032 2032 2032 2032 2032 
2032 2032 2032 2032 2032 2032 2032 2032 2032 
2032 2032 2032 2032 2032 2032 2032 2032 2032 
2032 2032 2032 2032 2032 2032 2032 2032 2032 
2032 2032 2032 2032 2032 2032 2032 2032 2032 
2032 2032 2032 2032 2032 2032 2032 2032 2032 
2032 2032 2032 2032 2032 2032 2032 2032 2032 
2032 2032 2032 2032 2032 2032 2032 2032 2032 
2032 2032 2032 2032 2032 2032 2032 2032 2032 
2032 2032 2032 2032 2032 2032 2032 2032 2032 
2032 2032 2032 2032 2032 2032 2032 2032 2032 
2032 2032 2032 2032 2032 2032 2032 2032 2032 
2032 2032 2032 2032 2032 2032 2032 2032 2032 
2032 2032 2032 2032 2032 2032 2032 2032 2032 
2032 2032 2032 2032 2032 2032 2032 2032 2032 
2032 2032 2032 2032 2032 2032 2032 2032 2032 
2032 2032 2032 2032 2032 2032 2032 2032 2032 
2032 2032 2032 2032 2032 2032 2032 2032 2032 
2032 2032 2032 2032 2032 2032 2032 2032 2032 
2032 2032 2032 2032 2032 2032 2032 2032 2032 
2032 2032 2032 2032 2032 2032 2032 2032 2032 
2032 2032 2032 2032 2032 2032 2032 2032 2032 
2032 2032 2032 2032 2032 2032 2032 2032 2032 
2032 2032 2032 2032 2032 2032 2032 2032 2032 
2032 2032 2032 2032 2032 2032 2032 2032 2032 
2032 2032 2032 2032 2032 2032 2032 2032 2032 
2032 2032 2032 2032 2032 2032 2032 2032 2032 
2032 2032 2032 2032 2032 2032 2032 2032 2032 
2032 2032 2032 2032 2032 2032 2032 2032 2032 
2032 2032 2032 2032 2032 2032 2032 2032 2032 
2032 2032 2032 2032 2032 2032 2032 2032 2032 
2032 2032 2032 2032 2032 2032 2032 2032 2032 
2032 2032 2032 2032 2032 2032 2032 2032 2032 
2032 2032 2032 2032 2032 2032 2032 2032 2032 
2032 2032 2032 2032 2032 2032 2032 2032 2032 
2032 2032 2032 2032 2032 2032 2032 2032 2032 
2032 2032 2032 2032 2032 2032 2032 2032 2032 
2032 2032 2032 2032 2032 2032 2032 2032 2032 
2032 2032 2032 2032 2032 2032 2032 2032 2032 
2032 2032 2032 2032 2032 2032 2032 2032 2032 
2032 2032 2032 2032 2032 2032 2032 2032 2032 
2032 2032 2032 2032 2032 2032 2032 2032 2032 
2032 2032 2032 2032 2032 2032 2032 2032 2032 
2032 2032 2032 2032 2032 2032 2032 2032 2032 
2032 2032 2032 2032 2032 2032 2032 2032 2032 
2032 2032 2032 2032 2032 2032 2032 2032 2032 
2032 2032 2032 2032 2032 2032 2032 2032 2032 
2032 2032 2032 2032 2032 2032 2032 2032 2032 
2032 2032 2032 2032 2032 2032 2032 2032 2032 
2032 2032 2032 2032 2032 2032 2032 2032 2032 
2032 2032 2032 2032 2032 2032 2032 2032 2032 
2032 2032 2032 2032 2032 2032 2032 2032 2032 
2032 2032 2032 2032 2032 2032 2032 2032 2032 
2032 2032 2032 2032 2032 2032 2032 2032 2032 
2032 2032 2032 2032 2032 2032 2032 2032 2032 
2032 2032 2032 2032 2032 2032 2032 2032 2032 
2032 2032 2032 2032 2032 2032 2032 2032 2032 
2032 2032 2032 2032 2032 2032 2032 2032 2032 
2032 2032 2032 2032 2032 2032 2032 2032 2032 
2032 2032 2032 2032 2032 2032 2032 2032 2032 
2032 2032 2032 2032 2032 2032 2032 2032 2032 
2032 2032 2032 2032 2032 2032 2032 2032 2032 
2032 2032 2032 2032 2032 2032 2032 2032 2032 
2032 2032 2032 2032 2032 2032 2032 2032 2032 
2032 2032 2032 2032 2032 2032 2032 2032 2032 
2032 2032 2032 2032 2032 2032 2032 2032 2032 
2032 2032 2032 2032 2032 2032 2032 2032 2032 
2032 2032 2032 2032 2032 2032 2032 2032 2032 
2032 2032 2032 2032 2032 2032 2032 2032 2032 
2032 2032 2032 2032 2032 2032 2032 2032 2032 
2032 2032 2032 2032 2032 2032 2032 2032 2032 
2032 2032 2032 2032 2032 2032 2032 2032 2032 
2032 2032 2032 2032 2032 2032 2032 2032 2032 
2032 2032 2032 2032 2032 2032 2032 2032 2032 
2032 2032 2032 2032 2032 2032 2032 2032 2032 
2032 2032 2032 2032 2032 2032 2032 2032 2032 
2032 2032 2032 2032 2032 2032 2032 2032 2032 
2032 2032 2032 2032 2032 2032 2032 2032 2032 
2032 2032 2032 2032 2032 2032 2032 2032 2032 
2032 2032 2032 2032 2032 2032 2032 2032 2032 
2032 2032 2032 2032 2032 2032 2032 2032 2032 
2032 2032 2032 2032 2032 2032 2032 2032 2032 
2032 2032 2032 2032 2032 2032 2032 2032 2032 
2032 2032 2032 2032 2032 2032 2032 2032 2032 
2032 2032 2032 2032 2032 2032 2032 2032 2032 
2032 2032 2032 2032 2032 2032 2032 2032 2032 
2032 2032 2032 2032 2032 2032 2032 2032 2032 
2032 2032 2032 2032 2032 2032 2032 2032 2032 
2032 2032 2032 2032 2032 2032 2032 2032 2032 
2032 2032 2032 2032 2032 2032 2032 2032 2032 
2032 2032 2032 2032 2032 2032 2032 2032 2032 
2032 2032 2032 2032 2032 2032 2032 2032 2032 
2032 2032 2032 2032 2032 2032 2032 2032 2032 
2032 2032 2032 2032 2032 2032 2032 2032 2032 
2032 2032 2032 2032 2032 2032 2032 2032 2032 
2032 2032 2032 2032 2032 2032 2032 2032 2032 
2032 2032 2032 2032 2032 2032 2032 2032 2032 
2032 2032 2032 2032 2032 2032 2032 2032 2032 
2032 2032 2032 2032 2032 2032 2032 2032 2032 
2032 2032 2032 2032 2032 2032 2032 2032 2032 
2032 2032 2032 2032 2032 2032 2032 2032 2032 
2032 2032 2032 2032 2032 2032 2032 2032 2032 
2032 2032 2032 2032 2032 2032 2032 2032 2032 
2032 2032 2032 2032 2032 2032 2032 2032 2032 
2032 2032 2032 2032 2032 2032 2032 2032 2032 
2032 2032 2032 2032 2032 2032 2032 2032 2032 
2032 2032 2032 2032 2032 2032 2032 2032 2032 
2032 2032 2032 2032 2032 2032 2032 2032 2032 
2032 2032 2032 2032 2032 2032 2032 2032 2032 
2032 2032 2032 2032 2032 2032 2032 2032 2032 
2032 2032 2032 2032 2032 2032 2032 2032 2032 
2032 2032 2032 2032 2032 2032 2032 2032 2032 
2032 2032 2032 2032 2032 2032 2032 2032 2032 
2032 2032 2032 2032 2032 2032 2032 2032 2032 
2032 2032 2032 2032 2032 2032 2032 2032 2032 
2032 2032 2032 2032 2032 2032 2032 2032 2032 
2032 2032 2032 2032 2032 2032 2032 2032 2032 
2032 2032 2032 2032 2032 2032 2032 2032 2032 
2032 2032 2032 2032 2032 2032 2032 2032 2032 
2032 2032 2032 2032 2032 2032 2032 2032 2032 
2032 2032 2032 2032 2032 2032 2032 2032 2032 
2032 2032 2032 2032 2032 2032 2032 2032 2032 
2032 2032 2032 2032 2032 2032 2032 2032 2032 
2032 2032 2032 2032 2032 2032 2032 2032 2032 
2032 2032 2032 2032 2032 2032 2032 2032 2032 
2032 2032 2032 2032 2032 2032 2032 2032 2032 
2032 2032 2032 2032 2032 2032 2032 2032 2032 
2032 2032 2032 2032 2032 2032 2032 2032 2032 
2032 2032 2032 2032 2032 2032 2032 2032 2032 
2032 2032 2032 2032 2032 2032 2032 2032 2032 
2032 2032 2032 2032 2032 2032 2032 2032 2032 
2032 2032 2032 2032 2032 2032 2032 2032 2032 
2032 2032 2032 2032 2032 2032 2032 2032 2032 
2032 2032 2032 2032 2032 2032 2032 2032 2032 
2032 2032 2032 2032 2032 2032 2032 2032 2032 