# vtk DataFile Version 4.2
vtk output
ASCII
DATASET POLYDATA
POINTS 13362 float
-40.594 29.6441 -27.4637 -40.5346 29.3107 -27.3064 -40.4 29.2923 -27.7413 
-40.9667 29.3669 -27.2835 -40.7864 29.4827 -27.7129 -40.5529 29.3993 -29.1045 
-40.3491 29.408 -29.6336 -40.7005 29.7374 -29.8077 -40.9776 29.462 -29.4575 
-40.6005 29.752 -30.3566 -40.4001 29.1891 -30.4264 -41.1349 29.4106 -30.463 
-40.6853 29.4611 -30.7753 -41.5779 28.8427 -26.8492 -41.5541 28.262 -26.3391 
-41.2583 28.4076 -26.5278 -42.2087 28.3642 -26.4792 -40.8088 28.4696 -26.9903 
-40.3046 28.6978 -27.5164 -41.5957 29.1513 -27.7653 -42.7382 28.8514 -27.4283 
-42.7603 28.4845 -26.8997 -44.0003 28.8718 -27.6823 -43.4238 28.4924 -27.0136 
-44.768 28.7801 -27.7645 -44.3838 28.4872 -27.1034 -45.0812 28.4356 -27.4531 
-40.8922 29.1892 -28.4892 -40.2462 28.6754 -28.4759 -41.8517 29.0162 -28.6894 
-42.7068 29.0109 -28.5144 -43.7357 29.0359 -28.5208 -44.6385 28.9132 -28.5375 
-45.2637 28.538 -28.2825 -40.1927 28.457 -29.5814 -41.6967 29.1352 -29.6362 
-42.7225 28.9931 -29.5264 -43.5622 29.0349 -29.3606 -44.3952 28.8827 -29.5973 
-45.2417 28.3444 -29.4453 -40.3129 28.2784 -30.3735 -41.8197 29.1214 -30.556 
-42.5926 28.8996 -30.6738 -43.717 28.8965 -30.4272 -44.3711 28.4647 -30.6517 
-44.794 28.3641 -30.1408 -40.7059 28.6226 -31.086 -41.6399 28.8609 -31.5087 
-41.0083 28.5694 -31.7025 -42.2915 28.4305 -31.5261 -42.9003 28.5804 -31.2864 
-43.3318 28.4418 -31.7398 -43.5026 28.7349 -31.307 -44.0714 28.3952 -31.5106 
-37.8922 28.751 -32.7957 -37.4563 28.3358 -32.1733 -37.3599 28.5732 -32.8048 
-38.0453 28.4293 -32.3384 -39.9213 28.8404 -32.8184 -39.6201 28.3688 -32.2247 
-39.0826 28.5891 -32.7069 -40.9571 28.8583 -32.3838 -40.4212 28.4409 -31.9944 
-41.4749 28.7858 -32.7392 -41.8554 28.3831 -32.254 -43.8056 28.3573 -32.0092 
-37.7614 28.9187 -33.5951 -37.2014 28.5182 -33.5614 -38.4741 28.6042 -32.7677 
-38.808 28.9503 -33.4648 -39.9015 29.0727 -33.8079 -40.7844 28.9365 -33.5117 
-41.3021 28.3731 -33.3855 -41.6174 28.2939 -32.8169 -37.5999 28.8103 -34.365 
-37.3318 28.3351 -34.3576 -38.3703 28.906 -34.5077 -39.4473 28.9256 -34.5608 
-40.4073 28.8585 -34.5484 -40.9721 28.4329 -34.2729 -37.9664 28.447 -34.9065 
-38.9412 28.4059 -35.0808 -39.8853 28.5037 -35.0708 -40.4967 28.2347 -34.9208 
-43.8143 27.8252 -24.7289 -43.7147 27.5061 -24.0636 -43.132 27.4758 -24.5194 
-44.9252 27.8912 -24.6506 -44.411 27.5384 -23.9725 -45.7062 27.8011 -24.7472 
-45.595 27.3362 -23.9982 -46.2158 27.3631 -24.5275 -42.7716 27.8425 -25.6111 
-42.5948 27.4588 -25.0415 -42.2107 27.3797 -25.3673 -43.8422 27.9784 -25.6751 
-44.6988 28.0034 -25.5299 -45.5627 27.9033 -25.501 -46.2015 27.5428 -25.271 
-41.769 27.5878 -25.9278 -41.1897 27.5948 -26.4229 -42.8883 28.218 -26.5144 
-43.661 28.123 -26.3972 -44.7478 28.1122 -26.581 -45.5697 27.8796 -26.5119 
-46.2066 27.5199 -26.2574 -40.7589 27.3043 -26.9237 -40.1654 27.5311 -27.5605 
-45.6352 28.0184 -27.649 -46.2363 27.499 -27.2971 -40.0228 27.5863 -28.833 
-45.7454 28.0255 -28.8179 -46.2371 27.3997 -28.4668 -40.0624 27.5518 -29.8573 
-45.7377 27.9143 -29.4879 -46.0295 27.3734 -29.5066 -40.105 27.69 -30.7363 
-44.661 27.9197 -30.7308 -45.2265 27.4811 -30.5635 -45.722 27.4797 -30.0609 
-36.987 27.8108 -31.6284 -36.9401 27.3033 -31.179 -36.3293 27.3291 -31.2997 
-37.9447 27.9901 -31.6991 -37.5304 27.5136 -31.2211 -38.8873 27.7766 -31.5601 
-38.4 27.2902 -31.0739 -39.8832 27.9876 -31.5708 -39.3872 27.4164 -31.0238 
-40.6326 28.2662 -31.5755 -42.7363 28.1371 -31.8125 -44.3829 27.6293 -31.552 
-44.7606 27.3211 -31.1521 -36.3867 27.3505 -31.9135 -36.9395 27.9044 -32.5621 
-38.8021 28.2068 -32.1887 -41.9907 27.7691 -32.2111 -41.7093 27.9663 -32.5172 
-41.4915 27.7393 -32.813 -42.1957 27.4402 -32.4971 -42.6118 27.724 -32.3584 
-43.394 27.9205 -32.4087 -44.0423 27.7307 -32.342 -36.8791 27.8707 -33.5779 
-36.6335 27.3875 -32.9318 -36.4514 27.2644 -33.3802 -41.0716 27.5155 -33.5731 
-42.778 27.1984 -32.9625 -43.7165 27.2503 -32.8584 -36.6767 27.2052 -34.0493 
-37.3754 27.6294 -34.2172 -37.7678 27.923 -34.7055 -38.1426 27.2955 -34.4237 
-40.8394 27.8776 -34.458 -40.3759 27.5168 -34.5617 -40.7495 27.4471 -34.1246 
-38.4883 27.7561 -34.9732 -39.5738 27.7272 -35.0005 -44.8386 26.7966 -22.8312 
-44.5898 26.1723 -22.2312 -44.1427 26.5809 -22.6494 -45.3004 26.3516 -22.4414 
-43.8125 27.018 -23.5161 -43.719 26.5109 -22.9472 -43.2016 26.4674 -23.4933 
-44.8266 27.2046 -23.4772 -45.7606 26.3382 -22.9042 -45.4786 26.9397 -23.3445 
-46.2031 26.4753 -23.5089 -42.6386 26.9621 -24.5448 -42.5181 26.4142 -24.126 
-42.0582 26.5489 -24.7232 -46.7346 26.9455 -24.8316 -46.7357 26.4662 -24.027 
-47.2503 26.3402 -24.5391 -41.8475 26.8999 -25.3133 -41.4795 26.2749 -25.0749 
-41.3589 26.6665 -25.8346 -46.7216 27.0203 -25.7842 -47.2435 26.495 -25.2953 
-39.8914 26.7825 -26.7732 -39.7508 26.1391 -26.2655 -39.3758 26.5001 -26.7513 
-40.2956 26.313 -26.4196 -41.0053 26.5299 -26.4238 -46.7226 27.0011 -26.8228 
-47.2184 26.404 -26.4259 -39.4727 26.9287 -27.5193 -38.963 26.4325 -27.405 
-40.5278 26.7037 -26.8083 -46.7064 26.983 -27.8193 -47.0497 26.5092 -27.3823 
-38.9662 26.7859 -28.4644 -38.5186 26.3243 -27.9094 -38.3287 26.3128 -28.6265 
-39.6591 27.1073 -28.3838 -46.6515 26.8282 -28.6433 -47.0256 26.2725 -28.361 
-38.8319 26.8019 -29.5594 -38.3088 26.2921 -29.5746 -39.5655 27.0609 -29.3177 
-46.394 26.599 -29.5059 -46.7637 26.3297 -29.129 -35.8381 26.853 -30.7771 
-35.3665 26.2851 -30.2186 -35.1541 26.5441 -30.7991 -36.0976 26.1977 -30.7018 
-38.8127 26.9239 -30.4375 -38.2583 26.3665 -30.4167 -39.5647 27.1365 -30.2689 
-45.7347 26.951 -30.6032 -46.057 26.5255 -30.4598 -35.7075 26.9763 -31.3754 
-35.2136 26.5383 -31.4137 -36.7444 26.5284 -31.1251 -37.6761 26.6031 -30.9386 
-44.633 26.8751 -31.738 -45.1357 26.687 -31.3995 -45.7022 26.4688 -31.0875 
-35.6557 26.511 -32.0378 -36.4886 27.1221 -32.4617 -36.1466 26.5095 -32.8896 
-41.6549 27.1516 -32.7619 -44.2197 26.7702 -32.4405 -44.8625 26.0927 -32.0255 
-36.0901 26.577 -33.7678 -38.7453 26.7306 -33.8625 -38.4164 26.2255 -33.6915 
-38.667 26.4752 -33.373 -38.9218 26.3228 -33.5495 -40.5187 26.9923 -33.8269 
-40.1841 26.4259 -33.6637 -40.8506 26.4702 -33.2172 -41.7302 26.5559 -33.164 
-42.5459 26.784 -33.5104 -42.1005 26.3687 -33.6569 -43.0667 26.5945 -33.5413 
-43.617 26.3785 -33.1194 -35.8295 26.8526 -34.362 -35.6459 26.4124 -34.3178 
-35.4684 26.5729 -34.5541 -36.3809 26.8601 -34.6216 -37.0632 26.6772 -34.5178 
-37.756 26.687 -34.1527 -38.9073 27.205 -34.5836 -39.5162 26.1852 -33.8243 
-39.7104 26.9439 -34.2387 -42.6647 26.1921 -33.8699 -35.9371 26.4788 -34.8144 
-36.8386 26.2311 -34.9063 -43.6684 26.1145 -22.6548 -43.6539 25.3734 -22.1645 
-43.1529 25.5752 -22.6348 -44.4928 25.3322 -21.8588 -45.7066 26.025 -22.4916 
-45.5686 25.4922 -21.9925 -46.2082 25.5065 -22.5321 -41.7547 25.7621 -23.6301 
-41.6742 25.2111 -23.2456 -41.1653 25.3342 -23.8216 -42.6948 25.9908 -23.3813 
-42.3754 25.3046 -22.9177 -46.7218 25.9489 -23.5305 -46.5365 25.7089 -23.1018 
-47.1025 25.5296 -23.4604 -41.0221 25.7446 -24.4734 -40.7231 25.3438 -24.2881 
-40.5635 25.4383 -24.4994 -41.8735 26.1814 -24.2717 -47.7298 25.9101 -24.8567 
-47.5264 25.716 -24.0878 -48.0174 25.2186 -24.3026 -40.7285 25.3338 -24.7713 
-40.9761 25.4353 -25.6984 -47.7087 25.9733 -25.7934 -48.0889 25.3419 -25.2751 
-39.7189 25.3126 -25.9982 -39.0987 25.476 -26.6361 -40.757 26.0592 -26.3529 
-40.3999 25.5826 -26.183 -47.6403 25.8238 -26.6343 -48.0253 25.2433 -26.3613 
-38.6217 25.9111 -27.3068 -38.604 25.4911 -27.1859 -38.3524 25.7338 -27.7602 
-47.3864 25.829 -27.4784 -47.7743 25.3474 -27.1435 -38.2588 25.4597 -28.6519 
-41.9849 25.8161 -28.8603 -41.2441 25.5542 -28.9294 -41.5631 25.4609 -28.3006 
-42.1743 25.4824 -28.3922 -47.3386 25.3817 -28.5417 -38.174 25.5853 -29.6881 
-41.7362 25.8153 -29.4367 -41.1965 25.4008 -29.6447 -42.6031 25.6527 -28.9904 
-42.4491 25.7839 -29.5649 -43.0338 25.2959 -29.3459 -46.6503 25.9096 -29.7264 
-47.0121 25.5272 -29.4206 -34.7476 26.0081 -30.4357 -34.9495 25.408 -30.1589 
-34.4401 25.5428 -30.6685 -35.6242 25.6884 -30.0965 -36.0109 25.3739 -30.5176 
-38.0101 25.504 -30.426 -41.8873 25.3057 -30.008 -42.7693 25.2691 -29.938 
-46.4007 25.5797 -30.5249 -46.7524 25.297 -30.1527 -34.7377 26.0006 -31.2528 
-34.4352 25.3848 -31.2451 -36.5994 25.916 -31.4756 -36.4094 25.3705 -31.2888 
-37.0583 25.5336 -31.4734 -37.539 25.6948 -31.0235 -45.5418 26.0066 -31.6474 
-46.017 25.6502 -31.3179 -34.9079 25.5174 -31.9248 -35.5289 25.8927 -32.5184 
-35.0815 25.1752 -32.4966 -36.705 25.4713 -31.7608 -44.2097 25.7074 -32.573 
-44.8574 25.1694 -32.1836 -45.5772 25.335 -31.8791 -35.6328 25.3958 -32.9299 
-36.0511 25.4947 -33.4468 -38.6895 26.1902 -33.4493 -40.1981 25.6964 -33.5115 
-40.8386 25.5194 -33.2672 -41.5048 25.9196 -33.5002 -41.2206 25.1051 -33.581 
-43.2215 25.7399 -33.6496 -43.7037 25.1992 -33.1079 -35.7463 26.1361 -34.6841 
-36.1318 25.4054 -34.5072 -37.5211 26.0776 -34.6335 -38.0832 25.6711 -34.342 
-38.8926 25.4932 -33.9599 -39.677 25.2916 -33.8416 -41.9867 25.5141 -33.9291 
-42.7095 25.3254 -33.9844 -36.6439 25.4687 -35.1378 -37.5547 25.3713 -34.9057 
-45.0202 24.9838 -21.5146 -44.6028 24.1943 -21.1951 -44.2452 24.7017 -21.5645 
-45.6275 24.963 -21.5129 -45.6108 24.3964 -21.2142 -46.1946 24.5084 -21.5249 
-42.8835 25.0547 -22.4152 -42.6378 24.3697 -22.1624 -42.2891 24.6567 -22.5457 
-43.534 24.4574 -21.8211 -47.0574 24.9959 -22.7108 -46.7109 24.6106 -22.0274 
-47.7337 24.6986 -22.7408 -47.6347 24.3174 -22.2089 -48.1984 24.2808 -22.5147 
-41.848 24.7208 -22.9015 -41.2468 24.5547 -23.4789 -47.6557 25.0748 -23.4295 
-48.2103 24.5739 -23.3919 -40.6194 25.1967 -24.519 -40.8568 24.8792 -24.5708 
-48.3421 24.6214 -24.5116 -39.9426 24.7687 -25.5883 -39.6346 24.2377 -25.2919 
-39.342 24.6536 -25.7874 -40.3082 24.2881 -24.9518 -40.5985 24.756 -25.549 
-48.3424 24.6183 -25.5377 -39.298 24.2594 -26.2841 -40.1311 24.7645 -26.3512 
-40.8293 24.9052 -26.7401 -40.6423 24.2146 -26.1366 -41.2732 24.4336 -26.3458 
-48.3311 24.3738 -26.5236 -38.8608 25.0909 -27.6296 -39.4179 24.6563 -26.8674 
[...]
CELL_DATA 26764
SCALARS scalars float
LOOKUP_TABLE default
1015 1015 1015 1015 1015 1015 1015 1015 1015 
1015 1015 1015 1015 1015 1015 1015 1015 1015 
1015 1015 1015 1015 1015 1015 1015 1015 1015 
1015 1015 1015 1015 1015 1015 1015 1015 1015 
1015 1015 1015 1015 1015 1015 1015 1015 1015 
1015 1015 1015 1015 1015 1015 1015 1015 1015 
1015 1015 1015 1015 1015 1015 1015 1015 1015 
1015 1015 1015 1015 1015 1015 1015 1015 1015 
1015 1015 1015 1015 1015 1015 1015 1015 1015 
1015 1015 1015 1015 1015 1015 1015 1015 1015 
1015 1015 1015 1015 1015 1015 1015 1015 1015 
1015 1015 1015 1015 1015 1015 1015 1015 1015 
1015 1015 1015 1015 1015 1015 1015 1015 1015 
1015 1015 1015 1015 1015 1015 1015 1015 1015 
1015 1015 1015 1015 1015 1015 1015 1015 1015 
1015 1015 1015 1015 1015 1015 1015 1015 1015 
1015 1015 1015 1015 1015 1015 1015 1015 1015 
1015 1015 1015 1015 1015 1015 1015 1015 1015 
1015 1015 1015 1015 1015 1015 1015 1015 1015 
1015 1015 1015 1015 1015 1015 1015 1015 1015 
1015 1015 1015 1015 1015 1015 1015 1015 1015 
1015 1015 1015 1015 1015 1015 1015 1015 1015 
1015 1015 1015 1015 1015 1015 1015 1015 1015 
1015 1015 1015 1015 1015 1015 1015 1015 1015 
1015 1015 1015 1015 1015 1015 1015 1015 1015 
1015 1015 1015 1015 1015 1015 1015 1015 1015 
1015 1015 1015 1015 1015 1015 1015 1015 1015 
1015 1015 1015 1015 1015 1015 1015 1015 1015 
1015 1015 1015 1015 1015 1015 1015 1015 1015 
1015 1015 1015 1015 1015 1015 1015 1015 1015 
1015 1015 1015 1015 1015 1015 1015 1015 1015 
1015 1015 1015 1015 1015 1015 1015 1015 1015 
1015 1015 1015 1015 1015 1015 1015 1015 1015 
1015 1015 1015 1015 1015 1015 1015 1015 1015 
1015 1015 1015 1015 1015 1015 1015 1015 1015 
1015 1015 1015 1015 1015 1015 1015 1015 1015 
1015 1015 1015 1015 1015 1015 1015 1015 1015 
1015 1015 1015 1015 1015 1015 1015 1015 1015 
1015 1015 1015 1015 1015 1015 1015 1015 1015 
1015 1015 1015 1015 1015 1015 1015 1015 1015 
1015 1015 1015 1015 1015 1015 1015 1015 1015 
1015 1015 1015 1015 1015 1015 1015 1015 1015 
1015 1015 1015 1015 1015 1015 1015 1015 1015 
1015 1015 1015 1015 1015 1015 1015 1015 1015 
1015 1015 1015 1015 1015 1015 1015 1015 1015 
1015 1015 1015 1015 1015 1015 1015 1015 1015 
1015 1015 1015 1015 1015 1015 1015 1015 1015 
1015 1015 1015 1015 1015 1015 1015 1015 1015 
1015 1015 1015 1015 1015 1015 1015 1015 1015 
1015 1015 1015 1015 1015 1015 1015 1015 1015 
1015 1015 1015 1015 1015 1015 1015 1015 1015 
1015 1015 1015 1015 1015 1015 1015 1015 1015 
1015 1015 1015 1015 1015 1015 1015 1015 1015 
1015 1015 1015 1015 1015 1015 1015 1015 1015 
1015 1015 1015 1015 1015 1015 1015 1015 1015 
1015 1015 1015 1015 1015 1015 1015 1015 1015 
1015 1015 1015 1015 1015 1015 1015 1015 1015 
1015 1015 1015 1015 1015 1015 1015 1015 1015 
1015 1015 1015 1015 1015 1015 1015 1015 1015 
1015 1015 1015 1015 1015 1015 1015 1015 1015 
1015 1015 1015 1015 1015 1015 1015 1015 1015 
1015 1015 1015 1015 1015 1015 1015 1015 1015 
1015 1015 1015 1015 1015 1015 1015 1015 1015 
1015 1015 1015 1015 1015 1015 1015 1015 1015 
1015 1015 1015 1015 1015 1015 1015 1015 1015 
1015 1015 1015 1015 1015 1015 1015 1015 1015 
1015 1015 1015 1015 1015 1015 1015 1015 1015 
1015 1015 1015 1015 1015 1015 1015 1015 1015 
1015 1015 1015 1015 1015 1015 1015 1015 1015 
1015 1015 1015 1015 1015 1015 1015 1015 1015 
1015 1015 1015 1015 1015 1015 1015 1015 1015 
1015 1015 1015 1015 1015 1015 1015 1015 1015 
1015 1015 1015 1015 1015 1015 1015 1015 1015 
1015 1015 1015 1015 1015 1015 1015 1015 1015 
1015 1015 1015 1015 1015 1015 1015 1015 1015 
1015 1015 1015 1015 1015 1015 1015 1015 1015 
1015 1015 1015 1015 1015 1015 1015 1015 1015 
1015 1015 1015 1015 1015 1015 1015 1015 1015 
1015 1015 1015 1015 1015 1015 1015 1015 1015 
1015 1015 1015 1015 1015 1015 1015 1015 1015 
1015 1015 1015 1015 1015 1015 1015 1015 1015 
1015 1015 1015 1015 1015 1015 1015 1015 1015 
1015 1015 1015 1015 1015 1015 1015 1015 1015 
1015 1015 1015 1015 1015 1015 1015 1015 1015 
1015 1015 1015 1015 1015 1015 1015 1015 1015 
1015 1015 1015 1015 1015 1015 1015 1015 1015 
1015 1015 1015 1015 1015 1015 1015 1015 1015 
1015 1015 1015 1015 1015 1015 1015 1015 1015 
1015 1015 1015 1015 1015 1015 1015 1015 1015 
1015 1015 1015 1015 1015 1015 1015 1015 1015 
1015 1015 1015 1015 1015 1015 1015 1015 1015 
1015 1015 1015 1015 1015 1015 1015 1015 1015 
1015 1015 1015 1015 1015 1015 1015 1015 1015 
1015 1015 1015 1015 1015 1015 1015 1015 1015 
1015 1015 1015 1015 1015 1015 1015 1015 1015 
1015 1015 1015 1015 1015 1015 1015 1015 1015 
1015 1015 1015 1015 1015 1015 1015 1015 1015 
1015 1015 1015 1015 1015 1015 1015 1015 1015 
1015 1015 1015 1015 1015 1015 1015 1015 1015 
1015 1015 1015 1015 1015 1015 1015 1015 1015 
1015 1015 1015 1015 1015 1015 1015 1015 1015 
1015 1015 1015 1015 1015 1015 1015 1015 1015 
1015 1015 1015 1015 1015 1015 1015 1015 1015 
1015 1015 1015 1015 1015 1015 1015 1015 1015 
1015 1015 1015 1015 1015 1015 1015 1015 1015 
1015 1015 1015 1015 1015 1015 1015 1015 1015 
1015 1015 1015 1015 1015 1015 1015 1015 1015 
1015 1015 1015 1015 1015 1015 1015 1015 1015 
1015 1015 1015 1015 1015 1015 1015 1015 1015 
1015 1015 1015 1015 1015 1015 1015 1015 1015 
1015 1015 1015 1015 1015 1015 1015 1015 1015 
1015 1015 1015 1015 1015 1015 1015 1015 1015 
1015 1015 1015 1015 1015 1015 1015 1015 1015 
1015 1015 1015 1015 1015 1015 1015 1015 1015 
1015 1015 1015 1015 1015 1015 1015 1015 1015 
1015 1015 1015 1015 1015 1015 1015 1015 1015 
1015 1015 1015 1015 1015 1015 1015 1015 1015 
1015 1015 1015 1015 1015 1015 1015 1015 1015 
1015 1015 1015 1015 1015 1015 1015 1015 1015 
1015 1015 1015 1015 1015 1015 1015 1015 1015 
1015 1015 1015 1015 1015 1015 1015 1015 1015 
1015 1015 1015 1015 1015 1015 1015 1015 1015 
1015 1015 1015 1015 1015 1015 1015 1015 1015 
1015 1015 1015 1015 1015 1015 1015 1015 1015 
1015 1015 1015 1015 1015 1015 1015 1015 1015 
1015 1015 1015 1015 1015 1015 1015 1015 1015 
1015 1015 1015 1015 1015 1015 1015 1015 1015 
1015 1015 1015 1015 1015 1015 1015 1015 1015 
1015 1015 1015 1015 1015 1015 1015 1015 1015 
1015 1015 1015 1015 1015 1015 1015 1015 1015 
1015 1015 1015 1015 1015 1015 1015 1015 1015 
1015 1015 1015 1015 1015 1015 1015 1015 1015 
1015 1015 1015 1015 1015 1015 1015 1015 1015 
1015 1015 1015 1015 1015 1015 1015 1015 1015 
1015 1015 1015 1015 1015 1015 1015 1015 1015 
1015 1015 1015 1015 1015 1015 1015 1015 1015 
1015 1015 1015 1015 1015 1015 1015 1015 1015 
1015 1015 1015 1015 1015 1015 1015 1015 1015 
1015 1015 1015 1015 1015 1015 1015 1015 1015 
1015 1015 1015 1015 1015 1015 1015 1015 1015 
1015 1015 1015 1015 1015 1015 1015 1015 1015 
1015 1015 1015 1015 1015 1015 1015 1015 1015 
1015 1015 1015 1015 1015 1015 1015 1015 1015 
1015 1015 1015 1015 1015 1015 1015 1015 1015 
1015 1015 1015 1015 1015 1015 1015 1015 1015 
1015 1015 1015 1015 1015 1015 1015 1015 1015 
1015 1015 1015 1015 1015 1015 1015 1015 1015 
1015 1015 1015 1015 1015 1015 1015 1015 1015 
1015 1015 1015 1015 1015 1015 1015 1015 1015 
1015 1015 1015 1015 1015 1015 1015 1015 1015 
1015 1015 1015 1015 1015 1015 1015 1015 1015 
1015 1015 1015 1015 1015 1015 1015 1015 1015 
1015 1015 1015 1015 1015 1015 1015 1015 1015 
1015 1015 1015 1015 1015 1015 1015 1015 1015 
1015 1015 1015 1015 1015 1015 1015 1015 1015 
1015 1015 1015 1015 1015 1015 1015 1015 1015 
1015 1015 1015 1015 1015 1015 1015 1015 1015 
1015 1015 1015 1015 1015 1015 1015 1015 1015 
1015 1015 1015 1015 1015 1015 1015 1015 1015 
1015 1015 1015 1015 1015 1015 1015 1015 1015 
1015 1015 1015 1015 1015 1015 1015 1015 1015 
1015 1015 1015 1015 1015 1015 1015 1015 1015 
1015 1015 1015 1015 1015 1015 1015 1015 1015 
1015 1015 1015 1015 1015 1015 1015 1015 1015 
1015 1015 1015 1015 1015 1015 1015 1015 1015 
1015 1015 1015 1015 1015 1015 1015 1015 1015 
1015 1015 1015 1015 1015 1015 1015 1015 1015 
1015 1015 1015 1015 1015 1015 1015 1015 1015 
1015 1015 1015 1015 1015 1015 1015 1015 1015 
1015 1015 1015 1015 1015 1015 1015 1015 1015 
1015 1015 1015 1015 1015 1015 1015 1015 1015 
1015 1015 1015 1015 1015 1015 1015 1015 1015 
1015 1015 1015 1015 1015 1015 1015 1015 1015 
1015 1015 1015 1015 1015 1015 1015 1015 1015 
1015 1015 1015 1015 1015 1015 1015 1015 1015 
1015 1015 1015 1015 1015 1015 1015 1015 1015 
1015 1015 1015 1015 1015 1015 1015 1015 1015 
1015 1015 1015 1015 1015 1015 1015 1015 1015 
1015 1015 1015 1015 1015 1015 1015 1015 1015 
1015 1015 1015 1015 1015 1015 1015 1015 1015 
1015 1015 1015 1015 1015 1015 1015 1015 1015 
1015 1015 1015 1015 1015 1015 1015 1015 1015 
1015 1015 1015 1015 1015 1015 1015 1015 1015 
1015 1015 1015 1015 1015 1015 1015 1015 1015 
1015 1015 1015 1015 1015 1015 1015 1015 1015 
1015 1015 1015 1015 1015 1015 1015 1015 1015 
1015 1015 1015 1015 1015 1015 1015 1015 1015 
1015 1015 1015 1015 1015 1015 1015 1015 1015 
1015 1015 1015 1015 1015 1015 1015 1015 1015 
1015 1015 1015 1015 1015 1015 1015 1015 1015 
1015 1015 1015 1015 1015 1015 1015 1015 1015 
1015 1015 1015 1015 1015 1015 1015 1015 1015 
1015 1015 1015 1015 1015 1015 1015 1015 1015 
1015 1015 1015 1015 1015 1015 1015 1015 1015 
1015 1015 1015 1015 1015 1015 1015 1015 1015 
1015 1015 1015 1015 1015 1015 1015 1015 1015 
1015 1015 1015 1015 1015 1015 1015 1015 1015 
1015 1015 1015 1015 1015 1015 1015 1015 1015 
1015 1015 1015 1015 1015 1015 1015 1015 1015 
1015 1015 1015 1015 1015 1015 1015 1015 1015 
1015 1015 1015 1015 1015 1015 1015 1015 1015 
1015 1015 1015 1015 1015 1015 1015 1015 1015 
1015 1015 1015 1015 1015 1015 1015 1015 1015 
1015 1015 1015 1015 1015 1015 1015 1015 1015 
1015 1015 1015 1015 1015 1015 1015 1015 1015 
1015 1015 1015 1015 1015 1015 1015 1015 1015 
1015 1015 1015 1015 1015 1015 1015 1015 1015 
1015 1015 1015 1015 1015 1015 1015 1015 1015 
1015 1015 1015 1015 1015 1015 1015 1015 1015 
1015 1015 1015 1015 1015 1015 1015 1015 1015 
1015 1015 1015 1015 1015 1015 1015 1015 1015 
1015 1015 1015 1015 1015 1015 1015 1015 1015 
1015 1015 1015 1015 1015 1015 1015 1015 1015 
1015 1015 1015 1015 1015 1015 1015 1015 1015 
1015 1015 1015 1015 1015 1015 1015 1015 1015 
1015 1015 1015 1015 1015 1015 1015 1015 1015 
1015 1015 1015 1015 1015 1015 1015 1015 1015 
1015 1015 1015 1015 1015 1015 1015 1015 1015 
1015 1015 1015 1015 1015 1015 1015 1015 1015 
1015 1015 1015 1015 1015 1015 1015 1015 1015 
1015 1015 1015 1015 1015 1015 1015 1015 1015 
1015 1015 1015 1015 1015 1015 1015 1015 1015 
1015 1015 1015 1015 1015 1015 1015 1015 1015 
1015 1015 1015 1015 1015 1015 1015 1015 1015 
1015 1015 1015 1015 1015 1015 1015 1015 1015 
1015 1015 1015 1015 1015 1015 1015 1015 1015 
1015 1015 1015 1015 1015 1015 1015 1015 1015 
1015 1015 1015 1015 1015 1015 1015 1015 1015 
1015 1015 1015 1015 1015 1015 1015 1015 1015 
1015 1015 1015 1015 1015 1015 1015 1015 1015 
1015 1015 1015 1015 1015 1015 1015 1015 1015 
1015 1015 1015 1015 1015 1015 1015 1015 1015 
1015 1015 1015 1015 1015 1015 1015 1015 1015 
1015 1015 1015 1015 1015 1015 1015 1015 1015 
1015 1015 1015 1015 1015 1015 1015 1015 1015 
1015 1015 1015 1015 1015 1015 1015 1015 1015 
1015 1015 1015 1015 1015 1015 1015 1015 1015 
1015 1015 1015 1015 1015 1015 1015 1015 1015 
1015 1015 1015 1015 1015 1015 1015 1015 1015 
1015 1015 1015 1015 1015 1015 1015 1015 1015 
1015 1015 1015 1015 1015 1015 1015 1015 1015 
1015 1015 1015 1015 1015 1015 1015 1015 1015 
1015 1015 1015 1015 1015 1015 1015 1015 1015 
1015 1015 1015 1015 1015 1015 1015 1015 1015 
1015 1015 1015 1015 1015 1015 1015 1015 1015 
1015 1015 1015 1015 1015 1015 1015 1015 1015 
1015 1015 1015 1015 1015 1015 1015 1015 1015 
1015 1015 1015 1015 1015 1015 1015 1015 1015 
1015 1015 1015 1015 1015 1015 1015 1015 1015 
1015 1015 1015 1015 1015 1015 1015 1015 1015 
1015 1015 1015 1015 1015 1015 1015 1015 1015 
1015 1015 1015 1015 1015 1015 1015 1015 1015 
1015 1015 1015 1015 1015 1015 1015 1015 1015 
1015 1015 1015 1015 1015 1015 1015 1015 1015 
1015 1015 1015 1015 1015 1015 1015 1015 1015 
1015 1015 1015 1015 1015 1015 1015 1015 1015 
1015 1015 1015 1015 1015 1015 1015 1015 1015 
1015 1015 1015 1015 1015 1015 1015 1015 1015 
1015 1015 1015 1015 1015 1015 1015 1015 1015 
1015 1015 1015 1015 1015 1015 1015 1015 1015 
1015 1015 1015 1015 1015 1015 1015 1015 1015 
1015 1015 1015 1015 1015 1015 1015 1015 1015 
1015 1015 1015 1015 1015 1015 1015 1015 1015 
1015 1015 1015 1015 1015 1015 1015 1015 1015 
1015 1015 1015 1015 1015 1015 1015 1015 1015 
1015 1015 1015 1015 1015 1015 1015 1015 1015 
1015 1015 1015 1015 1015 1015 1015 1015 1015 
1015 1015 1015 1015 1015 1015 1015 1015 1015 
1015 1015 1015 1015 1015 1015 1015 1015 1015 
1015 1015 1015 1015 1015 1015 1015 1015 1015 
1015 1015 1015 1015 1015 1015 1015 1015 1015 
1015 1015 1015 1015 1015 1015 1015 1015 1015 
1015 1015 1015 1015 1015 1015 1015 1015 1015 
1015 1015 1015 1015 1015 1015 1015 1015 1015 
1015 1015 1015 1015 1015 1015 1015 1015 1015 
1015 1015 1015 1015 1015 1015 1015 1015 1015 
1015 1015 1015 1015 1015 1015 1015 1015 1015 
1015 1015 1015 1015 1015 1015 1015 1015 1015 
1015 1015 1015 1015 1015 1015 1015 1015 1015 
1015 1015 1015 1015 1015 1015 1015 1015 1015 
1015 1015 1015 1015 1015 1015 1015 1015 1015 
1015 1015 1015 1015 1015 1015 1015 1015 1015 
1015 1015 1015 1015 1015 1015 1015 1015 1015 
1015 1015 1015 1015 1015 1015 1015 1015 1015 
1015 1015 1015 1015 1015 1015 1015 1015 1015 
1015 1015 1015 1015 1015 1015 1015 1015 1015 
1015 1015 1015 1015 1015 1015 1015 1015 1015 
1015 1015 1015 1015 1015 1015 1015 1015 1015 
1015 1015 1015 1015 1015 1015 1015 1015 1015 
1015 1015 1015 1015 1015 1015 1015 1015 1015 
1015 1015 1015 1015 1015 1015 1015 1015 1015 
1015 1015 1015 1015 1015 1015 1015 1015 1015 
1015 1015 1015 1015 1015 1015 1015 1015 1015 
1015 1015 1015 1015 1015 1015 1015 1015 1015 
1015 1015 1015 1015 1015 1015 1015 1015 1015 
1015 1015 1015 1015 1015 1015 1015 1015 1015 
1015 1015 1015 1015 1015 1015 1015 1015 1015 
1015 1015 1015 1015 1015 1015 1015 1015 1015 
1015 1015 1015 1015 1015 1015 1015 1015 1015 
1015 1015 1015 1015 1015 1015 1015 1015 1015 
1015 1015 1015 1015 1015 1015 1015 1015 1015 
1015 1015 1015 1015 1015 1015 1015 1015 1015 
1015 1015 1015 1015 1015 1015 1015 1015 1015 
1015 1015 1015 1015 1015 1015 1015 1015 1015 
1015 1015 1015 1015 1015 1015 1015 1015 1015 
1015 1015 1015 1015 1015 1015 1015 1015 1015 
1015 1015 1015 1015 1015 1015 1015 1015 1015 
1015 1015 1015 1015 1015 1015 1015 1015 1015 
1015 1015 1015 1015 1015 1015 1015 1015 1015 
1015 1015 1015 1015 1015 1015 1015 1015 1015 
1015 1015 1015 1015 1015 1015 1015 1015 1015 
1015 1015 1015 1015 1015 1015 1015 1015 1015 
1015 1015 1015 1015 1015 1015 1015 1015 1015 
1015 1015 1015 1015 1015 1015 1015 1015 1015 
1015 1015 1015 1015 1015 1015 1015 1015 1015 
1015 1015 1015 1015 1015 1015 1015 1015 1015 
1015 1015 1015 1015 1015 1015 1015 1015 1015 
1015 1015 1015 1015 1015 1015 1015 1015 1015 
1015 1015 1015 1015 1015 1015 1015 1015 1015 
1015 1015 1015 1015 1015 1015 1015 1015 1015 
1015 1015 1015 1015 1015 1015 1015 1015 1015 
1015 1015 1015 1015 1015 1015 1015 1015 1015 
1015 1015 1015 1015 1015 1015 1015 1015 1015 
1015 1015 1015 1015 1015 1015 1015 1015 1015 
1015 1015 1015 1015 1015 1015 1015 1015 1015 
1015 1015 1015 1015 1015 1015 1015 1015 1015 
1015 1015 1015 1015 1015 1015 1015 1015 1015 
1015 1015 1015 1015 1015 1015 1015 1015 1015 
1015 1015 1015 1015 1015 1015 1015 1015 1015 
1015 1015 1015 1015 1015 1015 1015 1015 1015 
1015 1015 1015 1015 1015 1015 1015 1015 1015 
1015 1015 1015 1015 1015 1015 1015 1015 1015 
1015 1015 1015 1015 1015 1015 1015 1015 1015 
1015 1015 1015 1015 1015 1015 1015 1015 1015 
1015 1015 1015 1015 1015 1015 1015 1015 1015 
1015 1015 1015 1015 1015 1015 1015 1015 1015 
1015 1015 1015 1015 1015 1015 1015 1015 1015 
1015 1015 1015 1015 1015 1015 1015 1015 1015 
1015 1015 1015 1015 1015 1015 1015 1015 1015 
1015 1015 1015 1015 1015 1015 1015 1015 1015 
1015 1015 1015 1015 1015 1015 1015 1015 1015 
1015 1015 1015 1015 1015 1015 1015 1015 1015 
1015 1015 1015 1015 1015 1015 1015 1015 1015 
1015 1015 1015 1015 1015 1015 1015 1015 1015 
1015 1015 1015 1015 1015 1015 1015 1015 1015 
1015 1015 1015 1015 1015 1015 1015 1015 1015 
1015 1015 1015 1015 1015 1015 1015 1015 1015 
1015 1015 1015 1015 1015 1015 1015 1015 1015 
1015 1015 1015 1015 1015 1015 1015 1015 1015 
1015 1015 1015 1015 1015 1015 1015 1015 1015 
1015 1015 1015 1015 1015 1015 1015 1015 1015 
1015 1015 1015 1015 1015 1015 1015 1015 1015 
1015 1015 1015 1015 1015 1015 1015 1015 1015 
1015 1015 1015 1015 1015 1015 1015 1015 1015 
1015 1015 1015 1015 1015 1015 1015 1015 1015 
1015 1015 1015 1015 1015 1015 1015 1015 1015 
1015 1015 1015 1015 1015 1015 1015 1015 1015 
1015 1015 1015 1015 1015 1015 1015 1015 1015 
1015 1015 1015 1015 1015 1015 1015 1015 1015 
1015 1015 1015 1015 1015 1015 1015 1015 1015 
1015 1015 1015 1015 1015 1015 1015 1015 1015 
1015 1015 1015 1015 1015 1015 1015 1015 1015 
1015 1015 1015 1015 1015 1015 1015 1015 1015 
1015 1015 1015 1015 1015 1015 1015 1015 1015 
1015 1015 1015 1015 1015 1015 1015 1015 1015 
1015 1015 1015 1015 1015 1015 1015 1015 1015 
1015 1015 1015 1015 1015 1015 1015 1015 1015 
1015 1015 1015 1015 1015 1015 1015 1015 1015 
1015 1015 1015 1015 1015 1015 1015 1015 1015 
1015 1015 1015 1015 1015 1015 1015 1015 1015 
1015 1015 1015 1015 1015 1015 1015 1015 1015 
1015 1015 1015 1015 1015 1015 1015 1015 1015 
1015 1015 1015 1015 1015 1015 1015 1015 1015 
1015 1015 1015 1015 1015 1015 1015 1015 1015 
1015 1015 1015 1015 1015 1015 1015 1015 1015 
1015 1015 1015 1015 1015 1015 1015 1015 1015 
1015 1015 1015 1015 1015 1015 1015 1015 1015 
1015 1015 1015 1015 1015 1015 1015 1015 1015 
1015 1015 1015 1015 1015 1015 1015 1015 1015 
1015 1015 1015 1015 1015 1015 1015 1015 1015 
1015 1015 1015 1015 1015 1015 1015 1015 1015 
1015 1015 1015 1015 1015 1015 1015 1015 1015 
1015 1015 1015 1015 1015 1015 1015 1015 1015 
1015 1015 1015 1015 1015 1015 1015 1015 1015 
1015 1015 1015 1015 1015 1015 1015 1015 1015 
1015 1015 1015 1015 1015 1015 1015 1015 1015 
1015 1015 1015 1015 1015 1015 1015 1015 1015 
1015 1015 1015 1015 1015 1015 1015 1015 1015 
1015 1015 1015 1015 1015 1015 1015 1015 1015 
1015 1015 1015 1015 1015 1015 1015 1015 1015 
1015 1015 1015 1015 1015 1015 1015 1015 1015 
1015 1015 1015 1015 1015 1015 1015 1015 1015 
1015 1015 1015 1015 1015 1015 1015 1015 1015 
1015 1015 1015 1015 1015 1015 1015 1015 1015 
1015 1015 1015 1015 1015 1015 1015 1015 1015 
1015 1015 1015 1015 1015 1015 1015 1015 1015 
1015 1015 1015 1015 1015 1015 1015 1015 1015 
1015 1015 1015 1015 1015 1015 1015 1015 1015 
1015 1015 1015 1015 1015 1015 1015 1015 1015 
1015 1015 1015 1015 1015 1015 1015 1015 1015 
1015 1015 1015 1015 1015 1015 1015 1015 1015 
1015 1015 1015 1015 1015 1015 1015 1015 1015 
1015 1015 1015 1015 1015 1015 1015 1015 1015 
1015 1015 1015 1015 1015 1015 1015 1015 1015 
1015 1015 1015 1015 1015 1015 1015 1015 1015 
1015 1015 1015 1015 1015 1015 1015 1015 1015 
1015 1015 1015 1015 1015 1015 1015 1015 1015 
1015 1015 1015 1015 1015 1015 1015 1015 1015 
1015 1015 1015 1015 1015 1015 1015 1015 1015 
1015 1015 1015 1015 1015 1015 1015 1015 1015 
1015 1015 1015 1015 1015 1015 1015 1015 1015 
1015 1015 1015 1015 1015 1015 1015 1015 1015 
1015 1015 1015 1015 1015 1015 1015 1015 1015 
1015 1015 1015 1015 1015 1015 1015 1015 1015 
1015 1015 1015 1015 1015 1015 1015 1015 1015 
1015 1015 1015 1015 1015 1015 1015 1015 1015 
1015 1015 1015 1015 1015 1015 1015 1015 1015 
1015 1015 1015 1015 1015 1015 1015 1015 1015 
1015 1015 1015 1015 1015 1015 1015 1015 1015 
1015 1015 1015 1015 1015 1015 1015 1015 1015 
1015 1015 1015 1015 1015 1015 1015 1015 1015 
1015 1015 1015 1015 1015 1015 1015 1015 1015 
1015 1015 1015 1015 1015 1015 1015 1015 1015 
1015 1015 1015 1015 1015 1015 1015 1015 1015 
1015 1015 1015 1015 1015 1015 1015 1015 1015 
1015 1015 1015 1015 1015 1015 1015 1015 1015 
1015 1015 1015 1015 1015 1015 1015 1015 1015 
1015 1015 1015 1015 1015 1015 1015 1015 1015 
1015 1015 1015 1015 1015 1015 1015 1015 1015 
1015 1015 1015 1015 1015 1015 1015 1015 1015 
1015 1015 1015 1015 1015 1015 1015 1015 1015 
1015 1015 1015 1015 1015 1015 1015 1015 1015 
1015 1015 1015 1015 1015 1015 1015 1015 1015 