# vtk DataFile Version 4.2
vtk output
ASCII
DATASET POLYDATA
POINTS 20416 float
-18.2926 73.4534 -6.31491 -18.2752 73.7135 -6.38924 -18.5373 73.5793 -6.49418 
-18.0591 73.5594 -6.49591 -18.412 73.1951 -6.67059 -17.2539 71.4301 -6.3039 
-17.4175 71.7075 -6.4823 -17.5147 71.2871 -6.4548 -16.9787 71.5519 -6.76981 
-17.1741 71.0189 -6.55311 -18.1037 76.2686 -7.23839 -18.4725 76.7282 -7.72299 
-18.6228 76.2882 -7.47453 -17.8672 76.7218 -7.68506 -18.168 75.5095 -7.08586 
-18.7254 75.5193 -7.57592 -17.4015 76.1752 -7.36488 -17.2986 75.6283 -7.0872 
-16.3233 75.3246 -7.18383 -16.5586 75.9913 -7.41335 -15.4928 75.4015 -7.30313 
-15.5912 75.8984 -7.43904 -14.829 75.4053 -7.74165 -18.306 74.2318 -6.86556 
-19.0047 74.558 -7.53045 -17.2812 74.6022 -7.07016 -16.6663 74.6092 -7.50236 
-16.1057 75.0209 -7.60445 -15.3736 75.0202 -7.72534 -19.0543 73.633 -7.06382 
-19.4494 74.0537 -7.62153 -19.5934 73.5185 -7.80569 -17.552 73.3071 -6.94544 
-16.907 73.7516 -7.63624 -15.2641 73.4326 -7.26147 -15.379 73.8965 -7.55493 
-15.5501 73.3051 -7.72013 -15.0084 73.5538 -7.72366 -19.0683 72.9824 -7.35393 
-18.2338 72.595 -7.0224 -18.8229 72.3596 -7.62071 -17.4083 72.2453 -6.85791 
-16.8761 72.5495 -7.50577 -15.2022 72.9669 -7.52482 -18.0277 71.6229 -6.93431 
-18.6768 71.4949 -7.63977 -16.7323 71.5956 -7.65627 -18.1401 70.4743 -7.05718 
-18.6658 70.4791 -7.59757 -17.4213 70.4853 -6.87757 -16.8559 70.6973 -7.37758 
-18.1869 69.455 -7.03112 -18.6875 69.4855 -7.58057 -17.435 69.3814 -7.0319 
-16.8835 69.6301 -7.54491 -18.3147 68.7027 -7.14022 -18.6294 68.4584 -7.7877 
-17.6198 68.5212 -7.08307 -16.9191 68.5363 -7.66143 -17.9657 67.9676 -7.40165 
-17.2629 67.8673 -7.55614 -17.2167 64.4358 -7.27803 -17.4066 64.7004 -7.4496 
-17.4955 64.2858 -7.42635 -16.9762 64.5481 -7.74169 -17.166 64.0282 -7.54179 
-17.2126 77.3225 -8.14363 -17.2244 77.8955 -8.8217 -17.7781 77.5669 -8.57246 
-15.9776 77.4444 -8.08697 -16.3189 77.9706 -8.60072 -14.9911 77.2986 -8.18236 
-15.4873 77.8713 -8.486 -14.7918 77.3861 -8.82046 -18.2533 77.0805 -8.5335 
-18.7418 76.4151 -8.19965 -17.0919 76.5294 -7.70096 -16.2583 76.6416 -7.78637 
-15.1258 76.4523 -7.84824 -14.34 76.9319 -8.44576 -14.3082 76.4079 -8.19119 
-14.0238 76.2277 -8.57306 -18.9717 75.4965 -8.43807 -14.3256 75.6868 -8.05601 
-14.0078 75.6606 -8.42896 -19.3092 74.6397 -8.05242 -19.3419 74.963 -8.82354 
-19.6607 74.2072 -8.29648 -16.6093 74.3304 -8.35673 -16.0277 74.79 -8.21229 
-15.3604 74.4509 -7.91597 -15.8801 74.1983 -8.47011 -14.6707 74.547 -8.51555 
-14.2609 75.174 -8.31659 -19.7516 73.4396 -8.79768 -16.7753 73.3466 -8.39857 
-15.8123 73.4706 -8.45743 -14.7671 73.4002 -8.42952 -19.3744 72.8926 -8.19351 
-19.0612 72.1495 -8.37684 -16.7576 72.4653 -8.5659 -15.3319 72.5068 -7.99882 
-15.6156 72.6389 -8.66271 -14.966 72.6806 -8.37637 -18.9583 71.2373 -8.38605 
-16.7519 71.4235 -8.53761 -15.2387 72.1398 -8.71623 -18.9291 70.199 -8.52447 
-16.741 70.3912 -8.47764 -18.829 69.3276 -8.34258 -16.7242 69.3733 -8.48026 
-18.8243 68.6522 -8.65576 -16.724 68.5442 -8.62408 -18.1457 67.3659 -7.87122 
-18.6985 67.5996 -8.50415 -17.3839 67.2595 -7.91852 -16.8482 67.6694 -8.40948 
-18.1835 66.4792 -8.08184 -18.6904 66.5049 -8.63048 -17.4228 66.4091 -8.06732 
-16.8822 66.6724 -8.60052 -18.3 65.66 -8.10954 -18.6603 65.5244 -8.61422 
-17.5227 65.3885 -7.85554 -16.8594 65.5341 -8.4573 -18.0481 64.5969 -7.8846 
-18.6448 64.4771 -8.59277 -16.7223 64.5666 -8.59844 -18.4589 63.4504 -8.03213 
-18.8783 63.5007 -8.55464 -17.607 63.4167 -7.93314 -16.8935 63.6104 -8.47459 
-20.1374 62.5422 -8.24559 -20.1987 62.7533 -8.75357 -20.5789 62.4918 -8.52589 
-19.2838 62.6302 -8.13321 -19.4702 62.9319 -8.55125 -18.3745 62.5674 -8.12472 
-17.6399 62.3402 -8.62825 -17.1786 62.8002 -8.57411 -20.211 62.0322 -8.54921 
-19.019 61.9445 -8.42949 -18.2354 61.9213 -8.6065 -31.9598 60.373 -8.1473 
-32.434 60.8705 -8.54091 -32.7777 60.1777 -8.46114 -30.9909 60.3534 -8.08661 
-31.5917 61.0492 -8.45793 -30.2257 60.249 -8.20436 -30.607 60.9718 -8.45582 
-29.9007 60.566 -8.52662 -32.2136 59.4869 -8.07477 -32.861 59.209 -8.45157 
-31.294 59.4776 -7.93652 -30.3693 59.472 -8.07284 -29.7172 59.7111 -8.45062 
-32.3525 58.7192 -8.20799 -32.6798 58.3858 -8.54407 -31.6044 58.6126 -8.08332 
-30.6444 58.5922 -8.14696 -29.8337 58.7648 -8.46342 -32.0033 58.0237 -8.47293 
-31.0283 57.9306 -8.46192 -30.1904 58.0899 -8.55487 -29.1019 43.5202 -8.17779 
-29.3314 43.9712 -8.53716 -29.6297 43.4843 -8.7409 -28.5199 43.3588 -8.18211 
-28.6378 43.9056 -8.35685 -27.9929 43.5672 -8.72617 -29.0357 42.9267 -8.48826 
-28.2389 42.9194 -8.54218 -29.2897 40.5195 -8.30678 -29.4286 40.7499 -8.44086 
-29.6002 40.5141 -8.37088 -28.9401 40.5406 -8.77222 -29.4387 40.1217 -8.69687 
-17.1864 77.9599 -9.75056 -17.8774 77.5977 -9.24287 -16.4659 78.1183 -9.31366 
-15.5334 77.9329 -9.29242 -14.9658 77.2628 -9.70076 -18.3528 77.0665 -9.75169 
-18.7133 76.4349 -9.22521 -14.2798 76.5788 -8.83155 -14.6015 76.4886 -9.38383 
-18.9677 75.6746 -9.53794 -14.2539 75.6184 -8.86124 -14.5344 75.5718 -9.62657 
-19.3232 75.0374 -9.80783 -19.7117 74.3748 -9.25904 -16.4028 74.4308 -8.98691 
-14.171 74.9909 -9.62121 -14.3319 74.3185 -9.24626 -13.8593 74.5686 -9.63504 
-19.865 73.6652 -9.70164 -16.7069 73.6165 -9.35062 -16.356 74.0388 -9.68637 
-15.9615 73.5351 -9.45877 -14.6684 73.4078 -9.26549 -14.1003 74.0557 -9.55433 
-19.4389 72.5734 -8.8691 -19.747 72.6163 -9.58484 -16.8118 72.5024 -9.62509 
-15.6235 72.6974 -9.75344 -15.0779 72.3894 -9.42552 -19.3269 71.757 -9.02098 
-19.6926 71.4727 -9.69958 -16.8144 71.4508 -9.5968 -15.3722 72.1503 -9.33268 
-19.2936 70.802 -9.1029 -19.6525 70.4034 -9.87986 -16.7875 70.4304 -9.54411 
-19.2248 70.034 -9.36207 -18.9905 69.2976 -9.26368 -16.7669 69.4207 -9.51964 
-18.9562 68.2367 -9.38799 -16.7566 68.4255 -9.50868 -18.9292 67.196 -9.55069 
-16.749 67.4292 -9.51024 -18.8264 66.3305 -9.36709 -16.7382 66.4214 -9.50057 
-18.7799 65.5039 -9.51746 -16.7254 65.4026 -9.47299 -18.7356 64.4936 -9.50675 
-16.7293 64.3948 -9.47282 -22.051 63.5259 -9.26688 -22.3812 63.7782 -9.51322 
-22.6556 63.2552 -9.6492 -21.4833 63.4509 -9.28327 -21.3654 63.9602 -9.63608 
-20.8417 63.5491 -9.61339 -18.889 63.5951 -9.46586 -16.7447 63.5598 -9.61881 
-32.1471 62.2716 -9.1715 -32.453 62.8243 -9.55353 -32.9475 62.3292 -9.42229 
-30.985 62.392 -9.14047 -31.6052 63.0213 -9.50384 -30.0185 62.2164 -9.19007 
-30.6113 62.9809 -9.49656 -29.8218 62.6453 -9.52751 -22.0419 63.2129 -9.46334 
-21.3397 63.1158 -9.67237 -20.7648 62.4799 -9.21494 -20.0396 62.9387 -9.53172 
-19.4008 63.0774 -9.46496 -17.2123 62.3789 -8.97359 -16.9079 62.7402 -9.40542 
-33.0774 61.688 -9.19342 -33.4349 62.0814 -9.63664 -33.6286 61.446 -9.63336 
-32.3422 61.4281 -8.84675 -31.2959 61.6781 -8.82992 -30.1685 61.4371 -8.85381 
-29.374 62.0277 -9.39979 -29.3614 61.3624 -9.1703 -28.9625 61.6287 -9.72758 
-21.1204 61.3802 -9.05172 -21.293 62.0173 -9.48874 -21.7675 61.4871 -9.53177 
-20.1636 61.2185 -8.85794 -19.2784 61.2735 -8.80346 -18.3765 61.2817 -8.95331 
-17.7928 61.536 -9.262 -17.2847 62.0134 -9.6349 -33.1718 60.8016 -8.98692 
-33.8316 60.407 -9.60848 -29.3464 60.3441 -8.95841 -28.897 60.7094 -9.6476 
-22.1868 60.4696 -9.11929 -22.4491 60.8475 -9.55943 -22.8908 60.2305 -9.35646 
-21.5247 60.2184 -9.08051 -20.5532 60.5511 -9.11676 -19.5095 60.5363 -9.09683 
-18.5765 60.5221 -9.2038 -17.9887 60.7323 -9.55698 -33.4494 59.5938 -8.96144 
-33.9885 59.4021 -9.40693 -29.2382 59.1878 -8.95935 -28.7447 59.7195 -9.64488 
-23.027 59.6492 -9.18876 -23.3038 59.878 -9.41168 -23.5465 59.5546 -9.52253 
-22.3788 59.5297 -9.13456 -21.8243 59.5392 -9.43264 -21.092 59.9144 -9.70054 
-20.0107 60.0565 -9.62783 -19.0676 60.0464 -9.51698 -18.4752 60.1494 -9.77845 
-34.0008 58.5183 -9.14937 -34.3055 58.9385 -9.46923 -34.7166 58.2726 -9.54286 
-33.2332 58.4611 -8.83593 -29.4247 58.1614 -8.98417 -28.7438 58.6848 -9.47608 
-23.1912 58.971 -9.70039 -22.3368 59.1219 -9.6607 -34.3419 57.68 -9.25001 
-34.7937 57.3231 -9.6598 -33.6129 57.6257 -9.13071 -32.4944 57.5166 -8.9954 
-31.2859 57.3242 -8.83968 -30.1541 57.4001 -8.87171 -29.2837 57.2989 -9.16103 
-28.7604 57.7095 -9.48049 -34.1326 57.206 -9.49295 -33.2272 56.9832 -9.60575 
-32.225 56.8234 -9.46382 -31.6823 56.3462 -9.59217 -31.3324 56.5954 -9.18805 
-30.2825 56.4565 -8.98885 -29.3998 56.4646 -9.12201 -28.77 56.7158 -9.48358 
-42.3498 55.5083 -9.36329 -42.4637 55.7488 -9.51296 -42.6036 55.5023 -9.44615 
-42.0892 55.6326 -9.56417 -38.089 55.262 -9.12487 -38.3562 55.8884 -9.54234 
-38.8381 55.3469 -9.39985 -37.2653 55.3019 -9.22512 -37.5718 55.963 -9.48169 
-36.8935 55.6289 -9.53921 -31.0804 55.9074 -9.43751 -30.8146 55.123 -9.45212 
-30.3024 55.4953 -9.10382 -29.418 55.4649 -9.11031 -28.7697 55.7215 -9.46503 
-43.3825 54.4987 -9.33289 -43.4411 54.8918 -9.58833 -43.585 54.5456 -9.74504 
-42.2997 55.2685 -9.59049 -43.0233 54.4068 -9.64343 -39.0862 54.4286 -9.10228 
-39.4534 54.9152 -9.55044 -39.8695 54.3068 -9.42497 -38.2783 54.5068 -8.94591 
-37.5899 54.4596 -9.13583 -36.7991 54.8453 -9.48177 -30.253 54.5356 -9.12405 
-30.7606 54.1563 -9.43965 -29.5901 54.3938 -9.14542 -28.8369 54.7725 -9.47884 
-43.3518 54.2822 -9.50171 -40.0484 53.602 -9.17213 -40.4562 53.8294 -9.5637 
-40.7289 53.0704 -9.47019 -39.504 53.282 -9.08925 -38.491 53.7109 -9.12641 
-37.7108 53.6442 -9.40967 -37.0873 54.0579 -9.53961 -30.218 53.7183 -9.21933 
-30.7021 53.5074 -9.45996 -29.7159 53.5644 -9.40982 -29.1262 54.0002 -9.54611 
-40.2579 52.7432 -9.21236 -40.7219 52.487 -9.46463 -39.7543 52.5599 -9.35765 
-38.9849 52.8537 -9.44051 -38.1835 53.1312 -9.55056 -30.4346 53.1529 -9.69338 
-27.9684 52.4674 -9.24101 -28.3815 52.899 -9.56532 -28.585 52.5556 -9.50094 
-27.2638 52.2817 -9.22491 -27.6337 52.9837 -9.47962 -26.9538 52.5915 -9.5405 
-40.4326 52.1598 -9.67603 -28.3969 52.0368 -9.56197 -28.0616 51.3961 -9.35857 
-27.3365 51.379 -9.11305 -26.6101 51.4511 -9.67977 -27.9271 50.6173 -9.13845 
-28.3676 51.1089 -9.63614 -28.543 50.4289 -9.81262 -27.2491 50.4591 -8.90184 
-26.3846 50.8399 -9.36987 -26.5778 50.3073 -9.16323 -26.1079 50.4266 -9.45692 
[...]
CELL_DATA 40948
SCALARS scalars float
LOOKUP_TABLE default
2029 2029 2029 2029 2029 2029 2029 2029 2029 
2029 2029 2029 2029 2029 2029 2029 2029 2029 
2029 2029 2029 2029 2029 2029 2029 2029 2029 
2029 2029 2029 2029 2029 2029 2029 2029 2029 
2029 2029 2029 2029 2029 2029 2029 2029 2029 
2029 2029 2029 2029 2029 2029 2029 2029 2029 
2029 2029 2029 2029 2029 2029 2029 2029 2029 
2029 2029 2029 2029 2029 2029 2029 2029 2029 
2029 2029 2029 2029 2029 2029 2029 2029 2029 
2029 2029 2029 2029 2029 2029 2029 2029 2029 
2029 2029 2029 2029 2029 2029 2029 2029 2029 
2029 2029 2029 2029 2029 2029 2029 2029 2029 
2029 2029 2029 2029 2029 2029 2029 2029 2029 
2029 2029 2029 2029 2029 2029 2029 2029 2029 
2029 2029 2029 2029 2029 2029 2029 2029 2029 
2029 2029 2029 2029 2029 2029 2029 2029 2029 
2029 2029 2029 2029 2029 2029 2029 2029 2029 
2029 2029 2029 2029 2029 2029 2029 2029 2029 
2029 2029 2029 2029 2029 2029 2029 2029 2029 
2029 2029 2029 2029 2029 2029 2029 2029 2029 
2029 2029 2029 2029 2029 2029 2029 2029 2029 
2029 2029 2029 2029 2029 2029 2029 2029 2029 
2029 2029 2029 2029 2029 2029 2029 2029 2029 
2029 2029 2029 2029 2029 2029 2029 2029 2029 
2029 2029 2029 2029 2029 2029 2029 2029 2029 
2029 2029 2029 2029 2029 2029 2029 2029 2029 
2029 2029 2029 2029 2029 2029 2029 2029 2029 
2029 2029 2029 2029 2029 2029 2029 2029 2029 
2029 2029 2029 2029 2029 2029 2029 2029 2029 
2029 2029 2029 2029 2029 2029 2029 2029 2029 
2029 2029 2029 2029 2029 2029 2029 2029 2029 
2029 2029 2029 2029 2029 2029 2029 2029 2029 
2029 2029 2029 2029 2029 2029 2029 2029 2029 
2029 2029 2029 2029 2029 2029 2029 2029 2029 
2029 2029 2029 2029 2029 2029 2029 2029 2029 
2029 2029 2029 2029 2029 2029 2029 2029 2029 
2029 2029 2029 2029 2029 2029 2029 2029 2029 
2029 2029 2029 2029 2029 2029 2029 2029 2029 
2029 2029 2029 2029 2029 2029 2029 2029 2029 
2029 2029 2029 2029 2029 2029 2029 2029 2029 
2029 2029 2029 2029 2029 2029 2029 2029 2029 
2029 2029 2029 2029 2029 2029 2029 2029 2029 
2029 2029 2029 2029 2029 2029 2029 2029 2029 
2029 2029 2029 2029 2029 2029 2029 2029 2029 
2029 2029 2029 2029 2029 2029 2029 2029 2029 
2029 2029 2029 2029 2029 2029 2029 2029 2029 
2029 2029 2029 2029 2029 2029 2029 2029 2029 
2029 2029 2029 2029 2029 2029 2029 2029 2029 
2029 2029 2029 2029 2029 2029 2029 2029 2029 
2029 2029 2029 2029 2029 2029 2029 2029 2029 
2029 2029 2029 2029 2029 2029 2029 2029 2029 
2029 2029 2029 2029 2029 2029 2029 2029 2029 
2029 2029 2029 2029 2029 2029 2029 2029 2029 
2029 2029 2029 2029 2029 2029 2029 2029 2029 
2029 2029 2029 2029 2029 2029 2029 2029 2029 
2029 2029 2029 2029 2029 2029 2029 2029 2029 
2029 2029 2029 2029 2029 2029 2029 2029 2029 
2029 2029 2029 2029 2029 2029 2029 2029 2029 
2029 2029 2029 2029 2029 2029 2029 2029 2029 
2029 2029 2029 2029 2029 2029 2029 2029 2029 
2029 2029 2029 2029 2029 2029 2029 2029 2029 
2029 2029 2029 2029 2029 2029 2029 2029 2029 
2029 2029 2029 2029 2029 2029 2029 2029 2029 
2029 2029 2029 2029 2029 2029 2029 2029 2029 
2029 2029 2029 2029 2029 2029 2029 2029 2029 
2029 2029 2029 2029 2029 2029 2029 2029 2029 
2029 2029 2029 2029 2029 2029 2029 2029 2029 
2029 2029 2029 2029 2029 2029 2029 2029 2029 
2029 2029 2029 2029 2029 2029 2029 2029 2029 
2029 2029 2029 2029 2029 2029 2029 2029 2029 
2029 2029 2029 2029 2029 2029 2029 2029 2029 
2029 2029 2029 2029 2029 2029 2029 2029 2029 
2029 2029 2029 2029 2029 2029 2029 2029 2029 
2029 2029 2029 2029 2029 2029 2029 2029 2029 
2029 2029 2029 2029 2029 2029 2029 2029 2029 
2029 2029 2029 2029 2029 2029 2029 2029 2029 
2029 2029 2029 2029 2029 2029 2029 2029 2029 
2029 2029 2029 2029 2029 2029 2029 2029 2029 
2029 2029 2029 2029 2029 2029 2029 2029 2029 
2029 2029 2029 2029 2029 2029 2029 2029 2029 
2029 2029 2029 2029 2029 2029 2029 2029 2029 
2029 2029 2029 2029 2029 2029 2029 2029 2029 
2029 2029 2029 2029 2029 2029 2029 2029 2029 
2029 2029 2029 2029 2029 2029 2029 2029 2029 
2029 2029 2029 2029 2029 2029 2029 2029 2029 
2029 2029 2029 2029 2029 2029 2029 2029 2029 
2029 2029 2029 2029 2029 2029 2029 2029 2029 
2029 2029 2029 2029 2029 2029 2029 2029 2029 
2029 2029 2029 2029 2029 2029 2029 2029 2029 
2029 2029 2029 2029 2029 2029 2029 2029 2029 
2029 2029 2029 2029 2029 2029 2029 2029 2029 
2029 2029 2029 2029 2029 2029 2029 2029 2029 
2029 2029 2029 2029 2029 2029 2029 2029 2029 
2029 2029 2029 2029 2029 2029 2029 2029 2029 
2029 2029 2029 2029 2029 2029 2029 2029 2029 
2029 2029 2029 2029 2029 2029 2029 2029 2029 
2029 2029 2029 2029 2029 2029 2029 2029 2029 
2029 2029 2029 2029 2029 2029 2029 2029 2029 
2029 2029 2029 2029 2029 2029 2029 2029 2029 
2029 2029 2029 2029 2029 2029 2029 2029 2029 
2029 2029 2029 2029 2029 2029 2029 2029 2029 
2029 2029 2029 2029 2029 2029 2029 2029 2029 
2029 2029 2029 2029 2029 2029 2029 2029 2029 
2029 2029 2029 2029 2029 2029 2029 2029 2029 
2029 2029 2029 2029 2029 2029 2029 2029 2029 
2029 2029 2029 2029 2029 2029 2029 2029 2029 
2029 2029 2029 2029 2029 2029 2029 2029 2029 
2029 2029 2029 2029 2029 2029 2029 2029 2029 
2029 2029 2029 2029 2029 2029 2029 2029 2029 
2029 2029 2029 2029 2029 2029 2029 2029 2029 
2029 2029 2029 2029 2029 2029 2029 2029 2029 
2029 2029 2029 2029 2029 2029 2029 2029 2029 
2029 2029 2029 2029 2029 2029 2029 2029 2029 
2029 2029 2029 2029 2029 2029 2029 2029 2029 
2029 2029 2029 2029 2029 2029 2029 2029 2029 
2029 2029 2029 2029 2029 2029 2029 2029 2029 
2029 2029 2029 2029 2029 2029 2029 2029 2029 
2029 2029 2029 2029 2029 2029 2029 2029 2029 
2029 2029 2029 2029 2029 2029 2029 2029 2029 
2029 2029 2029 2029 2029 2029 2029 2029 2029 
2029 2029 2029 2029 2029 2029 2029 2029 2029 
2029 2029 2029 2029 2029 2029 2029 2029 2029 
2029 2029 2029 2029 2029 2029 2029 2029 2029 
2029 2029 2029 2029 2029 2029 2029 2029 2029 
2029 2029 2029 2029 2029 2029 2029 2029 2029 
2029 2029 2029 2029 2029 2029 2029 2029 2029 
2029 2029 2029 2029 2029 2029 2029 2029 2029 
2029 2029 2029 2029 2029 2029 2029 2029 2029 
2029 2029 2029 2029 2029 2029 2029 2029 2029 
2029 2029 2029 2029 2029 2029 2029 2029 2029 
2029 2029 2029 2029 2029 2029 2029 2029 2029 
2029 2029 2029 2029 2029 2029 2029 2029 2029 
2029 2029 2029 2029 2029 2029 2029 2029 2029 
2029 2029 2029 2029 2029 2029 2029 2029 2029 
2029 2029 2029 2029 2029 2029 2029 2029 2029 
2029 2029 2029 2029 2029 2029 2029 2029 2029 
2029 2029 2029 2029 2029 2029 2029 2029 2029 
2029 2029 2029 2029 2029 2029 2029 2029 2029 
2029 2029 2029 2029 2029 2029 2029 2029 2029 
2029 2029 2029 2029 2029 2029 2029 2029 2029 
2029 2029 2029 2029 2029 2029 2029 2029 2029 
2029 2029 2029 2029 2029 2029 2029 2029 2029 
2029 2029 2029 2029 2029 2029 2029 2029 2029 
2029 2029 2029 2029 2029 2029 2029 2029 2029 
2029 2029 2029 2029 2029 2029 2029 2029 2029 
2029 2029 2029 2029 2029 2029 2029 2029 2029 
2029 2029 2029 2029 2029 2029 2029 2029 2029 
2029 2029 2029 2029 2029 2029 2029 2029 2029 
2029 2029 2029 2029 2029 2029 2029 2029 2029 
2029 2029 2029 2029 2029 2029 2029 2029 2029 
2029 2029 2029 2029 2029 2029 2029 2029 2029 
2029 2029 2029 2029 2029 2029 2029 2029 2029 
2029 2029 2029 2029 2029 2029 2029 2029 2029 
2029 2029 2029 2029 2029 2029 2029 2029 2029 
2029 2029 2029 2029 2029 2029 2029 2029 2029 
2029 2029 2029 2029 2029 2029 2029 2029 2029 
2029 2029 2029 2029 2029 2029 2029 2029 2029 
2029 2029 2029 2029 2029 2029 2029 2029 2029 
2029 2029 2029 2029 2029 2029 2029 2029 2029 
2029 2029 2029 2029 2029 2029 2029 2029 2029 
2029 2029 2029 2029 2029 2029 2029 2029 2029 
2029 2029 2029 2029 2029 2029 2029 2029 2029 
2029 2029 2029 2029 2029 2029 2029 2029 2029 
2029 2029 2029 2029 2029 2029 2029 2029 2029 
2029 2029 2029 2029 2029 2029 2029 2029 2029 
2029 2029 2029 2029 2029 2029 2029 2029 2029 
2029 2029 2029 2029 2029 2029 2029 2029 2029 
2029 2029 2029 2029 2029 2029 2029 2029 2029 
2029 2029 2029 2029 2029 2029 2029 2029 2029 
2029 2029 2029 2029 2029 2029 2029 2029 2029 
2029 2029 2029 2029 2029 2029 2029 2029 2029 
2029 2029 2029 2029 2029 2029 2029 2029 2029 
2029 2029 2029 2029 2029 2029 2029 2029 2029 
2029 2029 2029 2029 2029 2029 2029 2029 2029 
2029 2029 2029 2029 2029 2029 2029 2029 2029 
2029 2029 2029 2029 2029 2029 2029 2029 2029 
2029 2029 2029 2029 2029 2029 2029 2029 2029 
2029 2029 2029 2029 2029 2029 2029 2029 2029 
2029 2029 2029 2029 2029 2029 2029 2029 2029 
2029 2029 2029 2029 2029 2029 2029 2029 2029 
2029 2029 2029 2029 2029 2029 2029 2029 2029 
2029 2029 2029 2029 2029 2029 2029 2029 2029 
2029 2029 2029 2029 2029 2029 2029 2029 2029 
2029 2029 2029 2029 2029 2029 2029 2029 2029 
2029 2029 2029 2029 2029 2029 2029 2029 2029 
2029 2029 2029 2029 2029 2029 2029 2029 2029 
2029 2029 2029 2029 2029 2029 2029 2029 2029 
2029 2029 2029 2029 2029 2029 2029 2029 2029 
2029 2029 2029 2029 2029 2029 2029 2029 2029 
2029 2029 2029 2029 2029 2029 2029 2029 2029 
2029 2029 2029 2029 2029 2029 2029 2029 2029 
2029 2029 2029 2029 2029 2029 2029 2029 2029 
2029 2029 2029 2029 2029 2029 2029 2029 2029 
2029 2029 2029 2029 2029 2029 2029 2029 2029 
2029 2029 2029 2029 2029 2029 2029 2029 2029 
2029 2029 2029 2029 2029 2029 2029 2029 2029 
2029 2029 2029 2029 2029 2029 2029 2029 2029 
2029 2029 2029 2029 2029 2029 2029 2029 2029 
2029 2029 2029 2029 2029 2029 2029 2029 2029 
2029 2029 2029 2029 2029 2029 2029 2029 2029 
2029 2029 2029 2029 2029 2029 2029 2029 2029 
2029 2029 2029 2029 2029 2029 2029 2029 2029 
2029 2029 2029 2029 2029 2029 2029 2029 2029 
2029 2029 2029 2029 2029 2029 2029 2029 2029 
2029 2029 2029 2029 2029 2029 2029 2029 2029 
2029 2029 2029 2029 2029 2029 2029 2029 2029 
2029 2029 2029 2029 2029 2029 2029 2029 2029 
2029 2029 2029 2029 2029 2029 2029 2029 2029 
2029 2029 2029 2029 2029 2029 2029 2029 2029 
2029 2029 2029 2029 2029 2029 2029 2029 2029 
2029 2029 2029 2029 2029 2029 2029 2029 2029 
2029 2029 2029 2029 2029 2029 2029 2029 2029 
2029 2029 2029 2029 2029 2029 2029 2029 2029 
2029 2029 2029 2029 2029 2029 2029 2029 2029 
2029 2029 2029 2029 2029 2029 2029 2029 2029 
2029 2029 2029 2029 2029 2029 2029 2029 2029 
2029 2029 2029 2029 2029 2029 2029 2029 2029 
2029 2029 2029 2029 2029 2029 2029 2029 2029 
2029 2029 2029 2029 2029 2029 2029 2029 2029 
2029 2029 2029 2029 2029 2029 2029 2029 2029 
2029 2029 2029 2029 2029 2029 2029 2029 2029 
2029 2029 2029 2029 2029 2029 2029 2029 2029 
2029 2029 2029 2029 2029 2029 2029 2029 2029 
2029 2029 2029 2029 2029 2029 2029 2029 2029 
2029 2029 2029 2029 2029 2029 2029 2029 2029 
2029 2029 2029 2029 2029 2029 2029 2029 2029 
2029 2029 2029 2029 2029 2029 2029 2029 2029 
2029 2029 2029 2029 2029 2029 2029 2029 2029 
2029 2029 2029 2029 2029 2029 2029 2029 2029 
2029 2029 2029 2029 2029 2029 2029 2029 2029 
2029 2029 2029 2029 2029 2029 2029 2029 2029 
2029 2029 2029 2029 2029 2029 2029 2029 2029 
2029 2029 2029 2029 2029 2029 2029 2029 2029 
2029 2029 2029 2029 2029 2029 2029 2029 2029 
2029 2029 2029 2029 2029 2029 2029 2029 2029 
2029 2029 2029 2029 2029 2029 2029 2029 2029 
2029 2029 2029 2029 2029 2029 2029 2029 2029 
2029 2029 2029 2029 2029 2029 2029 2029 2029 
2029 2029 2029 2029 2029 2029 2029 2029 2029 
2029 2029 2029 2029 2029 2029 2029 2029 2029 
2029 2029 2029 2029 2029 2029 2029 2029 2029 
2029 2029 2029 2029 2029 2029 2029 2029 2029 
2029 2029 2029 2029 2029 2029 2029 2029 2029 
2029 2029 2029 2029 2029 2029 2029 2029 2029 
2029 2029 2029 2029 2029 2029 2029 2029 2029 
2029 2029 2029 2029 2029 2029 2029 2029 2029 
2029 2029 2029 2029 2029 2029 2029 2029 2029 
2029 2029 2029 2029 2029 2029 2029 2029 2029 
2029 2029 2029 2029 2029 2029 2029 2029 2029 
2029 2029 2029 2029 2029 2029 2029 2029 2029 
2029 2029 2029 2029 2029 2029 2029 2029 2029 
2029 2029 2029 2029 2029 2029 2029 2029 2029 
2029 2029 2029 2029 2029 2029 2029 2029 2029 
2029 2029 2029 2029 2029 2029 2029 2029 2029 
2029 2029 2029 2029 2029 2029 2029 2029 2029 
2029 2029 2029 2029 2029 2029 2029 2029 2029 
2029 2029 2029 2029 2029 2029 2029 2029 2029 
2029 2029 2029 2029 2029 2029 2029 2029 2029 
2029 2029 2029 2029 2029 2029 2029 2029 2029 
2029 2029 2029 2029 2029 2029 2029 2029 2029 
2029 2029 2029 2029 2029 2029 2029 2029 2029 
2029 2029 2029 2029 2029 2029 2029 2029 2029 
2029 2029 2029 2029 2029 2029 2029 2029 2029 
2029 2029 2029 2029 2029 2029 2029 2029 2029 
2029 2029 2029 2029 2029 2029 2029 2029 2029 
2029 2029 2029 2029 2029 2029 2029 2029 2029 
2029 2029 2029 2029 2029 2029 2029 2029 2029 
2029 2029 2029 2029 2029 2029 2029 2029 2029 
2029 2029 2029 2029 2029 2029 2029 2029 2029 
2029 2029 2029 2029 2029 2029 2029 2029 2029 
2029 2029 2029 2029 2029 2029 2029 2029 2029 
2029 2029 2029 2029 2029 2029 2029 2029 2029 
2029 2029 2029 2029 2029 2029 2029 2029 2029 
2029 2029 2029 2029 2029 2029 2029 2029 2029 
2029 2029 2029 2029 2029 2029 2029 2029 2029 
2029 2029 2029 2029 2029 2029 2029 2029 2029 
2029 2029 2029 2029 2029 2029 2029 2029 2029 
2029 2029 2029 2029 2029 2029 2029 2029 2029 
2029 2029 2029 2029 2029 2029 2029 2029 2029 
2029 2029 2029 2029 2029 2029 2029 2029 2029 
2029 2029 2029 2029 2029 2029 2029 2029 2029 
2029 2029 2029 2029 2029 2029 2029 2029 2029 
2029 2029 2029 2029 2029 2029 2029 2029 2029 
2029 2029 2029 2029 2029 2029 2029 2029 2029 
2029 2029 2029 2029 2029 2029 2029 2029 2029 
2029 2029 2029 2029 2029 2029 2029 2029 2029 
2029 2029 2029 2029 2029 2029 2029 2029 2029 
2029 2029 2029 2029 2029 2029 2029 2029 2029 
2029 2029 2029 2029 2029 2029 2029 2029 2029 
2029 2029 2029 2029 2029 2029 2029 2029 2029 
2029 2029 2029 2029 2029 2029 2029 2029 2029 
2029 2029 2029 2029 2029 2029 2029 2029 2029 
2029 2029 2029 2029 2029 2029 2029 2029 2029 
2029 2029 2029 2029 2029 2029 2029 2029 2029 
2029 2029 2029 2029 2029 2029 2029 2029 2029 
2029 2029 2029 2029 2029 2029 2029 2029 2029 
2029 2029 2029 2029 2029 2029 2029 2029 2029 
2029 2029 2029 2029 2029 2029 2029 2029 2029 
2029 2029 2029 2029 2029 2029 2029 2029 2029 
2029 2029 2029 2029 2029 2029 2029 2029 2029 
2029 2029 2029 2029 2029 2029 2029 2029 2029 
2029 2029 2029 2029 2029 2029 2029 2029 2029 
2029 2029 2029 2029 2029 2029 2029 2029 2029 
2029 2029 2029 2029 2029 2029 2029 2029 2029 
2029 2029 2029 2029 2029 2029 2029 2029 2029 
2029 2029 2029 2029 2029 2029 2029 2029 2029 
2029 2029 2029 2029 2029 2029 2029 2029 2029 
2029 2029 2029 2029 2029 2029 2029 2029 2029 
2029 2029 2029 2029 2029 2029 2029 2029 2029 
2029 2029 2029 2029 2029 2029 2029 2029 2029 
2029 2029 2029 2029 2029 2029 2029 2029 2029 
2029 2029 2029 2029 2029 2029 2029 2029 2029 
2029 2029 2029 2029 2029 2029 2029 2029 2029 
2029 2029 2029 2029 2029 2029 2029 2029 2029 
2029 2029 2029 2029 2029 2029 2029 2029 2029 
2029 2029 2029 2029 2029 2029 2029 2029 2029 
2029 2029 2029 2029 2029 2029 2029 2029 2029 
2029 2029 2029 2029 2029 2029 2029 2029 2029 
2029 2029 2029 2029 2029 2029 2029 2029 2029 
2029 2029 2029 2029 2029 2029 2029 2029 2029 
2029 2029 2029 2029 2029 2029 2029 2029 2029 
2029 2029 2029 2029 2029 2029 2029 2029 2029 
2029 2029 2029 2029 2029 2029 2029 2029 2029 
2029 2029 2029 2029 2029 2029 2029 2029 2029 
2029 2029 2029 2029 2029 2029 2029 2029 2029 
2029 2029 2029 2029 2029 2029 2029 2029 2029 
2029 2029 2029 2029 2029 2029 2029 2029 2029 
2029 2029 2029 2029 2029 2029 2029 2029 2029 
2029 2029 2029 2029 2029 2029 2029 2029 2029 
2029 2029 2029 2029 2029 2029 2029 2029 2029 
2029 2029 2029 2029 2029 2029 2029 2029 2029 
2029 2029 2029 2029 2029 2029 2029 2029 2029 
2029 2029 2029 2029 2029 2029 2029 2029 2029 
2029 2029 2029 2029 2029 2029 2029 2029 2029 
2029 2029 2029 2029 2029 2029 2029 2029 2029 
2029 2029 2029 2029 2029 2029 2029 2029 2029 
2029 2029 2029 2029 2029 2029 2029 2029 2029 
2029 2029 2029 2029 2029 2029 2029 2029 2029 
2029 2029 2029 2029 2029 2029 2029 2029 2029 
2029 2029 2029 2029 2029 2029 2029 2029 2029 
2029 2029 2029 2029 2029 2029 2029 2029 2029 
2029 2029 2029 2029 2029 2029 2029 2029 2029 
2029 2029 2029 2029 2029 2029 2029 2029 2029 
2029 2029 2029 2029 2029 2029 2029 2029 2029 
2029 2029 2029 2029 2029 2029 2029 2029 2029 
2029 2029 2029 2029 2029 2029 2029 2029 2029 
2029 2029 2029 2029 2029 2029 2029 2029 2029 
2029 2029 2029 2029 2029 2029 2029 2029 2029 
2029 2029 2029 2029 2029 2029 2029 2029 2029 
2029 2029 2029 2029 2029 2029 2029 2029 2029 
2029 2029 2029 2029 2029 2029 2029 2029 2029 
2029 2029 2029 2029 2029 2029 2029 2029 2029 
2029 2029 2029 2029 2029 2029 2029 2029 2029 
2029 2029 2029 2029 2029 2029 2029 2029 2029 
2029 2029 2029 2029 2029 2029 2029 2029 2029 
2029 2029 2029 2029 2029 2029 2029 2029 2029 
2029 2029 2029 2029 2029 2029 2029 2029 2029 
2029 2029 2029 2029 2029 2029 2029 2029 2029 
2029 2029 2029 2029 2029 2029 2029 2029 2029 
2029 2029 2029 2029 2029 2029 2029 2029 2029 
2029 2029 2029 2029 2029 2029 2029 2029 2029 
2029 2029 2029 2029 2029 2029 2029 2029 2029 
2029 2029 2029 2029 2029 2029 2029 2029 2029 
2029 2029 2029 2029 2029 2029 2029 2029 2029 
2029 2029 2029 2029 2029 2029 2029 2029 2029 
2029 2029 2029 2029 2029 2029 2029 2029 2029 
2029 2029 2029 2029 2029 2029 2029 2029 2029 
2029 2029 2029 2029 2029 2029 2029 2029 2029 
2029 2029 2029 2029 2029 2029 2029 2029 2029 
2029 2029 2029 2029 2029 2029 2029 2029 2029 
2029 2029 2029 2029 2029 2029 2029 2029 2029 
2029 2029 2029 2029 2029 2029 2029 2029 2029 
2029 2029 2029 2029 2029 2029 2029 2029 2029 
2029 2029 2029 2029 2029 2029 2029 2029 2029 
2029 2029 2029 2029 2029 2029 2029 2029 2029 
2029 2029 2029 2029 2029 2029 2029 2029 2029 
2029 2029 2029 2029 2029 2029 2029 2029 2029 
2029 2029 2029 2029 2029 2029 2029 2029 2029 
2029 2029 2029 2029 2029 2029 2029 2029 2029 
2029 2029 2029 2029 2029 2029 2029 2029 2029 
2029 2029 2029 2029 2029 2029 2029 2029 2029 
2029 2029 2029 2029 2029 2029 2029 2029 2029 
2029 2029 2029 2029 2029 2029 2029 2029 2029 
2029 2029 2029 2029 2029 2029 2029 2029 2029 
2029 2029 2029 2029 2029 2029 2029 2029 2029 
2029 2029 2029 2029 2029 2029 2029 2029 2029 
2029 2029 2029 2029 2029 2029 2029 2029 2029 
2029 2029 2029 2029 2029 2029 2029 2029 2029 
2029 2029 2029 2029 2029 2029 2029 2029 2029 
2029 2029 2029 2029 2029 2029 2029 2029 2029 
2029 2029 2029 2029 2029 2029 2029 2029 2029 
2029 2029 2029 2029 2029 2029 2029 2029 2029 
2029 2029 2029 2029 2029 2029 2029 2029 2029 
2029 2029 2029 2029 2029 2029 2029 2029 2029 
2029 2029 2029 2029 2029 2029 2029 2029 2029 
2029 2029 2029 2029 2029 2029 2029 2029 2029 
2029 2029 2029 2029 2029 2029 2029 2029 2029 
2029 2029 2029 2029 2029 2029 2029 2029 2029 
2029 2029 2029 2029 2029 2029 2029 2029 2029 
2029 2029 2029 2029 2029 2029 2029 2029 2029 
2029 2029 2029 2029 2029 2029 2029 2029 2029 
2029 2029 2029 2029 2029 2029 2029 2029 2029 
2029 2029 2029 2029 2029 2029 2029 2029 2029 
2029 2029 2029 2029 2029 2029 2029 2029 2029 
2029 2029 2029 2029 2029 2029 2029 2029 2029 
2029 2029 2029 2029 2029 2029 2029 2029 2029 
2029 2029 2029 2029 2029 2029 2029 2029 2029 
2029 2029 2029 2029 2029 2029 2029 2029 2029 
2029 2029 2029 2029 2029 2029 2029 2029 2029 
2029 2029 2029 2029 2029 2029 2029 2029 2029 
2029 2029 2029 2029 2029 2029 2029 2029 2029 
2029 2029 2029 2029 2029 2029 2029 2029 2029 
2029 2029 2029 2029 2029 2029 2029 2029 2029 
2029 2029 2029 2029 2029 2029 2029 2029 2029 
2029 2029 2029 2029 2029 2029 2029 2029 2029 
2029 2029 2029 2029 2029 2029 2029 2029 2029 
2029 2029 2029 2029 2029 2029 2029 2029 2029 
2029 2029 2029 2029 2029 2029 2029 2029 2029 
2029 2029 2029 2029 2029 2029 2029 2029 2029 
2029 2029 2029 2029 2029 2029 2029 2029 2029 
2029 2029 2029 2029 2029 2029 2029 2029 2029 
2029 2029 2029 2029 2029 2029 2029 2029 2029 
2029 2029 2029 2029 2029 2029 2029 2029 2029 
2029 2029 2029 2029 2029 2029 2029 2029 2029 
2029 2029 2029 2029 2029 2029 2029 2029 2029 
2029 2029 2029 2029 2029 2029 2029 2029 2029 
2029 2029 2029 2029 2029 2029 2029 2029 2029 
2029 2029 2029 2029 2029 2029 2029 2029 2029 
2029 2029 2029 2029 2029 2029 2029 2029 2029 
2029 2029 2029 2029 2029 2029 2029 2029 2029 
2029 2029 2029 2029 2029 2029 2029 2029 2029 
2029 2029 2029 2029 2029 2029 2029 2029 2029 
2029 2029 2029 2029 2029 2029 2029 2029 2029 