# vtk DataFile Version 4.2
vtk output
ASCII
DATASET POLYDATA
POINTS 28094 float
-5.9552 -21.4146 44.8548 -5.68401 -21.1001 44.6714 -5.53215 -21.4576 44.7257 
-6.02773 -21.1628 44.6715 -5.92108 -21.8885 44.9517 -5.48114 -22.0321 44.7405 
-6.31286 -21.5038 44.7561 -6.46938 -21.946 44.9249 -6.67179 -21.7889 44.6786 
-5.83377 -22.5615 44.9866 -5.38779 -22.539 44.7664 -6.43354 -22.5005 45.049 
-6.94371 -22.161 44.7515 -6.95851 -22.5464 44.9045 -7.25748 -22.4567 44.6644 
-5.39761 -23.0419 44.883 -5.09454 -22.8396 44.6653 -5.03527 -23.2014 44.6639 
-5.89711 -23.1968 45.0411 -6.31711 -23.0328 45.0665 -6.82783 -23.1386 44.9314 
-7.30978 -22.9182 44.7026 -5.26577 -23.4596 44.7532 -5.52095 -23.822 44.6741 
-5.68105 -23.5677 44.9017 -6.29872 -23.5879 44.9327 -6.77169 -23.6307 44.7609 
-7.14366 -23.3726 44.6758 -6.00274 -23.9874 44.7093 -6.48652 -23.9332 44.6805 
-5.9043 -20.1976 44.298 -5.74744 -19.8663 44.0744 -5.44124 -20.1792 44.1499 
-6.56517 -20.1337 44.3292 -6.23829 -19.7462 44.1153 -7.134 -20.2313 44.2947 
-6.80086 -19.783 44.1233 -7.25043 -19.976 44.0866 -5.25373 -20.6586 44.3123 
-5.06543 -20.4453 44.0891 -4.80369 -20.8067 44.1611 -5.81598 -20.8162 44.4815 
-6.40686 -20.6613 44.4152 -7.02037 -20.6716 44.4144 -7.52775 -20.3319 44.1598 
-7.64728 -20.7614 44.315 -7.86867 -20.5919 44.0924 -4.77981 -21.2594 44.317 
-4.51232 -20.9811 44.0394 -4.40576 -21.3718 44.0405 -5.29675 -21.1375 44.5048 
-6.45726 -21.2915 44.5191 -7.00291 -21.2701 44.4203 -7.6137 -21.297 44.4101 
-8.11556 -20.9541 44.1567 -8.14137 -21.3369 44.287 -8.41031 -21.2438 44.0751 
-4.66132 -21.9059 44.3424 -4.35893 -21.9335 44.058 -5.10691 -21.7118 44.5125 
-7.09871 -21.933 44.5073 -7.64447 -21.9081 44.4145 -8.27181 -21.9386 44.3412 
-8.56726 -21.7049 44.1128 -4.50943 -22.5108 44.3509 -4.19689 -22.4607 44.0981 
-5.02478 -22.3915 44.5312 -7.65322 -22.5697 44.4829 -8.24162 -22.5192 44.4057 
-8.75306 -22.1623 44.1525 -8.75253 -22.5495 44.2811 -9.05463 -22.4621 44.0627 
-4.18262 -23.0636 44.3201 -3.94745 -22.7409 44.047 -3.79613 -23.1377 44.06 
-4.74203 -23.0711 44.4857 -7.631 -23.2753 44.491 -8.14022 -23.0181 44.4185 
-8.63916 -23.1253 44.3084 -9.09039 -22.9112 44.1015 -4.0652 -23.6952 44.3427 
-3.66688 -23.7572 44.0712 -4.59084 -23.7007 44.4217 -5.11527 -23.6927 44.5203 
-7.07487 -23.8454 44.5179 -7.71368 -23.8106 44.4287 -8.22567 -23.6312 44.3512 
-8.6412 -23.6721 44.1729 -8.9351 -23.3721 44.0901 -4.07252 -24.3075 44.3639 
-3.67555 -24.4528 44.151 -4.61007 -24.3105 44.4309 -5.20334 -24.3153 44.4242 
-5.77547 -24.3003 44.4871 -6.48893 -24.3188 44.4912 -6.99977 -24.3 44.4286 
-7.44332 -24.3341 44.3582 -8.03019 -24.2215 44.3029 -8.5339 -24.2542 44.0245 
-4.07959 -24.9173 44.3727 -3.69008 -25.0607 44.1413 -4.61397 -24.918 44.4526 
-5.2257 -24.9225 44.4311 -5.72453 -24.8203 44.4178 -6.23711 -24.9333 44.3554 
-6.88783 -24.7599 44.3152 -7.35837 -24.9309 44.0295 -7.79109 -24.6582 44.1382 
-8.19614 -24.6143 44.0514 -4.07533 -25.4746 44.3155 -3.7809 -25.566 44.1029 
-4.49868 -25.4106 44.4366 -5.0498 -25.5492 44.3715 -5.71902 -25.3803 44.3118 
-6.17245 -25.5294 44.0043 -6.59135 -25.2401 44.1295 -6.97705 -25.187 44.0387 
-4.08261 -25.881 44.1734 -4.34336 -26.2202 44.0728 -4.53021 -25.9173 44.284 
-4.97274 -26.0329 44.1605 -5.42599 -25.8757 44.118 -5.82878 -25.7998 43.998 
-4.7089 -26.2863 44.0549 -6.47639 -26.9006 44.3081 -6.43954 -26.5717 44.0679 
-6.07427 -26.6682 44.0594 -6.74413 -26.5772 44.0238 -5.97289 -27.161 44.2875 
-5.71212 -27.0437 44.0787 -5.65951 -27.4135 44.0929 -6.32685 -27.318 44.3646 
-6.94411 -26.9446 44.1952 -6.82031 -27.2703 44.2945 -7.20328 -27.2069 44.1046 
-5.99427 -27.5843 44.1559 -6.56273 -27.6169 44.1504 -7.07975 -27.5112 44.0858 
-5.90673 -18.9947 43.7222 -5.85634 -18.6263 43.5266 -5.50464 -18.8905 43.5144 
-6.56414 -18.9424 43.7408 -6.26832 -18.5638 43.5159 -7.11801 -19.0397 43.6967 
-6.96484 -18.5692 43.3885 -7.36254 -18.8422 43.4348 -5.25789 -19.4788 43.7202 
-5.07613 -19.251 43.4933 -4.81176 -19.618 43.5723 -5.80114 -19.5403 43.9008 
-6.39529 -19.3713 43.9141 -7.03858 -19.5026 43.9014 -7.5099 -19.1496 43.5751 
-7.62475 -19.5705 43.7316 -7.84925 -19.4005 43.4978 -4.73713 -19.9957 43.7021 
-4.52273 -19.7741 43.4337 -4.39752 -20.1417 43.4342 -5.22678 -20.0167 43.925 
-7.67374 -20.1169 43.9383 -8.23164 -19.7348 43.4313 -8.24844 -20.1829 43.7289 
-8.55955 -20.0759 43.4521 -4.66213 -20.5109 43.8653 -4.33662 -20.737 43.5558 
-8.27124 -20.7391 43.9386 -8.84264 -20.3455 43.4186 -8.83329 -20.7747 43.7395 
-9.15308 -20.6546 43.45 -4.29179 -21.3156 43.536 -8.81598 -21.3713 43.9005 
-9.44404 -20.9334 43.4335 -9.43571 -21.37 43.7303 -9.74957 -21.2569 43.436 
-4.22282 -21.932 43.5679 -8.99676 -22.0205 43.9432 -9.43767 -21.9116 43.8378 
-10.0318 -21.5406 43.423 -10.0527 -21.9602 43.7229 -10.3845 -21.8474 43.4436 
-4.03415 -22.4026 43.7912 -4.00758 -22.2395 43.3303 -3.80955 -22.653 43.6645 
-9.43506 -22.5651 43.8897 -9.9275 -22.4056 43.8147 -10.5541 -22.1491 43.5711 
-10.4366 -22.5529 43.6869 -10.8155 -22.3928 43.4885 -3.57437 -23.1139 43.6085 
-9.32725 -23.2399 43.9055 -9.91214 -23.0841 43.7272 -10.3981 -23.0096 43.5708 
-10.7409 -22.7449 43.4958 -3.41642 -23.6242 43.7263 -3.34686 -23.3221 43.4182 
-3.22462 -23.727 43.4321 -8.96697 -23.8381 43.9387 -9.48151 -23.7368 43.7501 
-9.80022 -23.756 43.4894 -10.1258 -23.3652 43.4905 -3.39176 -24.1213 43.8292 
-3.17105 -24.2961 43.4508 -8.88086 -24.2787 43.8295 -9.21655 -24.2413 43.7076 
-9.55771 -24.1687 43.5227 -3.38366 -24.7271 43.8442 -3.08984 -24.9647 43.4743 
-7.6639 -24.9304 43.8953 -8.01104 -24.9174 43.7984 -8.46707 -24.8029 43.6859 
-8.95737 -24.625 43.488 -9.39436 -24.472 43.383 -3.44395 -25.4285 43.8405 
-3.07808 -25.6798 43.4372 -6.54033 -25.5962 43.8702 -7.00833 -25.5877 43.8325 
-7.30394 -25.389 43.6723 -7.72614 -25.2194 43.4637 -8.29537 -25.0886 43.3318 
-3.46029 -26.0597 43.708 -3.1988 -26.2315 43.3569 -3.91952 -26.0766 43.9348 
-5.19569 -26.3299 43.9078 -5.81517 -26.2103 43.8413 -6.14902 -26.0134 43.4957 
-6.40769 -25.8607 43.4488 -6.59317 -26.048 43.2869 -6.89983 -26.1241 43.7454 
-7.60162 -25.7161 43.4632 -7.64987 -26.082 43.7395 -8.3643 -26.1638 43.7492 
-8.19146 -25.8718 43.4131 -8.98466 -26.1596 43.7658 -8.80854 -25.8744 43.418 
-9.58835 -26.1612 43.7784 -9.40697 -25.8528 43.4473 -10.1416 -26.2333 43.7225 
-9.88451 -25.9072 43.5403 -10.3416 -25.9574 43.4321 -3.48244 -26.4405 43.5718 
-3.67506 -26.693 43.5323 -3.95139 -26.6287 43.7201 -4.64832 -26.6375 43.8652 
-5.21764 -26.7179 43.8072 -5.59723 -26.6787 43.8867 -6.42855 -26.2912 43.5751 
-7.19674 -26.8029 43.9603 -7.62977 -26.7014 43.8336 -8.22251 -26.6912 43.8392 
-8.81593 -26.6972 43.8615 -9.41496 -26.6848 43.8653 -9.93309 -26.6093 43.8435 
-10.5546 -26.3263 43.578 -10.4395 -26.7602 43.6881 -10.8077 -26.5858 43.4934 
-3.91969 -27.0173 43.4542 -4.26518 -27.529 43.5388 -4.58037 -27.2937 43.7461 
-5.29113 -27.2319 43.8749 -7.5442 -27.397 43.8843 -8.21128 -27.3123 43.8258 
-8.80798 -27.3179 43.8356 -9.30999 -27.2291 43.8437 -9.90265 -27.2851 43.7388 
-10.4147 -27.2259 43.556 -10.7457 -26.9427 43.4791 -4.61458 -27.8091 43.6951 
-4.38276 -27.8751 43.5554 -5.0596 -27.8501 43.7467 -5.64207 -27.8413 43.8366 
-6.25405 -27.9271 43.8366 -6.96265 -27.8511 43.8228 -7.51989 -27.9036 43.7124 
-8.05689 -27.8312 43.7262 -8.66636 -27.8446 43.7276 -9.3161 -27.8 43.7085 
-9.7685 -27.8427 43.5501 -10.1412 -27.5854 43.4846 -4.63013 -28.1793 43.4702 
-5.3464 -28.2533 43.5377 -5.95144 -28.2408 43.5209 -6.55848 -28.2187 43.5104 
-7.17995 -28.2044 43.5071 -7.79171 -28.2083 43.513 -8.39307 -28.2264 43.5227 
-8.99127 -28.2377 43.5134 -9.47597 -28.1457 43.4736 -5.87945 -18.403 43.2163 
-5.77388 -18.0943 42.8575 -5.46211 -18.4027 42.9599 -6.5814 -18.2733 43.2027 
-6.26522 -17.9827 42.9031 -6.98363 -18.2799 43.1317 -6.83871 -18.0143 42.9074 
-7.25057 -18.2421 42.9533 -4.72687 -18.8872 43.0642 -4.59966 -18.6168 42.7988 
-4.41751 -18.9515 42.836 -5.18861 -18.8339 43.224 -5.00707 -18.5533 42.9073 
-7.81937 -19.014 43.2726 -7.5588 -18.5885 43.082 -8.23829 -19.0639 43.0534 
-8.05365 -18.6637 42.905 -8.41535 -18.7858 42.7134 -4.6805 -19.3041 43.2643 
-4.34911 -19.5348 42.9402 -8.14259 -19.3715 43.2675 -8.52453 -19.3561 42.8738 
-4.29583 -20.0955 42.9007 -8.80606 -20.1178 43.2344 -8.70092 -19.8629 43.082 
-9.04779 -20.0534 42.773 -4.29854 -20.6725 42.9086 -9.42 -20.7067 43.241 
-9.37154 -20.4799 42.9438 -9.72221 -20.7248 42.9046 -4.29973 -21.274 42.919 
-7.00512 -21.4498 43.104 -6.77569 -21.367 42.8924 -7.04274 -20.9968 42.7769 
-7.29808 -21.3162 42.8844 -10.0028 -21.3189 43.2146 -10.0179 -21.0225 42.8935 
-10.2939 -21.3173 42.9066 -11.9174 -21.2541 43.0216 -11.7288 -21.0888 42.8858 
-11.6189 -21.2893 42.9172 -12.2775 -21.3368 43.0203 -12.1911 -21.0328 42.926 
-12.5776 -21.2001 42.8902 -4.22273 -21.8001 42.9135 -6.9092 -21.7557 43.097 
-6.76953 -21.9182 42.7509 -7.23855 -21.7027 42.9972 -10.8324 -21.9937 43.2603 
-10.5224 -21.5957 43.0591 -11.3418 -22.0479 43.0737 -11.0189 -21.6295 42.8886 
-11.9436 -21.5367 42.8887 -11.4658 -21.7909 42.8469 -12.4889 -21.5077 42.8785 
-4.00561 -22.1793 42.7556 -3.69642 -22.5831 43.0887 -7.05665 -22.0344 42.9313 
-11.0855 -22.5382 43.2953 -11.7362 -22.1326 42.9372 -11.6331 -22.5642 43.0696 
-11.9804 -22.4035 42.8771 -3.43161 -22.968 43.1639 -3.40436 -22.8094 42.7161 
-3.22039 -23.2391 43.0218 -6.41929 -23.2044 43.0605 -6.21539 -23.2459 42.9596 
-6.33197 -22.9769 42.8102 -6.65584 -22.9936 42.8249 -10.5915 -23.1683 43.3509 
-11.131 -23.1505 43.1345 -11.6191 -23.1542 42.8238 -11.9344 -22.7582 42.8743 
-3.02986 -23.7619 42.9317 -6.35652 -23.542 43.0794 -6.16199 -23.659 42.8537 
-6.66951 -23.4995 42.9613 -10.0918 -23.7216 43.2434 -10.5553 -23.6226 43.1234 
-10.9348 -23.6205 42.9825 -11.2533 -23.479 42.8584 -2.96374 -24.4225 43.081 
-6.47768 -23.8613 42.9288 -9.7408 -24.3064 42.9911 -10.1915 -24.0349 42.8284 
-10.7028 -23.8836 42.7712 -2.83469 -24.8652 43.1452 -2.73955 -24.5514 42.8356 
-2.61155 -24.9524 42.845 -8.71413 -24.9503 43.2518 -9.08946 -24.9983 42.8408 
-9.38874 -24.7157 42.9446 -2.79985 -25.3226 43.2073 -2.58684 -25.5565 42.7517 
[...]
CELL_DATA 56256
SCALARS scalars float
LOOKUP_TABLE default
1028 1028 1028 1028 1028 1028 1028 1028 1028 
1028 1028 1028 1028 1028 1028 1028 1028 1028 
1028 1028 1028 1028 1028 1028 1028 1028 1028 
1028 1028 1028 1028 1028 1028 1028 1028 1028 
1028 1028 1028 1028 1028 1028 1028 1028 1028 
1028 1028 1028 1028 1028 1028 1028 1028 1028 
1028 1028 1028 1028 1028 1028 1028 1028 1028 
1028 1028 1028 1028 1028 1028 1028 1028 1028 
1028 1028 1028 1028 1028 1028 1028 1028 1028 
1028 1028 1028 1028 1028 1028 1028 1028 1028 
1028 1028 1028 1028 1028 1028 1028 1028 1028 
1028 1028 1028 1028 1028 1028 1028 1028 1028 
1028 1028 1028 1028 1028 1028 1028 1028 1028 
1028 1028 1028 1028 1028 1028 1028 1028 1028 
1028 1028 1028 1028 1028 1028 1028 1028 1028 
1028 1028 1028 1028 1028 1028 1028 1028 1028 
1028 1028 1028 1028 1028 1028 1028 1028 1028 
1028 1028 1028 1028 1028 1028 1028 1028 1028 
1028 1028 1028 1028 1028 1028 1028 1028 1028 
1028 1028 1028 1028 1028 1028 1028 1028 1028 
1028 1028 1028 1028 1028 1028 1028 1028 1028 
1028 1028 1028 1028 1028 1028 1028 1028 1028 
1028 1028 1028 1028 1028 1028 1028 1028 1028 
1028 1028 1028 1028 1028 1028 1028 1028 1028 
1028 1028 1028 1028 1028 1028 1028 1028 1028 
1028 1028 1028 1028 1028 1028 1028 1028 1028 
1028 1028 1028 1028 1028 1028 1028 1028 1028 
1028 1028 1028 1028 1028 1028 1028 1028 1028 
1028 1028 1028 1028 1028 1028 1028 1028 1028 
1028 1028 1028 1028 1028 1028 1028 1028 1028 
1028 1028 1028 1028 1028 1028 1028 1028 1028 
1028 1028 1028 1028 1028 1028 1028 1028 1028 
1028 1028 1028 1028 1028 1028 1028 1028 1028 
1028 1028 1028 1028 1028 1028 1028 1028 1028 
1028 1028 1028 1028 1028 1028 1028 1028 1028 
1028 1028 1028 1028 1028 1028 1028 1028 1028 
1028 1028 1028 1028 1028 1028 1028 1028 1028 
1028 1028 1028 1028 1028 1028 1028 1028 1028 
1028 1028 1028 1028 1028 1028 1028 1028 1028 
1028 1028 1028 1028 1028 1028 1028 1028 1028 
1028 1028 1028 1028 1028 1028 1028 1028 1028 
1028 1028 1028 1028 1028 1028 1028 1028 1028 
1028 1028 1028 1028 1028 1028 1028 1028 1028 
1028 1028 1028 1028 1028 1028 1028 1028 1028 
1028 1028 1028 1028 1028 1028 1028 1028 1028 
1028 1028 1028 1028 1028 1028 1028 1028 1028 
1028 1028 1028 1028 1028 1028 1028 1028 1028 
1028 1028 1028 1028 1028 1028 1028 1028 1028 
1028 1028 1028 1028 1028 1028 1028 1028 1028 
1028 1028 1028 1028 1028 1028 1028 1028 1028 
1028 1028 1028 1028 1028 1028 1028 1028 1028 
1028 1028 1028 1028 1028 1028 1028 1028 1028 
1028 1028 1028 1028 1028 1028 1028 1028 1028 
1028 1028 1028 1028 1028 1028 1028 1028 1028 
1028 1028 1028 1028 1028 1028 1028 1028 1028 
1028 1028 1028 1028 1028 1028 1028 1028 1028 
1028 1028 1028 1028 1028 1028 1028 1028 1028 
1028 1028 1028 1028 1028 1028 1028 1028 1028 
1028 1028 1028 1028 1028 1028 1028 1028 1028 
1028 1028 1028 1028 1028 1028 1028 1028 1028 
1028 1028 1028 1028 1028 1028 1028 1028 1028 
1028 1028 1028 1028 1028 1028 1028 1028 1028 
1028 1028 1028 1028 1028 1028 1028 1028 1028 
1028 1028 1028 1028 1028 1028 1028 1028 1028 
1028 1028 1028 1028 1028 1028 1028 1028 1028 
1028 1028 1028 1028 1028 1028 1028 1028 1028 
1028 1028 1028 1028 1028 1028 1028 1028 1028 
1028 1028 1028 1028 1028 1028 1028 1028 1028 
1028 1028 1028 1028 1028 1028 1028 1028 1028 
1028 1028 1028 1028 1028 1028 1028 1028 1028 
1028 1028 1028 1028 1028 1028 1028 1028 1028 
1028 1028 1028 1028 1028 1028 1028 1028 1028 
1028 1028 1028 1028 1028 1028 1028 1028 1028 
1028 1028 1028 1028 1028 1028 1028 1028 1028 
1028 1028 1028 1028 1028 1028 1028 1028 1028 
1028 1028 1028 1028 1028 1028 1028 1028 1028 
1028 1028 1028 1028 1028 1028 1028 1028 1028 
1028 1028 1028 1028 1028 1028 1028 1028 1028 
1028 1028 1028 1028 1028 1028 1028 1028 1028 
1028 1028 1028 1028 1028 1028 1028 1028 1028 
1028 1028 1028 1028 1028 1028 1028 1028 1028 
1028 1028 1028 1028 1028 1028 1028 1028 1028 
1028 1028 1028 1028 1028 1028 1028 1028 1028 
1028 1028 1028 1028 1028 1028 1028 1028 1028 
1028 1028 1028 1028 1028 1028 1028 1028 1028 
1028 1028 1028 1028 1028 1028 1028 1028 1028 
1028 1028 1028 1028 1028 1028 1028 1028 1028 
1028 1028 1028 1028 1028 1028 1028 1028 1028 
1028 1028 1028 1028 1028 1028 1028 1028 1028 
1028 1028 1028 1028 1028 1028 1028 1028 1028 
1028 1028 1028 1028 1028 1028 1028 1028 1028 
1028 1028 1028 1028 1028 1028 1028 1028 1028 
1028 1028 1028 1028 1028 1028 1028 1028 1028 
1028 1028 1028 1028 1028 1028 1028 1028 1028 
1028 1028 1028 1028 1028 1028 1028 1028 1028 
1028 1028 1028 1028 1028 1028 1028 1028 1028 
1028 1028 1028 1028 1028 1028 1028 1028 1028 
1028 1028 1028 1028 1028 1028 1028 1028 1028 
1028 1028 1028 1028 1028 1028 1028 1028 1028 
1028 1028 1028 1028 1028 1028 1028 1028 1028 
1028 1028 1028 1028 1028 1028 1028 1028 1028 
1028 1028 1028 1028 1028 1028 1028 1028 1028 
1028 1028 1028 1028 1028 1028 1028 1028 1028 
1028 1028 1028 1028 1028 1028 1028 1028 1028 
1028 1028 1028 1028 1028 1028 1028 1028 1028 
1028 1028 1028 1028 1028 1028 1028 1028 1028 
1028 1028 1028 1028 1028 1028 1028 1028 1028 
1028 1028 1028 1028 1028 1028 1028 1028 1028 
1028 1028 1028 1028 1028 1028 1028 1028 1028 
1028 1028 1028 1028 1028 1028 1028 1028 1028 
1028 1028 1028 1028 1028 1028 1028 1028 1028 
1028 1028 1028 1028 1028 1028 1028 1028 1028 
1028 1028 1028 1028 1028 1028 1028 1028 1028 
1028 1028 1028 1028 1028 1028 1028 1028 1028 
1028 1028 1028 1028 1028 1028 1028 1028 1028 
1028 1028 1028 1028 1028 1028 1028 1028 1028 
1028 1028 1028 1028 1028 1028 1028 1028 1028 
1028 1028 1028 1028 1028 1028 1028 1028 1028 
1028 1028 1028 1028 1028 1028 1028 1028 1028 
1028 1028 1028 1028 1028 1028 1028 1028 1028 
1028 1028 1028 1028 1028 1028 1028 1028 1028 
1028 1028 1028 1028 1028 1028 1028 1028 1028 
1028 1028 1028 1028 1028 1028 1028 1028 1028 
1028 1028 1028 1028 1028 1028 1028 1028 1028 
1028 1028 1028 1028 1028 1028 1028 1028 1028 
1028 1028 1028 1028 1028 1028 1028 1028 1028 
1028 1028 1028 1028 1028 1028 1028 1028 1028 
1028 1028 1028 1028 1028 1028 1028 1028 1028 
1028 1028 1028 1028 1028 1028 1028 1028 1028 
1028 1028 1028 1028 1028 1028 1028 1028 1028 
1028 1028 1028 1028 1028 1028 1028 1028 1028 
1028 1028 1028 1028 1028 1028 1028 1028 1028 
1028 1028 1028 1028 1028 1028 1028 1028 1028 
1028 1028 1028 1028 1028 1028 1028 1028 1028 
1028 1028 1028 1028 1028 1028 1028 1028 1028 
1028 1028 1028 1028 1028 1028 1028 1028 1028 
1028 1028 1028 1028 1028 1028 1028 1028 1028 
1028 1028 1028 1028 1028 1028 1028 1028 1028 
1028 1028 1028 1028 1028 1028 1028 1028 1028 
1028 1028 1028 1028 1028 1028 1028 1028 1028 
1028 1028 1028 1028 1028 1028 1028 1028 1028 
1028 1028 1028 1028 1028 1028 1028 1028 1028 
1028 1028 1028 1028 1028 1028 1028 1028 1028 
1028 1028 1028 1028 1028 1028 1028 1028 1028 
1028 1028 1028 1028 1028 1028 1028 1028 1028 
1028 1028 1028 1028 1028 1028 1028 1028 1028 
1028 1028 1028 1028 1028 1028 1028 1028 1028 
1028 1028 1028 1028 1028 1028 1028 1028 1028 
1028 1028 1028 1028 1028 1028 1028 1028 1028 
1028 1028 1028 1028 1028 1028 1028 1028 1028 
1028 1028 1028 1028 1028 1028 1028 1028 1028 
1028 1028 1028 1028 1028 1028 1028 1028 1028 
1028 1028 1028 1028 1028 1028 1028 1028 1028 
1028 1028 1028 1028 1028 1028 1028 1028 1028 
1028 1028 1028 1028 1028 1028 1028 1028 1028 
1028 1028 1028 1028 1028 1028 1028 1028 1028 
1028 1028 1028 1028 1028 1028 1028 1028 1028 
1028 1028 1028 1028 1028 1028 1028 1028 1028 
1028 1028 1028 1028 1028 1028 1028 1028 1028 
1028 1028 1028 1028 1028 1028 1028 1028 1028 
1028 1028 1028 1028 1028 1028 1028 1028 1028 
1028 1028 1028 1028 1028 1028 1028 1028 1028 
1028 1028 1028 1028 1028 1028 1028 1028 1028 
1028 1028 1028 1028 1028 1028 1028 1028 1028 
1028 1028 1028 1028 1028 1028 1028 1028 1028 
1028 1028 1028 1028 1028 1028 1028 1028 1028 
1028 1028 1028 1028 1028 1028 1028 1028 1028 
1028 1028 1028 1028 1028 1028 1028 1028 1028 
1028 1028 1028 1028 1028 1028 1028 1028 1028 
1028 1028 1028 1028 1028 1028 1028 1028 1028 
1028 1028 1028 1028 1028 1028 1028 1028 1028 
1028 1028 1028 1028 1028 1028 1028 1028 1028 
1028 1028 1028 1028 1028 1028 1028 1028 1028 
1028 1028 1028 1028 1028 1028 1028 1028 1028 
1028 1028 1028 1028 1028 1028 1028 1028 1028 
1028 1028 1028 1028 1028 1028 1028 1028 1028 
1028 1028 1028 1028 1028 1028 1028 1028 1028 
1028 1028 1028 1028 1028 1028 1028 1028 1028 
1028 1028 1028 1028 1028 1028 1028 1028 1028 
1028 1028 1028 1028 1028 1028 1028 1028 1028 
1028 1028 1028 1028 1028 1028 1028 1028 1028 
1028 1028 1028 1028 1028 1028 1028 1028 1028 
1028 1028 1028 1028 1028 1028 1028 1028 1028 
1028 1028 1028 1028 1028 1028 1028 1028 1028 
1028 1028 1028 1028 1028 1028 1028 1028 1028 
1028 1028 1028 1028 1028 1028 1028 1028 1028 
1028 1028 1028 1028 1028 1028 1028 1028 1028 
1028 1028 1028 1028 1028 1028 1028 1028 1028 
1028 1028 1028 1028 1028 1028 1028 1028 1028 
1028 1028 1028 1028 1028 1028 1028 1028 1028 
1028 1028 1028 1028 1028 1028 1028 1028 1028 
1028 1028 1028 1028 1028 1028 1028 1028 1028 
1028 1028 1028 1028 1028 1028 1028 1028 1028 
1028 1028 1028 1028 1028 1028 1028 1028 1028 
1028 1028 1028 1028 1028 1028 1028 1028 1028 
1028 1028 1028 1028 1028 1028 1028 1028 1028 
1028 1028 1028 1028 1028 1028 1028 1028 1028 
1028 1028 1028 1028 1028 1028 1028 1028 1028 
1028 1028 1028 1028 1028 1028 1028 1028 1028 
1028 1028 1028 1028 1028 1028 1028 1028 1028 
1028 1028 1028 1028 1028 1028 1028 1028 1028 
1028 1028 1028 1028 1028 1028 1028 1028 1028 
1028 1028 1028 1028 1028 1028 1028 1028 1028 
1028 1028 1028 1028 1028 1028 1028 1028 1028 
1028 1028 1028 1028 1028 1028 1028 1028 1028 
1028 1028 1028 1028 1028 1028 1028 1028 1028 
1028 1028 1028 1028 1028 1028 1028 1028 1028 
1028 1028 1028 1028 1028 1028 1028 1028 1028 
1028 1028 1028 1028 1028 1028 1028 1028 1028 
1028 1028 1028 1028 1028 1028 1028 1028 1028 
1028 1028 1028 1028 1028 1028 1028 1028 1028 
1028 1028 1028 1028 1028 1028 1028 1028 1028 
1028 1028 1028 1028 1028 1028 1028 1028 1028 
1028 1028 1028 1028 1028 1028 1028 1028 1028 
1028 1028 1028 1028 1028 1028 1028 1028 1028 
1028 1028 1028 1028 1028 1028 1028 1028 1028 
1028 1028 1028 1028 1028 1028 1028 1028 1028 
1028 1028 1028 1028 1028 1028 1028 1028 1028 
1028 1028 1028 1028 1028 1028 1028 1028 1028 
1028 1028 1028 1028 1028 1028 1028 1028 1028 
1028 1028 1028 1028 1028 1028 1028 1028 1028 
1028 1028 1028 1028 1028 1028 1028 1028 1028 
1028 1028 1028 1028 1028 1028 1028 1028 1028 
1028 1028 1028 1028 1028 1028 1028 1028 1028 
1028 1028 1028 1028 1028 1028 1028 1028 1028 
1028 1028 1028 1028 1028 1028 1028 1028 1028 
1028 1028 1028 1028 1028 1028 1028 1028 1028 
1028 1028 1028 1028 1028 1028 1028 1028 1028 
1028 1028 1028 1028 1028 1028 1028 1028 1028 
1028 1028 1028 1028 1028 1028 1028 1028 1028 
1028 1028 1028 1028 1028 1028 1028 1028 1028 
1028 1028 1028 1028 1028 1028 1028 1028 1028 
1028 1028 1028 1028 1028 1028 1028 1028 1028 
1028 1028 1028 1028 1028 1028 1028 1028 1028 
1028 1028 1028 1028 1028 1028 1028 1028 1028 
1028 1028 1028 1028 1028 1028 1028 1028 1028 
1028 1028 1028 1028 1028 1028 1028 1028 1028 
1028 1028 1028 1028 1028 1028 1028 1028 1028 
1028 1028 1028 1028 1028 1028 1028 1028 1028 
1028 1028 1028 1028 1028 1028 1028 1028 1028 
1028 1028 1028 1028 1028 1028 1028 1028 1028 
1028 1028 1028 1028 1028 1028 1028 1028 1028 
1028 1028 1028 1028 1028 1028 1028 1028 1028 
1028 1028 1028 1028 1028 1028 1028 1028 1028 
1028 1028 1028 1028 1028 1028 1028 1028 1028 
1028 1028 1028 1028 1028 1028 1028 1028 1028 
1028 1028 1028 1028 1028 1028 1028 1028 1028 
1028 1028 1028 1028 1028 1028 1028 1028 1028 
1028 1028 1028 1028 1028 1028 1028 1028 1028 
1028 1028 1028 1028 1028 1028 1028 1028 1028 
1028 1028 1028 1028 1028 1028 1028 1028 1028 
1028 1028 1028 1028 1028 1028 1028 1028 1028 
1028 1028 1028 1028 1028 1028 1028 1028 1028 
1028 1028 1028 1028 1028 1028 1028 1028 1028 
1028 1028 1028 1028 1028 1028 1028 1028 1028 
1028 1028 1028 1028 1028 1028 1028 1028 1028 
1028 1028 1028 1028 1028 1028 1028 1028 1028 
1028 1028 1028 1028 1028 1028 1028 1028 1028 
1028 1028 1028 1028 1028 1028 1028 1028 1028 
1028 1028 1028 1028 1028 1028 1028 1028 1028 
1028 1028 1028 1028 1028 1028 1028 1028 1028 
1028 1028 1028 1028 1028 1028 1028 1028 1028 
1028 1028 1028 1028 1028 1028 1028 1028 1028 
1028 1028 1028 1028 1028 1028 1028 1028 1028 
1028 1028 1028 1028 1028 1028 1028 1028 1028 
1028 1028 1028 1028 1028 1028 1028 1028 1028 
1028 1028 1028 1028 1028 1028 1028 1028 1028 
1028 1028 1028 1028 1028 1028 1028 1028 1028 
1028 1028 1028 1028 1028 1028 1028 1028 1028 
1028 1028 1028 1028 1028 1028 1028 1028 1028 
1028 1028 1028 1028 1028 1028 1028 1028 1028 
1028 1028 1028 1028 1028 1028 1028 1028 1028 
1028 1028 1028 1028 1028 1028 1028 1028 1028 
1028 1028 1028 1028 1028 1028 1028 1028 1028 
1028 1028 1028 1028 1028 1028 1028 1028 1028 
1028 1028 1028 1028 1028 1028 1028 1028 1028 
1028 1028 1028 1028 1028 1028 1028 1028 1028 
1028 1028 1028 1028 1028 1028 1028 1028 1028 
1028 1028 1028 1028 1028 1028 1028 1028 1028 
1028 1028 1028 1028 1028 1028 1028 1028 1028 
1028 1028 1028 1028 1028 1028 1028 1028 1028 
1028 1028 1028 1028 1028 1028 1028 1028 1028 
1028 1028 1028 1028 1028 1028 1028 1028 1028 
1028 1028 1028 1028 1028 1028 1028 1028 1028 
1028 1028 1028 1028 1028 1028 1028 1028 1028 
1028 1028 1028 1028 1028 1028 1028 1028 1028 
1028 1028 1028 1028 1028 1028 1028 1028 1028 
1028 1028 1028 1028 1028 1028 1028 1028 1028 
1028 1028 1028 1028 1028 1028 1028 1028 1028 
1028 1028 1028 1028 1028 1028 1028 1028 1028 
1028 1028 1028 1028 1028 1028 1028 1028 1028 
1028 1028 1028 1028 1028 1028 1028 1028 1028 
1028 1028 1028 1028 1028 1028 1028 1028 1028 
1028 1028 1028 1028 1028 1028 1028 1028 1028 
1028 1028 1028 1028 1028 1028 1028 1028 1028 
1028 1028 1028 1028 1028 1028 1028 1028 1028 
1028 1028 1028 1028 1028 1028 1028 1028 1028 
1028 1028 1028 1028 1028 1028 1028 1028 1028 
1028 1028 1028 1028 1028 1028 1028 1028 1028 
1028 1028 1028 1028 1028 1028 1028 1028 1028 
1028 1028 1028 1028 1028 1028 1028 1028 1028 
1028 1028 1028 1028 1028 1028 1028 1028 1028 
1028 1028 1028 1028 1028 1028 1028 1028 1028 
1028 1028 1028 1028 1028 1028 1028 1028 1028 
1028 1028 1028 1028 1028 1028 1028 1028 1028 
1028 1028 1028 1028 1028 1028 1028 1028 1028 
1028 1028 1028 1028 1028 1028 1028 1028 1028 
1028 1028 1028 1028 1028 1028 1028 1028 1028 
1028 1028 1028 1028 1028 1028 1028 1028 1028 
1028 1028 1028 1028 1028 1028 1028 1028 1028 
1028 1028 1028 1028 1028 1028 1028 1028 1028 
1028 1028 1028 1028 1028 1028 1028 1028 1028 
1028 1028 1028 1028 1028 1028 1028 1028 1028 
1028 1028 1028 1028 1028 1028 1028 1028 1028 
1028 1028 1028 1028 1028 1028 1028 1028 1028 
1028 1028 1028 1028 1028 1028 1028 1028 1028 
1028 1028 1028 1028 1028 1028 1028 1028 1028 
1028 1028 1028 1028 1028 1028 1028 1028 1028 
1028 1028 1028 1028 1028 1028 1028 1028 1028 
1028 1028 1028 1028 1028 1028 1028 1028 1028 
1028 1028 1028 1028 1028 1028 1028 1028 1028 
1028 1028 1028 1028 1028 1028 1028 1028 1028 
1028 1028 1028 1028 1028 1028 1028 1028 1028 
1028 1028 1028 1028 1028 1028 1028 1028 1028 
1028 1028 1028 1028 1028 1028 1028 1028 1028 
1028 1028 1028 1028 1028 1028 1028 1028 1028 
1028 1028 1028 1028 1028 1028 1028 1028 1028 
1028 1028 1028 1028 1028 1028 1028 1028 1028 
1028 1028 1028 1028 1028 1028 1028 1028 1028 
1028 1028 1028 1028 1028 1028 1028 1028 1028 
1028 1028 1028 1028 1028 1028 1028 1028 1028 
1028 1028 1028 1028 1028 1028 1028 1028 1028 
1028 1028 1028 1028 1028 1028 1028 1028 1028 
1028 1028 1028 1028 1028 1028 1028 1028 1028 
1028 1028 1028 1028 1028 1028 1028 1028 1028 
1028 1028 1028 1028 1028 1028 1028 1028 1028 
1028 1028 1028 1028 1028 1028 1028 1028 1028 
1028 1028 1028 1028 1028 1028 1028 1028 1028 
1028 1028 1028 1028 1028 1028 1028 1028 1028 
1028 1028 1028 1028 1028 1028 1028 1028 1028 
1028 1028 1028 1028 1028 1028 1028 1028 1028 
1028 1028 1028 1028 1028 1028 1028 1028 1028 
1028 1028 1028 1028 1028 1028 1028 1028 1028 
1028 1028 1028 1028 1028 1028 1028 1028 1028 
1028 1028 1028 1028 1028 1028 1028 1028 1028 
1028 1028 1028 1028 1028 1028 1028 1028 1028 
1028 1028 1028 1028 1028 1028 1028 1028 1028 
1028 1028 1028 1028 1028 1028 1028 1028 1028 
1028 1028 1028 1028 1028 1028 1028 1028 1028 
1028 1028 1028 1028 1028 1028 1028 1028 1028 
1028 1028 1028 1028 1028 1028 1028 1028 1028 
1028 1028 1028 1028 1028 1028 1028 1028 1028 
1028 1028 1028 1028 1028 1028 1028 1028 1028 
1028 1028 1028 1028 1028 1028 1028 1028 1028 
1028 1028 1028 1028 1028 1028 1028 1028 1028 
1028 1028 1028 1028 1028 1028 1028 1028 1028 
1028 1028 1028 1028 1028 1028 1028 1028 1028 
1028 1028 1028 1028 1028 1028 1028 1028 1028 
1028 1028 1028 1028 1028 1028 1028 1028 1028 
1028 1028 1028 1028 1028 1028 1028 1028 1028 
1028 1028 1028 1028 1028 1028 1028 1028 1028 
1028 1028 1028 1028 1028 1028 1028 1028 1028 
1028 1028 1028 1028 1028 1028 1028 1028 1028 
1028 1028 1028 1028 1028 1028 1028 1028 1028 
1028 1028 1028 1028 1028 1028 1028 1028 1028 
1028 1028 1028 1028 1028 1028 1028 1028 1028 
1028 1028 1028 1028 1028 1028 1028 1028 1028 
1028 1028 1028 1028 1028 1028 1028 1028 1028 
1028 1028 1028 1028 1028 1028 1028 1028 1028 
1028 1028 1028 1028 1028 1028 1028 1028 1028 
1028 1028 1028 1028 1028 1028 1028 1028 1028 
1028 1028 1028 1028 1028 1028 1028 1028 1028 
1028 1028 1028 1028 1028 1028 1028 1028 1028 
1028 1028 1028 1028 1028 1028 1028 1028 1028 
1028 1028 1028 1028 1028 1028 1028 1028 1028 
1028 1028 1028 1028 1028 1028 1028 1028 1028 
1028 1028 1028 1028 1028 1028 1028 1028 1028 
1028 1028 1028 1028 1028 1028 1028 1028 1028 
1028 1028 1028 1028 1028 1028 1028 1028 1028 
1028 1028 1028 1028 1028 1028 1028 1028 1028 
1028 1028 1028 1028 1028 1028 1028 1028 1028 
1028 1028 1028 1028 1028 1028 1028 1028 1028 
1028 1028 1028 1028 1028 1028 1028 1028 1028 
1028 1028 1028 1028 1028 1028 1028 1028 1028 
1028 1028 1028 1028 1028 1028 1028 1028 1028 
1028 1028 1028 1028 1028 1028 1028 1028 1028 
1028 1028 1028 1028 1028 1028 1028 1028 1028 
1028 1028 1028 1028 1028 1028 1028 1028 1028 
1028 1028 1028 1028 1028 1028 1028 1028 1028 
1028 1028 1028 1028 1028 1028 1028 1028 1028 
1028 1028 1028 1028 1028 1028 1028 1028 1028 
1028 1028 1028 1028 1028 1028 1028 1028 1028 
1028 1028 1028 1028 1028 1028 1028 1028 1028 
1028 1028 1028 1028 1028 1028 1028 1028 1028 
1028 1028 1028 1028 1028 1028 1028 1028 1028 
1028 1028 1028 1028 1028 1028 1028 1028 1028 
1028 1028 1028 1028 1028 1028 1028 1028 1028 
1028 1028 1028 1028 1028 1028 1028 1028 1028 
1028 1028 1028 1028 1028 1028 1028 1028 1028 
1028 1028 1028 1028 1028 1028 1028 1028 1028 
1028 1028 1028 1028 1028 1028 1028 1028 1028 
1028 1028 1028 1028 1028 1028 1028 1028 1028 
1028 1028 1028 1028 1028 1028 1028 1028 1028 
1028 1028 1028 1028 1028 1028 1028 1028 1028 
1028 1028 1028 1028 1028 1028 1028 1028 1028 
1028 1028 1028 1028 1028 1028 1028 1028 1028 
1028 1028 1028 1028 1028 1028 1028 1028 1028 
1028 1028 1028 1028 1028 1028 1028 1028 1028 
1028 1028 1028 1028 1028 1028 1028 1028 1028 
1028 1028 1028 1028 1028 1028 1028 1028 1028 
1028 1028 1028 1028 1028 1028 1028 1028 1028 
1028 1028 1028 1028 1028 1028 1028 1028 1028 
1028 1028 1028 1028 1028 1028 1028 1028 1028 
1028 1028 1028 1028 1028 1028 1028 1028 1028 
1028 1028 1028 1028 1028 1028 1028 1028 1028 
1028 1028 1028 1028 1028 1028 1028 1028 1028 
1028 1028 1028 1028 1028 1028 1028 1028 1028 
1028 1028 1028 1028 1028 1028 1028 1028 1028 
1028 1028 1028 1028 1028 1028 1028 1028 1028 
1028 1028 1028 1028 1028 1028 1028 1028 1028 
1028 1028 1028 1028 1028 1028 1028 1028 1028 
1028 1028 1028 1028 1028 1028 1028 1028 1028 
1028 1028 1028 1028 1028 1028 1028 1028 1028 
1028 1028 1028 1028 1028 1028 1028 1028 1028 
1028 1028 1028 1028 1028 1028 1028 1028 1028 
1028 1028 1028 1028 1028 1028 1028 1028 1028 
1028 1028 1028 1028 1028 1028 1028 1028 1028 
1028 1028 1028 1028 1028 1028 1028 1028 1028 
1028 1028 1028 1028 1028 1028 1028 1028 1028 
1028 1028 1028 1028 1028 1028 1028 1028 1028 
1028 1028 1028 1028 1028 1028 1028 1028 1028 
1028 1028 1028 1028 1028 1028 1028 1028 1028 
1028 1028 1028 1028 1028 1028 1028 1028 1028 