# vtk DataFile Version 4.2
vtk output
ASCII
DATASET POLYDATA
POINTS 17356 float
-32.8982 -16.6841 8.89397 -32.7314 -16.3278 8.68764 -32.4682 -16.5695 8.76095 
-33.0909 -16.3967 8.68645 -32.3293 -17.1025 8.9421 -32.1009 -16.8073 8.67842 
-31.8367 -17.1676 8.74753 -32.9046 -17.1776 9.0458 -33.4767 -16.7114 8.64153 
-33.3519 -17.1222 8.92283 -33.7438 -17.1046 8.66132 -31.7907 -17.652 8.91352 
-31.4826 -17.4381 8.66363 -31.3094 -17.8901 8.70555 -32.2988 -17.7569 9.04218 
-32.8027 -17.685 9.05318 -33.3298 -17.6725 8.97848 -33.7396 -17.5509 8.7485 
-31.6723 -18.303 8.94434 -31.2805 -18.4625 8.70569 -32.2087 -18.2909 9.05537 
-32.8078 -18.3146 9.059 -33.3414 -18.2949 8.96938 -33.7428 -18.1546 8.75496 
-31.6703 -18.8633 8.89709 -31.3929 -18.9572 8.6657 -32.182 -18.8935 9.04406 
-32.8007 -18.9248 9.0613 -33.3555 -18.9212 8.96188 -33.7546 -18.7822 8.74669 
-31.6853 -19.2549 8.74934 -31.9482 -19.6042 8.66612 -32.0783 -19.3505 8.90127 
-32.656 -19.4329 8.96366 -33.2351 -19.4511 8.90991 -33.7478 -19.4682 8.61585 
-32.4207 -19.7764 8.71739 -32.9925 -19.8317 8.72316 -33.4393 -19.8216 8.62873 
-32.3247 -14.819 8.34095 -32.1631 -14.4592 8.10592 -31.8505 -14.7525 8.17013 
-32.8239 -14.8159 8.30251 -32.642 -14.427 8.14902 -33.0279 -14.5371 7.9835 
-31.8122 -15.2471 8.30611 -31.4999 -15.0131 8.07378 -31.3446 -15.4852 8.10336 
-32.3258 -15.3684 8.43584 -32.8711 -15.3502 8.38379 -33.1817 -15.0886 8.05456 
-31.6254 -15.9524 8.32562 -31.2225 -15.9633 8.13707 -32.1225 -15.7631 8.42367 
-32.7874 -15.978 8.50318 -33.3453 -15.5728 8.19283 -33.3526 -15.9533 8.32414 
-33.6252 -15.7926 7.96099 -31.1418 -16.5423 8.29785 -30.921 -16.2403 8.05931 
-30.6762 -16.6076 8.13241 -31.6327 -16.4782 8.39829 -32.1711 -16.354 8.50966 
-33.3524 -16.3442 8.4849 -33.7573 -16.3526 8.10117 -30.5296 -17.1428 8.30622 
-30.297 -16.8521 8.07557 -30.0341 -17.191 8.15469 -31.02 -17.0823 8.39638 
-31.5629 -16.9641 8.49607 -34.0466 -17.3124 8.40372 -33.947 -16.8477 8.29657 
-34.2237 -16.989 7.96223 -29.9892 -17.6766 8.30434 -29.6815 -17.439 8.07831 
-29.509 -17.8873 8.12525 -30.4855 -17.7724 8.40323 -31.0077 -17.5273 8.4755 
-34.046 -17.8836 8.44482 -34.2585 -17.5438 8.03271 -29.8542 -18.298 8.33779 
-29.4609 -18.4462 8.12751 -30.3754 -18.2819 8.41553 -30.883 -18.1452 8.49821 
-34.0385 -18.4938 8.44604 -34.2465 -18.1467 8.04875 -29.856 -18.8503 8.29803 
-29.5688 -18.938 8.0841 -30.3746 -18.883 8.41145 -30.9722 -18.8302 8.48588 
-34.0377 -19.0923 8.42782 -34.2393 -18.7564 8.05076 -29.8873 -19.2429 8.16227 
-30.1566 -19.6042 8.08348 -30.3686 -19.4282 8.30182 -30.9902 -19.489 8.40628 
-31.5356 -19.4797 8.51331 -34.0411 -19.4836 8.35333 -34.2208 -19.4082 7.97916 
-30.5272 -19.8556 8.13733 -30.8012 -20.1976 8.06665 -31.0057 -20.036 8.28922 
-31.6122 -20.1012 8.40574 -32.2015 -20.0862 8.48229 -32.8521 -20.2087 8.49462 
-33.3646 -20.1953 8.41685 -33.7474 -20.0491 8.27374 -34.0346 -19.8248 8.12016 
-31.1249 -20.4594 8.15902 -31.1672 -20.7963 8.17034 -31.5469 -20.7417 8.35523 
-32.2494 -20.7213 8.42817 -32.8382 -20.7337 8.41206 -33.3551 -20.7111 8.3191 
-33.7535 -20.559 8.11041 -31.1647 -21.1518 8.2551 -30.9114 -21.0478 8.08058 
-30.8558 -21.3821 8.0702 -31.6089 -21.3769 8.3454 -32.2155 -21.3221 8.4293 
-32.7507 -21.2467 8.42554 -33.2483 -21.3517 8.3082 -33.7254 -21.1182 8.10684 
-31.1955 -21.563 8.13156 -31.6345 -21.7098 8.17552 -31.9562 -22.0161 8.07961 
-32.0916 -21.7694 8.30002 -32.7274 -21.7903 8.31819 -33.1892 -21.8388 8.17065 
-33.5555 -21.5793 8.09501 -32.4311 -22.1816 8.11288 -32.9015 -22.1381 8.09344 
-31.1079 -14.2228 7.70536 -30.9518 -13.9009 7.47544 -30.6615 -14.1976 7.54752 
-31.7126 -14.0661 7.7223 -31.4614 -13.7882 7.50862 -32.2998 -14.1349 7.84243 
-32.0849 -13.7544 7.52224 -32.8409 -14.1605 7.85013 -32.6709 -13.8003 7.53612 
-33.0697 -14.0127 7.44671 -30.62 -14.6753 7.6892 -30.329 -14.4493 7.45545 
-30.1682 -14.9108 7.48746 -31.0175 -14.6573 7.8132 -31.5751 -14.5476 7.91239 
-33.2671 -14.5841 7.48399 -30.4325 -15.3666 7.72228 -30.033 -15.3759 7.52885 
-31.0293 -15.102 7.87914 -33.4161 -15.0319 7.63087 -33.4797 -15.3971 7.89565 
-33.625 -15.2856 7.44496 -29.9533 -15.9439 7.69746 -29.7273 -15.6552 7.45325 
-29.4835 -16.0141 7.53 -30.4273 -15.8879 7.79572 -30.8723 -15.7872 7.91098 
-33.8013 -15.8968 7.43161 -29.4248 -16.4851 7.68865 -29.1253 -16.2706 7.45865 
-28.957 -16.7152 7.48979 -29.8403 -16.4826 7.80737 -30.3789 -16.3755 7.89921 
-34.0082 -16.3011 7.57008 -34.0947 -16.5977 7.87184 -34.2058 -16.5853 7.46592 
-29.2275 -17.0135 7.69745 -28.8995 -17.2743 7.50206 -29.7589 -16.9618 7.90263 
-34.3235 -17.0737 7.48516 -29.2215 -17.6 7.80712 -28.8086 -17.7663 7.53324 
-34.4007 -17.6561 7.49095 -28.8111 -18.2296 7.65619 -28.5152 -18.0751 7.44295 
-28.4536 -18.4222 7.45142 -29.18 -18.1834 7.91535 -34.409 -18.3081 7.6133 
-28.6953 -18.6768 7.5485 -28.8594 -19.1164 7.51927 -29.1615 -18.8121 7.81456 
-34.4094 -18.917 7.6057 -29.2973 -19.4803 7.69112 -28.9909 -19.4775 7.50372 
-29.7426 -19.466 7.92235 -34.4044 -19.5183 7.44897 -29.1779 -19.816 7.44698 
-29.5504 -20.1255 7.52787 -29.8038 -20.0369 7.7165 -30.3588 -20.0704 7.92022 
-34.0449 -20.3256 7.85067 -34.2437 -19.9945 7.62102 -29.7793 -20.4131 7.45468 
-30.0987 -20.9086 7.4332 -30.3177 -20.5764 7.7442 -30.822 -20.634 7.96419 
-34.0577 -20.8737 7.80043 -34.254 -20.5553 7.42229 -30.5471 -21.2105 7.83205 
-30.2066 -21.4002 7.52954 -33.9509 -21.4877 7.8357 -34.2612 -21.1506 7.42091 
-30.4003 -21.73 7.68016 -30.2177 -21.9159 7.30367 -30.9101 -21.8659 7.82622 
-31.5478 -21.9946 7.95251 -33.4209 -22.0028 7.94864 -33.8864 -22.0419 7.72842 
-34.2364 -21.8044 7.39892 -30.5979 -22.1437 7.51855 -31.0449 -22.3038 7.58347 
-31.1634 -22.5863 7.56489 -31.4952 -22.5349 7.75895 -32.1745 -22.4885 7.89043 
-32.8996 -22.5211 7.89948 -33.4991 -22.5164 7.75253 -33.8203 -22.5459 7.4993 
-34.0767 -22.2591 7.44831 -31.1622 -22.9345 7.64053 -30.8754 -22.7941 7.39648 
-30.8503 -23.2584 7.35667 -31.5005 -23.0756 7.71497 -32.0251 -23.0207 7.72685 
-32.6523 -23.0248 7.73646 -33.2212 -23.0347 7.68741 -33.6092 -23.0429 7.44676 
-31.1953 -23.3512 7.52198 -31.7405 -23.3943 7.52068 -32.3795 -23.3992 7.51172 
-32.9868 -23.418 7.50932 -33.4156 -23.4065 7.41814 -29.7483 -12.43 7.07342 
-29.7958 -12.1726 6.9514 -29.5694 -12.409 6.82853 -29.9157 -12.27 6.94889 
-29.3023 -12.8994 7.15253 -29.2107 -12.6736 6.86529 -28.9045 -12.921 6.98646 
-29.9123 -12.9901 7.14318 -30.1023 -12.6529 6.87465 -28.7574 -13.4318 7.12995 
-28.655 -13.1661 6.7222 -28.3869 -13.5894 6.91533 -29.2582 -13.5876 7.23189 
-29.789 -13.4999 7.2282 -30.361 -13.0969 6.972 -30.3966 -13.4333 7.14821 
-31.0733 -13.5619 7.21549 -30.8616 -13.2136 6.92418 -31.8015 -13.4647 7.20896 
-31.572 -13.183 6.84239 -32.4237 -13.4498 7.20969 -32.2568 -13.2237 6.82186 
-32.8672 -13.5312 7.21095 -32.7359 -13.284 6.8915 -33.0475 -13.5292 6.85716 
-28.633 -14.1006 7.13867 -28.32 -14.0743 6.85503 -29.1778 -14.1026 7.21698 
-29.6865 -14.0075 7.2283 -30.368 -13.9768 7.30379 -33.2167 -14.1589 6.81908 
-28.5838 -14.7883 7.14545 -28.2126 -14.6376 6.83238 -29.1922 -14.7097 7.21008 
-29.8383 -14.5385 7.27364 -33.4104 -14.5097 7.00881 -33.4844 -14.7815 7.26877 
-33.5501 -14.8756 6.95235 -28.1812 -15.2982 7.12882 -27.95 -15.0187 6.72233 
-27.818 -15.4524 6.94097 -28.7006 -15.4219 7.22177 -29.1195 -15.2337 7.2137 
-29.6889 -15.2056 7.30346 -33.648 -15.4708 6.85465 -28.0526 -15.9086 7.16456 
-27.7484 -15.9062 6.8658 -28.5102 -15.8094 7.23357 -29.1709 -15.7904 7.30115 
-33.8297 -15.8994 6.80645 -27.9964 -16.5672 7.15703 -27.7613 -16.5232 6.74663 
-28.613 -16.334 7.28917 -34.0226 -16.2012 7.05731 -34.2424 -16.5657 6.89157 
-27.5842 -17.079 7.1317 -27.4223 -16.9296 6.85576 -27.2051 -17.2979 6.91747 
-28.075 -17.1882 7.2277 -28.5239 -16.968 7.2987 -34.4331 -17.0239 6.8739 
-27.4293 -17.6991 7.16902 -27.1415 -17.7846 6.92942 -27.8856 -17.5984 7.23541 
-28.4458 -17.6177 7.31953 -34.5854 -17.4524 7.00865 -34.6258 -17.9135 7.1896 
-34.8078 -17.5782 6.75708 -27.4496 -18.2547 7.098 -27.2367 -18.124 6.74628 
-28.0499 -18.2249 7.27944 -32.3164 -18.4473 7.08617 -31.9893 -18.3853 6.88489 
-32.2725 -18.1823 6.91233 -32.4263 -18.2899 6.8266 -34.6376 -18.4888 7.24659 
-34.856 -18.1495 6.84295 -27.5079 -18.5234 6.85654 -27.7422 -18.941 6.80285 
-27.9651 -18.8462 7.1151 -28.4309 -18.8167 7.33956 -32.2331 -18.8015 7.08287 
-31.9847 -19.0208 6.85819 -32.4517 -18.7032 6.88553 -34.6291 -19.083 7.23391 
-34.8544 -18.754 6.86654 -28.1001 -19.2819 6.9591 -28.3046 -19.532 6.9284 
-28.576 -19.3852 7.21718 -32.2989 -19.0475 6.84297 -34.5787 -19.563 7.12316 
-34.8017 -19.3178 6.84934 -28.6002 -19.8195 6.91994 -29.2341 -20.1242 7.22877 
-28.91 -20.1107 6.91425 -34.3925 -20.0668 7.07414 -34.6261 -19.778 6.72464 
-29.2249 -20.3999 6.92759 -29.7383 -20.6571 7.17833 -29.5175 -20.6813 6.92878 
-34.3258 -20.6978 6.90217 -29.7225 -20.9214 6.89866 -30.0211 -21.4107 6.96539 
-34.3294 -21.3014 6.89791 -30.1057 -21.8913 6.90584 -34.3303 -21.8218 6.82677 
-30.5094 -22.5226 7.20422 -30.2041 -22.4811 6.77394 -30.8699 -22.4559 7.42231 
-33.9989 -22.6105 7.19686 -34.2347 -22.3975 6.89711 -30.4094 -22.7969 6.90453 
-30.5804 -23.1084 7.00823 -33.8501 -22.9981 7.0935 -34.0645 -22.8769 6.84013 
-31.0604 -23.7589 7.26769 -30.6833 -23.7744 6.97882 -31.5823 -23.7775 7.31327 
-32.2177 -23.7797 7.29876 -32.8471 -23.7885 7.30069 -33.3672 -23.7815 7.22173 
-33.7319 -23.5468 7.03406 -31.0547 -24.2675 7.09382 -30.7443 -24.2466 6.89887 
-31.5847 -24.3056 7.21561 -32.2116 -24.3079 7.22815 -32.831 -24.3035 7.22784 
-33.3517 -24.3101 7.13673 -33.7452 -24.2443 6.85703 -30.9406 -24.6109 6.8383 
-31.3163 -24.9154 6.91227 -31.4935 -24.7427 7.07882 -32.1771 -24.9046 7.15589 
-32.7505 -24.8059 7.23075 -33.26 -24.9557 7.12569 -33.6307 -24.8755 6.85089 
-30.9944 -25.4977 6.99873 -30.9922 -25.3511 6.96476 -30.7884 -25.4695 6.82482 
-31.7375 -25.1574 6.89854 -31.1494 -25.4184 6.90197 -32.3162 -25.3229 6.98191 
-32.5527 -25.526 6.9307 -32.7952 -25.3265 7.09926 -33.2335 -25.5807 6.82851 
-33.5059 -25.3003 6.84553 -31.068 -25.658 6.72371 -32.7574 -25.7621 6.77274 
[...]
CELL_DATA 34736
SCALARS scalars float
LOOKUP_TABLE default
1024 1024 1024 1024 1024 1024 1024 1024 1024 
1024 1024 1024 1024 1024 1024 1024 1024 1024 
1024 1024 1024 1024 1024 1024 1024 1024 1024 
1024 1024 1024 1024 1024 1024 1024 1024 1024 
1024 1024 1024 1024 1024 1024 1024 1024 1024 
1024 1024 1024 1024 1024 1024 1024 1024 1024 
1024 1024 1024 1024 1024 1024 1024 1024 1024 
1024 1024 1024 1024 1024 1024 1024 1024 1024 
1024 1024 1024 1024 1024 1024 1024 1024 1024 
1024 1024 1024 1024 1024 1024 1024 1024 1024 
1024 1024 1024 1024 1024 1024 1024 1024 1024 
1024 1024 1024 1024 1024 1024 1024 1024 1024 
1024 1024 1024 1024 1024 1024 1024 1024 1024 
1024 1024 1024 1024 1024 1024 1024 1024 1024 
1024 1024 1024 1024 1024 1024 1024 1024 1024 
1024 1024 1024 1024 1024 1024 1024 1024 1024 
1024 1024 1024 1024 1024 1024 1024 1024 1024 
1024 1024 1024 1024 1024 1024 1024 1024 1024 
1024 1024 1024 1024 1024 1024 1024 1024 1024 
1024 1024 1024 1024 1024 1024 1024 1024 1024 
1024 1024 1024 1024 1024 1024 1024 1024 1024 
1024 1024 1024 1024 1024 1024 1024 1024 1024 
1024 1024 1024 1024 1024 1024 1024 1024 1024 
1024 1024 1024 1024 1024 1024 1024 1024 1024 
1024 1024 1024 1024 1024 1024 1024 1024 1024 
1024 1024 1024 1024 1024 1024 1024 1024 1024 
1024 1024 1024 1024 1024 1024 1024 1024 1024 
1024 1024 1024 1024 1024 1024 1024 1024 1024 
1024 1024 1024 1024 1024 1024 1024 1024 1024 
1024 1024 1024 1024 1024 1024 1024 1024 1024 
1024 1024 1024 1024 1024 1024 1024 1024 1024 
1024 1024 1024 1024 1024 1024 1024 1024 1024 
1024 1024 1024 1024 1024 1024 1024 1024 1024 
1024 1024 1024 1024 1024 1024 1024 1024 1024 
1024 1024 1024 1024 1024 1024 1024 1024 1024 
1024 1024 1024 1024 1024 1024 1024 1024 1024 
1024 1024 1024 1024 1024 1024 1024 1024 1024 
1024 1024 1024 1024 1024 1024 1024 1024 1024 
1024 1024 1024 1024 1024 1024 1024 1024 1024 
1024 1024 1024 1024 1024 1024 1024 1024 1024 
1024 1024 1024 1024 1024 1024 1024 1024 1024 
1024 1024 1024 1024 1024 1024 1024 1024 1024 
1024 1024 1024 1024 1024 1024 1024 1024 1024 
1024 1024 1024 1024 1024 1024 1024 1024 1024 
1024 1024 1024 1024 1024 1024 1024 1024 1024 
1024 1024 1024 1024 1024 1024 1024 1024 1024 
1024 1024 1024 1024 1024 1024 1024 1024 1024 
1024 1024 1024 1024 1024 1024 1024 1024 1024 
1024 1024 1024 1024 1024 1024 1024 1024 1024 
1024 1024 1024 1024 1024 1024 1024 1024 1024 
1024 1024 1024 1024 1024 1024 1024 1024 1024 
1024 1024 1024 1024 1024 1024 1024 1024 1024 
1024 1024 1024 1024 1024 1024 1024 1024 1024 
1024 1024 1024 1024 1024 1024 1024 1024 1024 
1024 1024 1024 1024 1024 1024 1024 1024 1024 
1024 1024 1024 1024 1024 1024 1024 1024 1024 
1024 1024 1024 1024 1024 1024 1024 1024 1024 
1024 1024 1024 1024 1024 1024 1024 1024 1024 
1024 1024 1024 1024 1024 1024 1024 1024 1024 
1024 1024 1024 1024 1024 1024 1024 1024 1024 
1024 1024 1024 1024 1024 1024 1024 1024 1024 
1024 1024 1024 1024 1024 1024 1024 1024 1024 
1024 1024 1024 1024 1024 1024 1024 1024 1024 
1024 1024 1024 1024 1024 1024 1024 1024 1024 
1024 1024 1024 1024 1024 1024 1024 1024 1024 
1024 1024 1024 1024 1024 1024 1024 1024 1024 
1024 1024 1024 1024 1024 1024 1024 1024 1024 
1024 1024 1024 1024 1024 1024 1024 1024 1024 
1024 1024 1024 1024 1024 1024 1024 1024 1024 
1024 1024 1024 1024 1024 1024 1024 1024 1024 
1024 1024 1024 1024 1024 1024 1024 1024 1024 
1024 1024 1024 1024 1024 1024 1024 1024 1024 
1024 1024 1024 1024 1024 1024 1024 1024 1024 
1024 1024 1024 1024 1024 1024 1024 1024 1024 
1024 1024 1024 1024 1024 1024 1024 1024 1024 
1024 1024 1024 1024 1024 1024 1024 1024 1024 
1024 1024 1024 1024 1024 1024 1024 1024 1024 
1024 1024 1024 1024 1024 1024 1024 1024 1024 
1024 1024 1024 1024 1024 1024 1024 1024 1024 
1024 1024 1024 1024 1024 1024 1024 1024 1024 
1024 1024 1024 1024 1024 1024 1024 1024 1024 
1024 1024 1024 1024 1024 1024 1024 1024 1024 
1024 1024 1024 1024 1024 1024 1024 1024 1024 
1024 1024 1024 1024 1024 1024 1024 1024 1024 
1024 1024 1024 1024 1024 1024 1024 1024 1024 
1024 1024 1024 1024 1024 1024 1024 1024 1024 
1024 1024 1024 1024 1024 1024 1024 1024 1024 
1024 1024 1024 1024 1024 1024 1024 1024 1024 
1024 1024 1024 1024 1024 1024 1024 1024 1024 
1024 1024 1024 1024 1024 1024 1024 1024 1024 
1024 1024 1024 1024 1024 1024 1024 1024 1024 
1024 1024 1024 1024 1024 1024 1024 1024 1024 
1024 1024 1024 1024 1024 1024 1024 1024 1024 
1024 1024 1024 1024 1024 1024 1024 1024 1024 
1024 1024 1024 1024 1024 1024 1024 1024 1024 
1024 1024 1024 1024 1024 1024 1024 1024 1024 
1024 1024 1024 1024 1024 1024 1024 1024 1024 
1024 1024 1024 1024 1024 1024 1024 1024 1024 
1024 1024 1024 1024 1024 1024 1024 1024 1024 
1024 1024 1024 1024 1024 1024 1024 1024 1024 
1024 1024 1024 1024 1024 1024 1024 1024 1024 
1024 1024 1024 1024 1024 1024 1024 1024 1024 
1024 1024 1024 1024 1024 1024 1024 1024 1024 
1024 1024 1024 1024 1024 1024 1024 1024 1024 
1024 1024 1024 1024 1024 1024 1024 1024 1024 
1024 1024 1024 1024 1024 1024 1024 1024 1024 
1024 1024 1024 1024 1024 1024 1024 1024 1024 
1024 1024 1024 1024 1024 1024 1024 1024 1024 
1024 1024 1024 1024 1024 1024 1024 1024 1024 
1024 1024 1024 1024 1024 1024 1024 1024 1024 
1024 1024 1024 1024 1024 1024 1024 1024 1024 
1024 1024 1024 1024 1024 1024 1024 1024 1024 
1024 1024 1024 1024 1024 1024 1024 1024 1024 
1024 1024 1024 1024 1024 1024 1024 1024 1024 
1024 1024 1024 1024 1024 1024 1024 1024 1024 
1024 1024 1024 1024 1024 1024 1024 1024 1024 
1024 1024 1024 1024 1024 1024 1024 1024 1024 
1024 1024 1024 1024 1024 1024 1024 1024 1024 
1024 1024 1024 1024 1024 1024 1024 1024 1024 
1024 1024 1024 1024 1024 1024 1024 1024 1024 
1024 1024 1024 1024 1024 1024 1024 1024 1024 
1024 1024 1024 1024 1024 1024 1024 1024 1024 
1024 1024 1024 1024 1024 1024 1024 1024 1024 
1024 1024 1024 1024 1024 1024 1024 1024 1024 
1024 1024 1024 1024 1024 1024 1024 1024 1024 
1024 1024 1024 1024 1024 1024 1024 1024 1024 
1024 1024 1024 1024 1024 1024 1024 1024 1024 
1024 1024 1024 1024 1024 1024 1024 1024 1024 
1024 1024 1024 1024 1024 1024 1024 1024 1024 
1024 1024 1024 1024 1024 1024 1024 1024 1024 
1024 1024 1024 1024 1024 1024 1024 1024 1024 
1024 1024 1024 1024 1024 1024 1024 1024 1024 
1024 1024 1024 1024 1024 1024 1024 1024 1024 
1024 1024 1024 1024 1024 1024 1024 1024 1024 
1024 1024 1024 1024 1024 1024 1024 1024 1024 
1024 1024 1024 1024 1024 1024 1024 1024 1024 
1024 1024 1024 1024 1024 1024 1024 1024 1024 
1024 1024 1024 1024 1024 1024 1024 1024 1024 
1024 1024 1024 1024 1024 1024 1024 1024 1024 
1024 1024 1024 1024 1024 1024 1024 1024 1024 
1024 1024 1024 1024 1024 1024 1024 1024 1024 
1024 1024 1024 1024 1024 1024 1024 1024 1024 
1024 1024 1024 1024 1024 1024 1024 1024 1024 
1024 1024 1024 1024 1024 1024 1024 1024 1024 
1024 1024 1024 1024 1024 1024 1024 1024 1024 
1024 1024 1024 1024 1024 1024 1024 1024 1024 
1024 1024 1024 1024 1024 1024 1024 1024 1024 
1024 1024 1024 1024 1024 1024 1024 1024 1024 
1024 1024 1024 1024 1024 1024 1024 1024 1024 
1024 1024 1024 1024 1024 1024 1024 1024 1024 
1024 1024 1024 1024 1024 1024 1024 1024 1024 
1024 1024 1024 1024 1024 1024 1024 1024 1024 
1024 1024 1024 1024 1024 1024 1024 1024 1024 
1024 1024 1024 1024 1024 1024 1024 1024 1024 
1024 1024 1024 1024 1024 1024 1024 1024 1024 
1024 1024 1024 1024 1024 1024 1024 1024 1024 
1024 1024 1024 1024 1024 1024 1024 1024 1024 
1024 1024 1024 1024 1024 1024 1024 1024 1024 
1024 1024 1024 1024 1024 1024 1024 1024 1024 
1024 1024 1024 1024 1024 1024 1024 1024 1024 
1024 1024 1024 1024 1024 1024 1024 1024 1024 
1024 1024 1024 1024 1024 1024 1024 1024 1024 
1024 1024 1024 1024 1024 1024 1024 1024 1024 
1024 1024 1024 1024 1024 1024 1024 1024 1024 
1024 1024 1024 1024 1024 1024 1024 1024 1024 
1024 1024 1024 1024 1024 1024 1024 1024 1024 
1024 1024 1024 1024 1024 1024 1024 1024 1024 
1024 1024 1024 1024 1024 1024 1024 1024 1024 
1024 1024 1024 1024 1024 1024 1024 1024 1024 
1024 1024 1024 1024 1024 1024 1024 1024 1024 
1024 1024 1024 1024 1024 1024 1024 1024 1024 
1024 1024 1024 1024 1024 1024 1024 1024 1024 
1024 1024 1024 1024 1024 1024 1024 1024 1024 
1024 1024 1024 1024 1024 1024 1024 1024 1024 
1024 1024 1024 1024 1024 1024 1024 1024 1024 
1024 1024 1024 1024 1024 1024 1024 1024 1024 
1024 1024 1024 1024 1024 1024 1024 1024 1024 
1024 1024 1024 1024 1024 1024 1024 1024 1024 
1024 1024 1024 1024 1024 1024 1024 1024 1024 
1024 1024 1024 1024 1024 1024 1024 1024 1024 
1024 1024 1024 1024 1024 1024 1024 1024 1024 
1024 1024 1024 1024 1024 1024 1024 1024 1024 
1024 1024 1024 1024 1024 1024 1024 1024 1024 
1024 1024 1024 1024 1024 1024 1024 1024 1024 
1024 1024 1024 1024 1024 1024 1024 1024 1024 
1024 1024 1024 1024 1024 1024 1024 1024 1024 
1024 1024 1024 1024 1024 1024 1024 1024 1024 
1024 1024 1024 1024 1024 1024 1024 1024 1024 
1024 1024 1024 1024 1024 1024 1024 1024 1024 
1024 1024 1024 1024 1024 1024 1024 1024 1024 
1024 1024 1024 1024 1024 1024 1024 1024 1024 
1024 1024 1024 1024 1024 1024 1024 1024 1024 
1024 1024 1024 1024 1024 1024 1024 1024 1024 
1024 1024 1024 1024 1024 1024 1024 1024 1024 
1024 1024 1024 1024 1024 1024 1024 1024 1024 
1024 1024 1024 1024 1024 1024 1024 1024 1024 
1024 1024 1024 1024 1024 1024 1024 1024 1024 
1024 1024 1024 1024 1024 1024 1024 1024 1024 
1024 1024 1024 1024 1024 1024 1024 1024 1024 
1024 1024 1024 1024 1024 1024 1024 1024 1024 
1024 1024 1024 1024 1024 1024 1024 1024 1024 
1024 1024 1024 1024 1024 1024 1024 1024 1024 
1024 1024 1024 1024 1024 1024 1024 1024 1024 
1024 1024 1024 1024 1024 1024 1024 1024 1024 
1024 1024 1024 1024 1024 1024 1024 1024 1024 
1024 1024 1024 1024 1024 1024 1024 1024 1024 
1024 1024 1024 1024 1024 1024 1024 1024 1024 
1024 1024 1024 1024 1024 1024 1024 1024 1024 
1024 1024 1024 1024 1024 1024 1024 1024 1024 
1024 1024 1024 1024 1024 1024 1024 1024 1024 
1024 1024 1024 1024 1024 1024 1024 1024 1024 
1024 1024 1024 1024 1024 1024 1024 1024 1024 
1024 1024 1024 1024 1024 1024 1024 1024 1024 
1024 1024 1024 1024 1024 1024 1024 1024 1024 
1024 1024 1024 1024 1024 1024 1024 1024 1024 
1024 1024 1024 1024 1024 1024 1024 1024 1024 
1024 1024 1024 1024 1024 1024 1024 1024 1024 
1024 1024 1024 1024 1024 1024 1024 1024 1024 
1024 1024 1024 1024 1024 1024 1024 1024 1024 
1024 1024 1024 1024 1024 1024 1024 1024 1024 
1024 1024 1024 1024 1024 1024 1024 1024 1024 
1024 1024 1024 1024 1024 1024 1024 1024 1024 
1024 1024 1024 1024 1024 1024 1024 1024 1024 
1024 1024 1024 1024 1024 1024 1024 1024 1024 
1024 1024 1024 1024 1024 1024 1024 1024 1024 
1024 1024 1024 1024 1024 1024 1024 1024 1024 
1024 1024 1024 1024 1024 1024 1024 1024 1024 
1024 1024 1024 1024 1024 1024 1024 1024 1024 
1024 1024 1024 1024 1024 1024 1024 1024 1024 
1024 1024 1024 1024 1024 1024 1024 1024 1024 
1024 1024 1024 1024 1024 1024 1024 1024 1024 
1024 1024 1024 1024 1024 1024 1024 1024 1024 
1024 1024 1024 1024 1024 1024 1024 1024 1024 
1024 1024 1024 1024 1024 1024 1024 1024 1024 
1024 1024 1024 1024 1024 1024 1024 1024 1024 
1024 1024 1024 1024 1024 1024 1024 1024 1024 
1024 1024 1024 1024 1024 1024 1024 1024 1024 
1024 1024 1024 1024 1024 1024 1024 1024 1024 
1024 1024 1024 1024 1024 1024 1024 1024 1024 
1024 1024 1024 1024 1024 1024 1024 1024 1024 
1024 1024 1024 1024 1024 1024 1024 1024 1024 
1024 1024 1024 1024 1024 1024 1024 1024 1024 
1024 1024 1024 1024 1024 1024 1024 1024 1024 
1024 1024 1024 1024 1024 1024 1024 1024 1024 
1024 1024 1024 1024 1024 1024 1024 1024 1024 
1024 1024 1024 1024 1024 1024 1024 1024 1024 
1024 1024 1024 1024 1024 1024 1024 1024 1024 
1024 1024 1024 1024 1024 1024 1024 1024 1024 
1024 1024 1024 1024 1024 1024 1024 1024 1024 
1024 1024 1024 1024 1024 1024 1024 1024 1024 
1024 1024 1024 1024 1024 1024 1024 1024 1024 
1024 1024 1024 1024 1024 1024 1024 1024 1024 
1024 1024 1024 1024 1024 1024 1024 1024 1024 
1024 1024 1024 1024 1024 1024 1024 1024 1024 
1024 1024 1024 1024 1024 1024 1024 1024 1024 
1024 1024 1024 1024 1024 1024 1024 1024 1024 
1024 1024 1024 1024 1024 1024 1024 1024 1024 
1024 1024 1024 1024 1024 1024 1024 1024 1024 
1024 1024 1024 1024 1024 1024 1024 1024 1024 
1024 1024 1024 1024 1024 1024 1024 1024 1024 
1024 1024 1024 1024 1024 1024 1024 1024 1024 
1024 1024 1024 1024 1024 1024 1024 1024 1024 
1024 1024 1024 1024 1024 1024 1024 1024 1024 
1024 1024 1024 1024 1024 1024 1024 1024 1024 
1024 1024 1024 1024 1024 1024 1024 1024 1024 
1024 1024 1024 1024 1024 1024 1024 1024 1024 
1024 1024 1024 1024 1024 1024 1024 1024 1024 
1024 1024 1024 1024 1024 1024 1024 1024 1024 
1024 1024 1024 1024 1024 1024 1024 1024 1024 
1024 1024 1024 1024 1024 1024 1024 1024 1024 
1024 1024 1024 1024 1024 1024 1024 1024 1024 
1024 1024 1024 1024 1024 1024 1024 1024 1024 
1024 1024 1024 1024 1024 1024 1024 1024 1024 
1024 1024 1024 1024 1024 1024 1024 1024 1024 
1024 1024 1024 1024 1024 1024 1024 1024 1024 
1024 1024 1024 1024 1024 1024 1024 1024 1024 
1024 1024 1024 1024 1024 1024 1024 1024 1024 
1024 1024 1024 1024 1024 1024 1024 1024 1024 
1024 1024 1024 1024 1024 1024 1024 1024 1024 
1024 1024 1024 1024 1024 1024 1024 1024 1024 
1024 1024 1024 1024 1024 1024 1024 1024 1024 
1024 1024 1024 1024 1024 1024 1024 1024 1024 
1024 1024 1024 1024 1024 1024 1024 1024 1024 
1024 1024 1024 1024 1024 1024 1024 1024 1024 
1024 1024 1024 1024 1024 1024 1024 1024 1024 
1024 1024 1024 1024 1024 1024 1024 1024 1024 
1024 1024 1024 1024 1024 1024 1024 1024 1024 
1024 1024 1024 1024 1024 1024 1024 1024 1024 
1024 1024 1024 1024 1024 1024 1024 1024 1024 
1024 1024 1024 1024 1024 1024 1024 1024 1024 
1024 1024 1024 1024 1024 1024 1024 1024 1024 
1024 1024 1024 1024 1024 1024 1024 1024 1024 
1024 1024 1024 1024 1024 1024 1024 1024 1024 
1024 1024 1024 1024 1024 1024 1024 1024 1024 
1024 1024 1024 1024 1024 1024 1024 1024 1024 
1024 1024 1024 1024 1024 1024 1024 1024 1024 
1024 1024 1024 1024 1024 1024 1024 1024 1024 
1024 1024 1024 1024 1024 1024 1024 1024 1024 
1024 1024 1024 1024 1024 1024 1024 1024 1024 
1024 1024 1024 1024 1024 1024 1024 1024 1024 
1024 1024 1024 1024 1024 1024 1024 1024 1024 
1024 1024 1024 1024 1024 1024 1024 1024 1024 
1024 1024 1024 1024 1024 1024 1024 1024 1024 
1024 1024 1024 1024 1024 1024 1024 1024 1024 
1024 1024 1024 1024 1024 1024 1024 1024 1024 
1024 1024 1024 1024 1024 1024 1024 1024 1024 
1024 1024 1024 1024 1024 1024 1024 1024 1024 
1024 1024 1024 1024 1024 1024 1024 1024 1024 
1024 1024 1024 1024 1024 1024 1024 1024 1024 
1024 1024 1024 1024 1024 1024 1024 1024 1024 
1024 1024 1024 1024 1024 1024 1024 1024 1024 
1024 1024 1024 1024 1024 1024 1024 1024 1024 
1024 1024 1024 1024 1024 1024 1024 1024 1024 
1024 1024 1024 1024 1024 1024 1024 1024 1024 
1024 1024 1024 1024 1024 1024 1024 1024 1024 
1024 1024 1024 1024 1024 1024 1024 1024 1024 
1024 1024 1024 1024 1024 1024 1024 1024 1024 
1024 1024 1024 1024 1024 1024 1024 1024 1024 
1024 1024 1024 1024 1024 1024 1024 1024 1024 
1024 1024 1024 1024 1024 1024 1024 1024 1024 
1024 1024 1024 1024 1024 1024 1024 1024 1024 
1024 1024 1024 1024 1024 1024 1024 1024 1024 
1024 1024 1024 1024 1024 1024 1024 1024 1024 
1024 1024 1024 1024 1024 1024 1024 1024 1024 
1024 1024 1024 1024 1024 1024 1024 1024 1024 
1024 1024 1024 1024 1024 1024 1024 1024 1024 
1024 1024 1024 1024 1024 1024 1024 1024 1024 
1024 1024 1024 1024 1024 1024 1024 1024 1024 
1024 1024 1024 1024 1024 1024 1024 1024 1024 
1024 1024 1024 1024 1024 1024 1024 1024 1024 
1024 1024 1024 1024 1024 1024 1024 1024 1024 
1024 1024 1024 1024 1024 1024 1024 1024 1024 
1024 1024 1024 1024 1024 1024 1024 1024 1024 
1024 1024 1024 1024 1024 1024 1024 1024 1024 
1024 1024 1024 1024 1024 1024 1024 1024 1024 
1024 1024 1024 1024 1024 1024 1024 1024 1024 
1024 1024 1024 1024 1024 1024 1024 1024 1024 
1024 1024 1024 1024 1024 1024 1024 1024 1024 
1024 1024 1024 1024 1024 1024 1024 1024 1024 
1024 1024 1024 1024 1024 1024 1024 1024 1024 
1024 1024 1024 1024 1024 1024 1024 1024 1024 
1024 1024 1024 1024 1024 1024 1024 1024 1024 
1024 1024 1024 1024 1024 1024 1024 1024 1024 
1024 1024 1024 1024 1024 1024 1024 1024 1024 
1024 1024 1024 1024 1024 1024 1024 1024 1024 
1024 1024 1024 1024 1024 1024 1024 1024 1024 
1024 1024 1024 1024 1024 1024 1024 1024 1024 
1024 1024 1024 1024 1024 1024 1024 1024 1024 
1024 1024 1024 1024 1024 1024 1024 1024 1024 
1024 1024 1024 1024 1024 1024 1024 1024 1024 
1024 1024 1024 1024 1024 1024 1024 1024 1024 
1024 1024 1024 1024 1024 1024 1024 1024 1024 
1024 1024 1024 1024 1024 1024 1024 1024 1024 
1024 1024 1024 1024 1024 1024 1024 1024 1024 
1024 1024 1024 1024 1024 1024 1024 1024 1024 
1024 1024 1024 1024 1024 1024 1024 1024 1024 
1024 1024 1024 1024 1024 1024 1024 1024 1024 
1024 1024 1024 1024 1024 1024 1024 1024 1024 
1024 1024 1024 1024 1024 1024 1024 1024 1024 
1024 1024 1024 1024 1024 1024 1024 1024 1024 
1024 1024 1024 1024 1024 1024 1024 1024 1024 
1024 1024 1024 1024 1024 1024 1024 1024 1024 
1024 1024 1024 1024 1024 1024 1024 1024 1024 
1024 1024 1024 1024 1024 1024 1024 1024 1024 
1024 1024 1024 1024 1024 1024 1024 1024 1024 
1024 1024 1024 1024 1024 1024 1024 1024 1024 
1024 1024 1024 1024 1024 1024 1024 1024 1024 
1024 1024 1024 1024 1024 1024 1024 1024 1024 
1024 1024 1024 1024 1024 1024 1024 1024 1024 
1024 1024 1024 1024 1024 1024 1024 1024 1024 
1024 1024 1024 1024 1024 1024 1024 1024 1024 
1024 1024 1024 1024 1024 1024 1024 1024 1024 
1024 1024 1024 1024 1024 1024 1024 1024 1024 
1024 1024 1024 1024 1024 1024 1024 1024 1024 
1024 1024 1024 1024 1024 1024 1024 1024 1024 
1024 1024 1024 1024 1024 1024 1024 1024 1024 
1024 1024 1024 1024 1024 1024 1024 1024 1024 
1024 1024 1024 1024 1024 1024 1024 1024 1024 
1024 1024 1024 1024 1024 1024 1024 1024 1024 
1024 1024 1024 1024 1024 1024 1024 1024 1024 
1024 1024 1024 1024 1024 1024 1024 1024 1024 
1024 1024 1024 1024 1024 1024 1024 1024 1024 
1024 1024 1024 1024 1024 1024 1024 1024 1024 
1024 1024 1024 1024 1024 1024 1024 1024 1024 
1024 1024 1024 1024 1024 1024 1024 1024 1024 
1024 1024 1024 1024 1024 1024 1024 1024 1024 
1024 1024 1024 1024 1024 1024 1024 1024 1024 
1024 1024 1024 1024 1024 1024 1024 1024 1024 
1024 1024 1024 1024 1024 1024 1024 1024 1024 
1024 1024 1024 1024 1024 1024 1024 1024 1024 
1024 1024 1024 1024 1024 1024 1024 1024 1024 
1024 1024 1024 1024 1024 1024 1024 1024 1024 
1024 1024 1024 1024 1024 1024 1024 1024 1024 
1024 1024 1024 1024 1024 1024 1024 1024 1024 
1024 1024 1024 1024 1024 1024 1024 1024 1024 
1024 1024 1024 1024 1024 1024 1024 1024 1024 
1024 1024 1024 1024 1024 1024 1024 1024 1024 
1024 1024 1024 1024 1024 1024 1024 1024 1024 
1024 1024 1024 1024 1024 1024 1024 1024 1024 
1024 1024 1024 1024 1024 1024 1024 1024 1024 
1024 1024 1024 1024 1024 1024 1024 1024 1024 
1024 1024 1024 1024 1024 1024 1024 1024 1024 
1024 1024 1024 1024 1024 1024 1024 1024 1024 
1024 1024 1024 1024 1024 1024 1024 1024 1024 
1024 1024 1024 1024 1024 1024 1024 1024 1024 
1024 1024 1024 1024 1024 1024 1024 1024 1024 
1024 1024 1024 1024 1024 1024 1024 1024 1024 
1024 1024 1024 1024 1024 1024 1024 1024 1024 
1024 1024 1024 1024 1024 1024 1024 1024 1024 
1024 1024 1024 1024 1024 1024 1024 1024 1024 
1024 1024 1024 1024 1024 1024 1024 1024 1024 
1024 1024 1024 1024 1024 1024 1024 1024 1024 
1024 1024 1024 1024 1024 1024 1024 1024 1024 
1024 1024 1024 1024 1024 1024 1024 1024 1024 
1024 1024 1024 1024 1024 1024 1024 1024 1024 
1024 1024 1024 1024 1024 1024 1024 1024 1024 
1024 1024 1024 1024 1024 1024 1024 1024 1024 
1024 1024 1024 1024 1024 1024 1024 1024 1024 
1024 1024 1024 1024 1024 1024 1024 1024 1024 
1024 1024 1024 1024 1024 1024 1024 1024 1024 
1024 1024 1024 1024 1024 1024 1024 1024 1024 
1024 1024 1024 1024 1024 1024 1024 1024 1024 
1024 1024 1024 1024 1024 1024 1024 1024 1024 
1024 1024 1024 1024 1024 1024 1024 1024 1024 
1024 1024 1024 1024 1024 1024 1024 1024 1024 
1024 1024 1024 1024 1024 1024 1024 1024 1024 
1024 1024 1024 1024 1024 1024 1024 1024 1024 
1024 1024 1024 1024 1024 1024 1024 1024 1024 
1024 1024 1024 1024 1024 1024 1024 1024 1024 
1024 1024 1024 1024 1024 1024 1024 1024 1024 
1024 1024 1024 1024 1024 1024 1024 1024 1024 
1024 1024 1024 1024 1024 1024 1024 1024 1024 
1024 1024 1024 1024 1024 1024 1024 1024 1024 