# vtk DataFile Version 4.2
vtk output
ASCII
DATASET POLYDATA
POINTS 11968 float
25.3295 21.6691 -41.4222 25.2463 21.2108 -41.1958 25.614 21.3319 -41.6967 
24.7689 21.2197 -41.5563 25.2455 21.468 -41.894 25.0277 20.5046 -41.1866 
25.6084 20.5764 -41.5743 24.2153 20.7831 -41.4706 24.5046 20.7702 -41.2075 
24.1198 20.4998 -41.434 25.4236 21.0652 -42.7105 25.9206 20.6787 -42.4026 
24.838 20.7639 -42.3726 24.4305 20.4093 -41.8096 26.0067 20.9073 -43.5222 
26.3431 20.1923 -43.0868 26.5831 20.5487 -43.8067 25.3005 20.9324 -43.7886 
24.8783 20.4288 -43.3517 26.2905 20.8626 -44.3481 26.7621 20.3103 -44.5878 
25.5923 20.9056 -44.4887 24.942 20.4286 -44.332 25.9708 20.4367 -44.9285 
25.2592 20.3376 -44.8977 25.2516 19.645 -40.5131 25.4245 19.5048 -40.2332 
25.5067 19.4993 -40.7053 25.0028 19.1725 -40.3957 25.0742 19.9313 -41.7708 
25.1806 19.3542 -40.9383 24.4735 20.2928 -41.3796 25.4433 19.347 -42.1505 
25.8859 19.7744 -42.3297 24.8266 19.5312 -42.3999 26.503 19.4737 -43.0122 
26.9346 19.8645 -43.7309 24.7163 19.4789 -43.6169 28.0543 19.7556 -44.6139 
28.1522 19.3241 -44.2642 28.5003 19.5234 -44.5839 27.3912 19.9823 -44.467 
27.6311 19.6098 -44.0575 24.9155 19.5697 -44.4983 28.1894 19.4992 -44.9502 
27.9058 19.2736 -45.5603 27.3758 19.8159 -45.2672 26.4597 19.5897 -45.2692 
26.8971 19.4278 -45.6727 25.5646 19.4448 -44.9705 27.3733 19.167 -45.9188 
26.0574 18.7636 -38.6573 26.3491 18.2704 -38.2015 26.5812 18.5143 -38.6227 
25.8581 18.1412 -38.559 26.4198 18.9194 -39.4272 26.8791 18.3572 -39.3773 
25.4417 18.6125 -39.0302 25.5322 19.0745 -39.5817 25.0021 18.4041 -39.8311 
30.2082 18.913 -40.7793 30.4487 18.514 -40.2023 30.9647 18.6659 -40.724 
29.1689 18.8925 -40.5376 29.5666 18.5771 -40.0264 28.2519 18.8209 -40.7676 
28.4176 18.433 -40.0345 27.0276 18.8853 -40.4513 27.4446 18.3395 -40.0301 
26.0138 19.1967 -40.4599 24.7617 18.4573 -40.5331 31.1346 18.8049 -41.3059 
31.4787 18.43 -40.962 31.6638 18.3266 -41.3774 30.5357 18.8976 -41.5292 
29.5173 18.8733 -41.2807 28.7838 18.6065 -41.3203 28.1781 18.5976 -41.2579 
27.7746 18.4243 -41.7608 27.3659 18.8625 -41.4625 26.4563 19.0155 -41.3635 
25.5222 19.1449 -41.5593 24.8477 18.6025 -41.3735 31.2776 18.3994 -41.9857 
30.1304 18.5208 -42.0069 29.2888 18.4385 -41.7985 27.2946 18.7782 -42.3236 
27.5039 18.2965 -42.6055 26.396 19.0926 -42.3183 24.7199 18.4327 -42.5783 
27.3398 19.0163 -43.397 27.7003 18.3121 -43.4511 24.901 18.5557 -43.6621 
29.9607 18.7997 -44.5983 30.3888 18.4423 -44.1472 30.5518 18.466 -44.6917 
29.2448 18.8894 -44.7846 29.6477 18.5167 -44.0956 28.4163 19.2584 -44.5829 
28.7476 18.2426 -44.719 27.9532 18.6745 -44.5227 25.1672 18.8704 -44.4534 
25.6634 18.574 -44.6743 25.3938 18.3463 -44.1586 30.1588 18.6299 -45.146 
29.9141 18.4107 -45.6928 29.4885 18.8672 -45.318 28.5615 18.8458 -45.3831 
28.1263 18.4133 -45.0581 26.8551 18.8052 -45.6895 26.2672 18.6118 -45.1435 
29.2569 18.4055 -45.9382 28.3159 18.5096 -45.9664 27.5127 18.4831 -45.9338 
21.9976 17.9475 -37.6817 22.5032 17.3101 -37.1788 22.7699 17.626 -37.8099 
21.3002 17.8774 -37.7781 21.6082 17.3876 -37.0628 20.8854 17.3182 -37.4191 
29.1874 17.7715 -38.8709 29.458 17.4454 -38.2456 29.9482 17.6103 -38.6672 
28.8815 17.4108 -38.3562 26.2645 17.7004 -38.2308 26.6225 17.8181 -38.5414 
26.081 17.3544 -38.6085 22.2999 17.9132 -38.2954 22.7613 17.4051 -38.6408 
21.5941 17.9259 -38.4065 20.9805 17.4403 -38.2539 31.169 17.7707 -39.5212 
31.4095 17.3356 -39.0613 31.6922 17.3903 -39.6243 30.2072 18.0441 -39.4668 
30.7112 17.5264 -38.9227 29.1343 18.1965 -39.5269 28.2279 17.2886 -38.9096 
28.3321 17.8415 -39.4911 27.6824 17.2838 -39.5093 26.9848 17.4616 -39.3427 
25.352 18.0763 -39.2802 25.6742 17.4537 -39.1927 21.992 17.448 -38.8412 
21.3049 17.337 -38.8141 31.2177 18.1167 -40.215 31.7843 17.6175 -40.5921 
27.557 17.7049 -39.7984 25.1899 17.6458 -39.7671 24.8075 17.6912 -40.4982 
31.9255 17.5848 -41.5202 28.4599 18.1684 -41.7543 24.6163 17.5766 -41.5434 
32.1924 17.9409 -42.605 32.3456 17.1831 -42.0996 32.8875 17.5231 -42.6595 
31.2364 18.0854 -42.7417 30.3403 18.1407 -42.6593 29.1898 18.0665 -42.5054 
28.1087 17.7524 -42.4764 27.5986 17.7293 -42.123 27.7346 17.2805 -42.4152 
27.1323 17.828 -42.6499 26.8073 17.2712 -42.6015 24.7398 17.6211 -42.5942 
33.0558 17.8382 -43.3956 33.3578 17.2174 -43.0696 33.5923 17.4691 -43.4894 
32.1953 18.05 -43.6424 31.5152 18.0257 -43.3394 30.4916 18.1259 -43.4821 
29.2743 18.0345 -43.5184 28.1881 17.8988 -43.4731 27.4242 17.7358 -43.0476 
26.4307 17.7206 -43.4077 27.0453 17.5393 -43.7271 26.0247 17.2379 -42.9952 
25.2015 17.3212 -43.0054 25.4112 17.9354 -43.5408 33.4548 17.4885 -44.084 
32.9659 17.4192 -44.9129 32.4446 17.9644 -44.4945 31.2377 18.1341 -44.3671 
28.4532 17.4949 -43.95 28.7175 17.3324 -44.5232 27.6447 17.5668 -43.9571 
27.2643 17.9444 -44.6079 26.1977 18.0778 -44.4629 32.3775 17.8377 -45.3644 
32.6077 17.3367 -45.5908 31.6475 17.9182 -45.4274 30.6783 18.1008 -45.4399 
28.0345 18.1462 -45.4798 28.7932 17.6236 -45.3934 27.0591 18.1504 -45.3732 
32.0201 17.4125 -45.9139 31.098 17.3873 -46.0027 30.1311 17.7038 -46.0217 
29.416 17.466 -45.9709 21.068 16.8424 -34.7227 21.3298 16.5925 -34.149 
21.7303 16.3694 -34.6619 20.8785 16.2678 -34.2779 21.1686 16.9414 -35.4855 
21.6488 16.5177 -35.6606 20.4748 16.5819 -34.987 20.2609 16.9244 -35.6164 
19.8346 16.2604 -35.5178 21.1229 17.0085 -36.4715 21.7265 16.4478 -36.3806 
20.4415 17.0278 -36.248 19.4085 16.5634 -36.0664 19.5611 16.8149 -36.4922 
18.9489 16.2274 -36.6261 30.2202 16.799 -37.6593 30.4386 16.4209 -37.2017 
30.9291 16.5575 -37.6942 29.1379 16.9963 -37.7439 29.5761 16.4848 -37.0262 
28.2652 16.7416 -37.752 28.5845 16.4789 -37.0813 27.9296 16.3889 -37.4616 
25.2469 16.6587 -37.6258 25.3144 16.5301 -37.3084 25.4821 16.5454 -37.7058 
25.1474 16.5147 -37.4798 23.2086 17.0609 -37.4863 23.2612 16.2839 -37.1144 
23.8121 16.5142 -37.7991 22.1909 16.4977 -36.8442 20.1338 16.7113 -37.1056 
20.6123 16.6111 -37.9024 19.2042 16.405 -37.0917 31.0487 16.9515 -38.3477 
31.4438 16.3588 -37.938 31.7197 16.5443 -38.646 30.1266 17.2223 -38.2259 
28.4254 17.0677 -38.2554 27.7833 16.5825 -38.3246 26.53 17.1015 -38.6823 
25.2775 16.6788 -38.5894 25.6576 16.2049 -38.531 25.0607 16.4783 -38.1088 
23.4492 17.0771 -38.4029 24.0507 16.5777 -38.591 20.9357 16.6902 -38.582 
31.8626 16.5071 -39.5306 27.2708 17.131 -39.5781 27.2364 16.7697 -39.0815 
26.2591 16.4753 -39.0656 25.168 17.082 -39.6463 24.7016 16.263 -38.7421 
24.1801 16.89 -39.3956 23.1557 16.9186 -39.4576 22.2703 16.5151 -39.2018 
22.7484 16.3907 -39.7384 21.422 16.5357 -38.945 31.8355 16.5093 -40.5241 
24.2846 17.0834 -40.678 23.4478 16.8589 -40.5218 22.9664 16.5331 -40.339 
31.9064 16.32 -41.5574 28.225 16.8343 -41.8494 28.9172 16.4756 -41.4524 
28.3236 16.4491 -41.3202 27.8797 16.1899 -41.6955 24.27 17.1275 -41.6896 
23.6114 16.8067 -41.6189 22.9713 16.2977 -41.3512 34.34 16.7035 -42.5349 
34.4272 16.3612 -42.358 34.5123 16.3428 -42.6261 33.9803 16.3679 -42.3675 
32.1842 16.3386 -42.2194 32.7096 16.6279 -42.6056 28.9962 16.7775 -42.4329 
29.6215 16.1997 -42.4854 29.4909 16.4089 -41.9518 28.1794 17.0422 -42.6562 
27.4514 16.8571 -42.1019 26.989 16.4506 -42.5778 24.2519 16.9837 -42.4012 
23.6316 16.3372 -42.6287 23.1868 16.3551 -42.1548 34.1651 16.4102 -42.7166 
33.7724 16.7334 -43.5417 33.1783 16.4213 -42.9811 29.1783 16.5081 -43.0684 
28.363 16.9882 -43.377 28.8269 16.5632 -43.7392 27.5527 17.2399 -43.2654 
26.3058 16.3909 -42.9228 25.4325 16.6978 -43.0402 24.4938 16.4339 -43.0504 
34.1345 16.844 -44.3348 34.3991 16.1809 -44.1319 34.5599 16.245 -44.6342 
33.6392 17.0777 -44.6107 28.9138 16.5462 -44.6253 34.0724 16.4249 -44.8292 
33.4132 16.6655 -44.9804 32.8804 16.4344 -45.4707 29.243 16.9075 -45.454 
29.665 16.5546 -45.6975 29.2892 16.1524 -45.1558 32.2117 16.5378 -45.9764 
31.3465 16.4833 -46.1356 30.3295 16.6051 -46.0277 30.0029 15.8191 -33.6256 
30.4345 15.4471 -33.1295 30.7785 15.5187 -33.7958 29.1154 15.819 -33.728 
29.67 15.5207 -33.0254 28.8752 15.4686 -33.3102 21.4394 16.0758 -33.7626 
21.5459 15.3291 -33.1931 21.9003 15.6644 -33.564 20.985 15.4773 -33.5903 
30.341 15.9119 -34.6085 31.0428 15.5854 -34.5539 29.3082 16.0182 -34.493 
28.4373 15.5975 -33.9306 28.4345 15.8294 -34.5828 27.9495 15.4581 -34.4727 
22.1219 15.8318 -34.1777 22.5111 15.3368 -33.9351 22.5599 15.2087 -34.7364 
20.656 15.2464 -34.3432 31.0268 15.8228 -35.451 31.4355 15.3465 -34.92 
31.6505 15.3558 -35.6169 30.1621 16.0131 -35.6491 29.308 16.0399 -35.4856 
28.2366 15.9022 -35.5786 27.7206 15.4988 -35.2461 22.2448 15.6395 -34.8903 
22.0088 15.7143 -35.686 20.1974 15.6291 -34.9804 19.5849 15.433 -35.4503 
31.3251 15.8344 -36.3204 31.7208 15.357 -36.5317 30.4438 16.1198 -36.4931 
29.3117 16.1561 -36.3571 28.2314 16.1144 -36.5773 27.2184 15.3428 -35.9404 
27.4038 15.7908 -36.6098 26.7805 15.3559 -36.5575 22.0339 15.7216 -36.5086 
19.1909 15.8302 -35.9693 18.813 15.307 -36.3479 31.2108 16.0595 -37.1741 
31.7446 15.5346 -37.5716 27.4087 15.983 -37.6403 26.7935 15.4948 -37.2871 
25.324 16.3529 -37.7577 24.1996 15.9523 -37.4749 24.0242 15.516 -37.2578 
24.543 15.5426 -37.6856 23.1102 15.3143 -37.0534 22.5123 15.6947 -36.8385 
20.2328 16.0126 -37.7657 19.5637 15.9673 -37.5773 18.9367 15.6408 -37.2348 
31.8299 15.4735 -38.4931 27.1164 16.0471 -38.6977 26.8172 15.4869 -38.3138 
25.1853 16.1356 -38.4881 24.3924 16.0188 -38.1653 24.6701 15.5208 -38.3646 
20.7883 15.6364 -38.5225 20.1627 15.3215 -38.0687 19.536 15.2361 -37.7966 
31.7936 15.453 -39.4944 29.2721 15.7208 -39.7734 29.6449 15.4433 -39.6205 
29.4495 15.4372 -39.1028 29.0601 15.3103 -39.2947 26.638 15.5574 -39.2883 
26.4066 15.7568 -39.6016 25.9565 15.7247 -39.4096 25.1801 15.6527 -38.9401 
22.4023 15.9148 -39.665 21.8209 15.349 -39.6204 21.3939 15.5508 -39.1653 
31.8565 15.4319 -40.6672 29.232 15.9111 -40.5784 29.7468 15.4512 -40.5398 
28.8194 15.3143 -40.2901 26.1113 15.1879 -39.9204 22.6345 15.8447 -40.4557 
22.2348 15.3543 -40.0704 33.4115 15.7591 -41.9023 33.4719 15.4208 -41.2808 
33.8126 15.533 -41.5221 32.9238 15.3773 -41.4924 31.8813 15.4126 -41.7488 
[...]
CELL_DATA 23968
SCALARS scalars float
LOOKUP_TABLE default
2007 2007 2007 2007 2007 2007 2007 2007 2007 
2007 2007 2007 2007 2007 2007 2007 2007 2007 
2007 2007 2007 2007 2007 2007 2007 2007 2007 
2007 2007 2007 2007 2007 2007 2007 2007 2007 
2007 2007 2007 2007 2007 2007 2007 2007 2007 
2007 2007 2007 2007 2007 2007 2007 2007 2007 
2007 2007 2007 2007 2007 2007 2007 2007 2007 
2007 2007 2007 2007 2007 2007 2007 2007 2007 
2007 2007 2007 2007 2007 2007 2007 2007 2007 
2007 2007 2007 2007 2007 2007 2007 2007 2007 
2007 2007 2007 2007 2007 2007 2007 2007 2007 
2007 2007 2007 2007 2007 2007 2007 2007 2007 
2007 2007 2007 2007 2007 2007 2007 2007 2007 
2007 2007 2007 2007 2007 2007 2007 2007 2007 
2007 2007 2007 2007 2007 2007 2007 2007 2007 
2007 2007 2007 2007 2007 2007 2007 2007 2007 
2007 2007 2007 2007 2007 2007 2007 2007 2007 
2007 2007 2007 2007 2007 2007 2007 2007 2007 
2007 2007 2007 2007 2007 2007 2007 2007 2007 
2007 2007 2007 2007 2007 2007 2007 2007 2007 
2007 2007 2007 2007 2007 2007 2007 2007 2007 
2007 2007 2007 2007 2007 2007 2007 2007 2007 
2007 2007 2007 2007 2007 2007 2007 2007 2007 
2007 2007 2007 2007 2007 2007 2007 2007 2007 
2007 2007 2007 2007 2007 2007 2007 2007 2007 
2007 2007 2007 2007 2007 2007 2007 2007 2007 
2007 2007 2007 2007 2007 2007 2007 2007 2007 
2007 2007 2007 2007 2007 2007 2007 2007 2007 
2007 2007 2007 2007 2007 2007 2007 2007 2007 
2007 2007 2007 2007 2007 2007 2007 2007 2007 
2007 2007 2007 2007 2007 2007 2007 2007 2007 
2007 2007 2007 2007 2007 2007 2007 2007 2007 
2007 2007 2007 2007 2007 2007 2007 2007 2007 
2007 2007 2007 2007 2007 2007 2007 2007 2007 
2007 2007 2007 2007 2007 2007 2007 2007 2007 
2007 2007 2007 2007 2007 2007 2007 2007 2007 
2007 2007 2007 2007 2007 2007 2007 2007 2007 
2007 2007 2007 2007 2007 2007 2007 2007 2007 
2007 2007 2007 2007 2007 2007 2007 2007 2007 
2007 2007 2007 2007 2007 2007 2007 2007 2007 
2007 2007 2007 2007 2007 2007 2007 2007 2007 
2007 2007 2007 2007 2007 2007 2007 2007 2007 
2007 2007 2007 2007 2007 2007 2007 2007 2007 
2007 2007 2007 2007 2007 2007 2007 2007 2007 
2007 2007 2007 2007 2007 2007 2007 2007 2007 
2007 2007 2007 2007 2007 2007 2007 2007 2007 
2007 2007 2007 2007 2007 2007 2007 2007 2007 
2007 2007 2007 2007 2007 2007 2007 2007 2007 
2007 2007 2007 2007 2007 2007 2007 2007 2007 
2007 2007 2007 2007 2007 2007 2007 2007 2007 
2007 2007 2007 2007 2007 2007 2007 2007 2007 
2007 2007 2007 2007 2007 2007 2007 2007 2007 
2007 2007 2007 2007 2007 2007 2007 2007 2007 
2007 2007 2007 2007 2007 2007 2007 2007 2007 
2007 2007 2007 2007 2007 2007 2007 2007 2007 
2007 2007 2007 2007 2007 2007 2007 2007 2007 
2007 2007 2007 2007 2007 2007 2007 2007 2007 
2007 2007 2007 2007 2007 2007 2007 2007 2007 
2007 2007 2007 2007 2007 2007 2007 2007 2007 
2007 2007 2007 2007 2007 2007 2007 2007 2007 
2007 2007 2007 2007 2007 2007 2007 2007 2007 
2007 2007 2007 2007 2007 2007 2007 2007 2007 
2007 2007 2007 2007 2007 2007 2007 2007 2007 
2007 2007 2007 2007 2007 2007 2007 2007 2007 
2007 2007 2007 2007 2007 2007 2007 2007 2007 
2007 2007 2007 2007 2007 2007 2007 2007 2007 
2007 2007 2007 2007 2007 2007 2007 2007 2007 
2007 2007 2007 2007 2007 2007 2007 2007 2007 
2007 2007 2007 2007 2007 2007 2007 2007 2007 
2007 2007 2007 2007 2007 2007 2007 2007 2007 
2007 2007 2007 2007 2007 2007 2007 2007 2007 
2007 2007 2007 2007 2007 2007 2007 2007 2007 
2007 2007 2007 2007 2007 2007 2007 2007 2007 
2007 2007 2007 2007 2007 2007 2007 2007 2007 
2007 2007 2007 2007 2007 2007 2007 2007 2007 
2007 2007 2007 2007 2007 2007 2007 2007 2007 
2007 2007 2007 2007 2007 2007 2007 2007 2007 
2007 2007 2007 2007 2007 2007 2007 2007 2007 
2007 2007 2007 2007 2007 2007 2007 2007 2007 
2007 2007 2007 2007 2007 2007 2007 2007 2007 
2007 2007 2007 2007 2007 2007 2007 2007 2007 
2007 2007 2007 2007 2007 2007 2007 2007 2007 
2007 2007 2007 2007 2007 2007 2007 2007 2007 
2007 2007 2007 2007 2007 2007 2007 2007 2007 
2007 2007 2007 2007 2007 2007 2007 2007 2007 
2007 2007 2007 2007 2007 2007 2007 2007 2007 
2007 2007 2007 2007 2007 2007 2007 2007 2007 
2007 2007 2007 2007 2007 2007 2007 2007 2007 
2007 2007 2007 2007 2007 2007 2007 2007 2007 
2007 2007 2007 2007 2007 2007 2007 2007 2007 
2007 2007 2007 2007 2007 2007 2007 2007 2007 
2007 2007 2007 2007 2007 2007 2007 2007 2007 
2007 2007 2007 2007 2007 2007 2007 2007 2007 
2007 2007 2007 2007 2007 2007 2007 2007 2007 
2007 2007 2007 2007 2007 2007 2007 2007 2007 
2007 2007 2007 2007 2007 2007 2007 2007 2007 
2007 2007 2007 2007 2007 2007 2007 2007 2007 
2007 2007 2007 2007 2007 2007 2007 2007 2007 
2007 2007 2007 2007 2007 2007 2007 2007 2007 
2007 2007 2007 2007 2007 2007 2007 2007 2007 
2007 2007 2007 2007 2007 2007 2007 2007 2007 
2007 2007 2007 2007 2007 2007 2007 2007 2007 
2007 2007 2007 2007 2007 2007 2007 2007 2007 
2007 2007 2007 2007 2007 2007 2007 2007 2007 
2007 2007 2007 2007 2007 2007 2007 2007 2007 
2007 2007 2007 2007 2007 2007 2007 2007 2007 
2007 2007 2007 2007 2007 2007 2007 2007 2007 
2007 2007 2007 2007 2007 2007 2007 2007 2007 
2007 2007 2007 2007 2007 2007 2007 2007 2007 
2007 2007 2007 2007 2007 2007 2007 2007 2007 
2007 2007 2007 2007 2007 2007 2007 2007 2007 
2007 2007 2007 2007 2007 2007 2007 2007 2007 
2007 2007 2007 2007 2007 2007 2007 2007 2007 
2007 2007 2007 2007 2007 2007 2007 2007 2007 
2007 2007 2007 2007 2007 2007 2007 2007 2007 
2007 2007 2007 2007 2007 2007 2007 2007 2007 
2007 2007 2007 2007 2007 2007 2007 2007 2007 
2007 2007 2007 2007 2007 2007 2007 2007 2007 
2007 2007 2007 2007 2007 2007 2007 2007 2007 
2007 2007 2007 2007 2007 2007 2007 2007 2007 
2007 2007 2007 2007 2007 2007 2007 2007 2007 
2007 2007 2007 2007 2007 2007 2007 2007 2007 
2007 2007 2007 2007 2007 2007 2007 2007 2007 
2007 2007 2007 2007 2007 2007 2007 2007 2007 
2007 2007 2007 2007 2007 2007 2007 2007 2007 
2007 2007 2007 2007 2007 2007 2007 2007 2007 
2007 2007 2007 2007 2007 2007 2007 2007 2007 
2007 2007 2007 2007 2007 2007 2007 2007 2007 
2007 2007 2007 2007 2007 2007 2007 2007 2007 
2007 2007 2007 2007 2007 2007 2007 2007 2007 
2007 2007 2007 2007 2007 2007 2007 2007 2007 
2007 2007 2007 2007 2007 2007 2007 2007 2007 
2007 2007 2007 2007 2007 2007 2007 2007 2007 
2007 2007 2007 2007 2007 2007 2007 2007 2007 
2007 2007 2007 2007 2007 2007 2007 2007 2007 
2007 2007 2007 2007 2007 2007 2007 2007 2007 
2007 2007 2007 2007 2007 2007 2007 2007 2007 
2007 2007 2007 2007 2007 2007 2007 2007 2007 
2007 2007 2007 2007 2007 2007 2007 2007 2007 
2007 2007 2007 2007 2007 2007 2007 2007 2007 
2007 2007 2007 2007 2007 2007 2007 2007 2007 
2007 2007 2007 2007 2007 2007 2007 2007 2007 
2007 2007 2007 2007 2007 2007 2007 2007 2007 
2007 2007 2007 2007 2007 2007 2007 2007 2007 
2007 2007 2007 2007 2007 2007 2007 2007 2007 
2007 2007 2007 2007 2007 2007 2007 2007 2007 
2007 2007 2007 2007 2007 2007 2007 2007 2007 
2007 2007 2007 2007 2007 2007 2007 2007 2007 
2007 2007 2007 2007 2007 2007 2007 2007 2007 
2007 2007 2007 2007 2007 2007 2007 2007 2007 
2007 2007 2007 2007 2007 2007 2007 2007 2007 
2007 2007 2007 2007 2007 2007 2007 2007 2007 
2007 2007 2007 2007 2007 2007 2007 2007 2007 
2007 2007 2007 2007 2007 2007 2007 2007 2007 
2007 2007 2007 2007 2007 2007 2007 2007 2007 
2007 2007 2007 2007 2007 2007 2007 2007 2007 
2007 2007 2007 2007 2007 2007 2007 2007 2007 
2007 2007 2007 2007 2007 2007 2007 2007 2007 
2007 2007 2007 2007 2007 2007 2007 2007 2007 
2007 2007 2007 2007 2007 2007 2007 2007 2007 
2007 2007 2007 2007 2007 2007 2007 2007 2007 
2007 2007 2007 2007 2007 2007 2007 2007 2007 
2007 2007 2007 2007 2007 2007 2007 2007 2007 
2007 2007 2007 2007 2007 2007 2007 2007 2007 
2007 2007 2007 2007 2007 2007 2007 2007 2007 
2007 2007 2007 2007 2007 2007 2007 2007 2007 
2007 2007 2007 2007 2007 2007 2007 2007 2007 
2007 2007 2007 2007 2007 2007 2007 2007 2007 
2007 2007 2007 2007 2007 2007 2007 2007 2007 
2007 2007 2007 2007 2007 2007 2007 2007 2007 
2007 2007 2007 2007 2007 2007 2007 2007 2007 
2007 2007 2007 2007 2007 2007 2007 2007 2007 
2007 2007 2007 2007 2007 2007 2007 2007 2007 
2007 2007 2007 2007 2007 2007 2007 2007 2007 
2007 2007 2007 2007 2007 2007 2007 2007 2007 
2007 2007 2007 2007 2007 2007 2007 2007 2007 
2007 2007 2007 2007 2007 2007 2007 2007 2007 
2007 2007 2007 2007 2007 2007 2007 2007 2007 
2007 2007 2007 2007 2007 2007 2007 2007 2007 
2007 2007 2007 2007 2007 2007 2007 2007 2007 
2007 2007 2007 2007 2007 2007 2007 2007 2007 
2007 2007 2007 2007 2007 2007 2007 2007 2007 
2007 2007 2007 2007 2007 2007 2007 2007 2007 
2007 2007 2007 2007 2007 2007 2007 2007 2007 
2007 2007 2007 2007 2007 2007 2007 2007 2007 
2007 2007 2007 2007 2007 2007 2007 2007 2007 
2007 2007 2007 2007 2007 2007 2007 2007 2007 
2007 2007 2007 2007 2007 2007 2007 2007 2007 
2007 2007 2007 2007 2007 2007 2007 2007 2007 
2007 2007 2007 2007 2007 2007 2007 2007 2007 
2007 2007 2007 2007 2007 2007 2007 2007 2007 
2007 2007 2007 2007 2007 2007 2007 2007 2007 
2007 2007 2007 2007 2007 2007 2007 2007 2007 
2007 2007 2007 2007 2007 2007 2007 2007 2007 
2007 2007 2007 2007 2007 2007 2007 2007 2007 
2007 2007 2007 2007 2007 2007 2007 2007 2007 
2007 2007 2007 2007 2007 2007 2007 2007 2007 
2007 2007 2007 2007 2007 2007 2007 2007 2007 
2007 2007 2007 2007 2007 2007 2007 2007 2007 
2007 2007 2007 2007 2007 2007 2007 2007 2007 
2007 2007 2007 2007 2007 2007 2007 2007 2007 
2007 2007 2007 2007 2007 2007 2007 2007 2007 
2007 2007 2007 2007 2007 2007 2007 2007 2007 
2007 2007 2007 2007 2007 2007 2007 2007 2007 
2007 2007 2007 2007 2007 2007 2007 2007 2007 
2007 2007 2007 2007 2007 2007 2007 2007 2007 
2007 2007 2007 2007 2007 2007 2007 2007 2007 
2007 2007 2007 2007 2007 2007 2007 2007 2007 
2007 2007 2007 2007 2007 2007 2007 2007 2007 
2007 2007 2007 2007 2007 2007 2007 2007 2007 
2007 2007 2007 2007 2007 2007 2007 2007 2007 
2007 2007 2007 2007 2007 2007 2007 2007 2007 
2007 2007 2007 2007 2007 2007 2007 2007 2007 
2007 2007 2007 2007 2007 2007 2007 2007 2007 
2007 2007 2007 2007 2007 2007 2007 2007 2007 
2007 2007 2007 2007 2007 2007 2007 2007 2007 
2007 2007 2007 2007 2007 2007 2007 2007 2007 
2007 2007 2007 2007 2007 2007 2007 2007 2007 
2007 2007 2007 2007 2007 2007 2007 2007 2007 
2007 2007 2007 2007 2007 2007 2007 2007 2007 
2007 2007 2007 2007 2007 2007 2007 2007 2007 
2007 2007 2007 2007 2007 2007 2007 2007 2007 
2007 2007 2007 2007 2007 2007 2007 2007 2007 
2007 2007 2007 2007 2007 2007 2007 2007 2007 
2007 2007 2007 2007 2007 2007 2007 2007 2007 
2007 2007 2007 2007 2007 2007 2007 2007 2007 
2007 2007 2007 2007 2007 2007 2007 2007 2007 
2007 2007 2007 2007 2007 2007 2007 2007 2007 
2007 2007 2007 2007 2007 2007 2007 2007 2007 
2007 2007 2007 2007 2007 2007 2007 2007 2007 
2007 2007 2007 2007 2007 2007 2007 2007 2007 
2007 2007 2007 2007 2007 2007 2007 2007 2007 
2007 2007 2007 2007 2007 2007 2007 2007 2007 
2007 2007 2007 2007 2007 2007 2007 2007 2007 
2007 2007 2007 2007 2007 2007 2007 2007 2007 
2007 2007 2007 2007 2007 2007 2007 2007 2007 
2007 2007 2007 2007 2007 2007 2007 2007 2007 
2007 2007 2007 2007 2007 2007 2007 2007 2007 
2007 2007 2007 2007 2007 2007 2007 2007 2007 
2007 2007 2007 2007 2007 2007 2007 2007 2007 
2007 2007 2007 2007 2007 2007 2007 2007 2007 
2007 2007 2007 2007 2007 2007 2007 2007 2007 
2007 2007 2007 2007 2007 2007 2007 2007 2007 
2007 2007 2007 2007 2007 2007 2007 2007 2007 
2007 2007 2007 2007 2007 2007 2007 2007 2007 
2007 2007 2007 2007 2007 2007 2007 2007 2007 
2007 2007 2007 2007 2007 2007 2007 2007 2007 
2007 2007 2007 2007 2007 2007 2007 2007 2007 
2007 2007 2007 2007 2007 2007 2007 2007 2007 
2007 2007 2007 2007 2007 2007 2007 2007 2007 
2007 2007 2007 2007 2007 2007 2007 2007 2007 
2007 2007 2007 2007 2007 2007 2007 2007 2007 
2007 2007 2007 2007 2007 2007 2007 2007 2007 
2007 2007 2007 2007 2007 2007 2007 2007 2007 
2007 2007 2007 2007 2007 2007 2007 2007 2007 
2007 2007 2007 2007 2007 2007 2007 2007 2007 
2007 2007 2007 2007 2007 2007 2007 2007 2007 
2007 2007 2007 2007 2007 2007 2007 2007 2007 
2007 2007 2007 2007 2007 2007 2007 2007 2007 
2007 2007 2007 2007 2007 2007 2007 2007 2007 
2007 2007 2007 2007 2007 2007 2007 2007 2007 
2007 2007 2007 2007 2007 2007 2007 2007 2007 
2007 2007 2007 2007 2007 2007 2007 2007 2007 
2007 2007 2007 2007 2007 2007 2007 2007 2007 
2007 2007 2007 2007 2007 2007 2007 2007 2007 
2007 2007 2007 2007 2007 2007 2007 2007 2007 
2007 2007 2007 2007 2007 2007 2007 2007 2007 
2007 2007 2007 2007 2007 2007 2007 2007 2007 
2007 2007 2007 2007 2007 2007 2007 2007 2007 
2007 2007 2007 2007 2007 2007 2007 2007 2007 
2007 2007 2007 2007 2007 2007 2007 2007 2007 
2007 2007 2007 2007 2007 2007 2007 2007 2007 
2007 2007 2007 2007 2007 2007 2007 2007 2007 
2007 2007 2007 2007 2007 2007 2007 2007 2007 
2007 2007 2007 2007 2007 2007 2007 2007 2007 
2007 2007 2007 2007 2007 2007 2007 2007 2007 
2007 2007 2007 2007 2007 2007 2007 2007 2007 
2007 2007 2007 2007 2007 2007 2007 2007 2007 
2007 2007 2007 2007 2007 2007 2007 2007 2007 
2007 2007 2007 2007 2007 2007 2007 2007 2007 
2007 2007 2007 2007 2007 2007 2007 2007 2007 
2007 2007 2007 2007 2007 2007 2007 2007 2007 
2007 2007 2007 2007 2007 2007 2007 2007 2007 
2007 2007 2007 2007 2007 2007 2007 2007 2007 
2007 2007 2007 2007 2007 2007 2007 2007 2007 
2007 2007 2007 2007 2007 2007 2007 2007 2007 
2007 2007 2007 2007 2007 2007 2007 2007 2007 
2007 2007 2007 2007 2007 2007 2007 2007 2007 
2007 2007 2007 2007 2007 2007 2007 2007 2007 
2007 2007 2007 2007 2007 2007 2007 2007 2007 
2007 2007 2007 2007 2007 2007 2007 2007 2007 
2007 2007 2007 2007 2007 2007 2007 2007 2007 
2007 2007 2007 2007 2007 2007 2007 2007 2007 
2007 2007 2007 2007 2007 2007 2007 2007 2007 
2007 2007 2007 2007 2007 2007 2007 2007 2007 
2007 2007 2007 2007 2007 2007 2007 2007 2007 
2007 2007 2007 2007 2007 2007 2007 2007 2007 
2007 2007 2007 2007 2007 2007 2007 2007 2007 
2007 2007 2007 2007 2007 2007 2007 2007 2007 
2007 2007 2007 2007 2007 2007 2007 2007 2007 
2007 2007 2007 2007 2007 2007 2007 2007 2007 
2007 2007 2007 2007 2007 2007 2007 2007 2007 
2007 2007 2007 2007 2007 2007 2007 2007 2007 
2007 2007 2007 2007 2007 2007 2007 2007 2007 
2007 2007 2007 2007 2007 2007 2007 2007 2007 
2007 2007 2007 2007 2007 2007 2007 2007 2007 
2007 2007 2007 2007 2007 2007 2007 2007 2007 
2007 2007 2007 2007 2007 2007 2007 2007 2007 
2007 2007 2007 2007 2007 2007 2007 2007 2007 
2007 2007 2007 2007 2007 2007 2007 2007 2007 
2007 2007 2007 2007 2007 2007 2007 2007 2007 
2007 2007 2007 2007 2007 2007 2007 2007 2007 
2007 2007 2007 2007 2007 2007 2007 2007 2007 
2007 2007 2007 2007 2007 2007 2007 2007 2007 
2007 2007 2007 2007 2007 2007 2007 2007 2007 
2007 2007 2007 2007 2007 2007 2007 2007 2007 
2007 2007 2007 2007 2007 2007 2007 2007 2007 
2007 2007 2007 2007 2007 2007 2007 2007 2007 
2007 2007 2007 2007 2007 2007 2007 2007 2007 
2007 2007 2007 2007 2007 2007 2007 2007 2007 
2007 2007 2007 2007 2007 2007 2007 2007 2007 
2007 2007 2007 2007 2007 2007 2007 2007 2007 
2007 2007 2007 2007 2007 2007 2007 2007 2007 
2007 2007 2007 2007 2007 2007 2007 2007 2007 
2007 2007 2007 2007 2007 2007 2007 2007 2007 
2007 2007 2007 2007 2007 2007 2007 2007 2007 
2007 2007 2007 2007 2007 2007 2007 2007 2007 
2007 2007 2007 2007 2007 2007 2007 2007 2007 
2007 2007 2007 2007 2007 2007 2007 2007 2007 
2007 2007 2007 2007 2007 2007 2007 2007 2007 
2007 2007 2007 2007 2007 2007 2007 2007 2007 
2007 2007 2007 2007 2007 2007 2007 2007 2007 
2007 2007 2007 2007 2007 2007 2007 2007 2007 
2007 2007 2007 2007 2007 2007 2007 2007 2007 
2007 2007 2007 2007 2007 2007 2007 2007 2007 
2007 2007 2007 2007 2007 2007 2007 2007 2007 
2007 2007 2007 2007 2007 2007 2007 2007 2007 
2007 2007 2007 2007 2007 2007 2007 2007 2007 
2007 2007 2007 2007 2007 2007 2007 2007 2007 
2007 2007 2007 2007 2007 2007 2007 2007 2007 
2007 2007 2007 2007 2007 2007 2007 2007 2007 
2007 2007 2007 2007 2007 2007 2007 2007 2007 
2007 2007 2007 2007 2007 2007 2007 2007 2007 
2007 2007 2007 2007 2007 2007 2007 2007 2007 
2007 2007 2007 2007 2007 2007 2007 2007 2007 
2007 2007 2007 2007 2007 2007 2007 2007 2007 
2007 2007 2007 2007 2007 2007 2007 2007 2007 
2007 2007 2007 2007 2007 2007 2007 2007 2007 
2007 2007 2007 2007 2007 2007 2007 2007 2007 
2007 2007 2007 2007 2007 2007 2007 2007 2007 
2007 2007 2007 2007 2007 2007 2007 2007 2007 
2007 2007 2007 2007 2007 2007 2007 2007 2007 
2007 2007 2007 2007 2007 2007 2007 2007 2007 
2007 2007 2007 2007 2007 2007 2007 2007 2007 
2007 2007 2007 2007 2007 2007 2007 2007 2007 
2007 2007 2007 2007 2007 2007 2007 2007 2007 
2007 2007 2007 2007 2007 2007 2007 2007 2007 
2007 2007 2007 2007 2007 2007 2007 2007 2007 
2007 2007 2007 2007 2007 2007 2007 2007 2007 
2007 2007 2007 2007 2007 2007 2007 2007 2007 
2007 2007 2007 2007 2007 2007 2007 2007 2007 
2007 2007 2007 2007 2007 2007 2007 2007 2007 
2007 2007 2007 2007 2007 2007 2007 2007 2007 
2007 2007 2007 2007 2007 2007 2007 2007 2007 
2007 2007 2007 2007 2007 2007 2007 2007 2007 
2007 2007 2007 2007 2007 2007 2007 2007 2007 
2007 2007 2007 2007 2007 2007 2007 2007 2007 
2007 2007 2007 2007 2007 2007 2007 2007 2007 
2007 2007 2007 2007 2007 2007 2007 2007 2007 
2007 2007 2007 2007 2007 2007 2007 2007 2007 
2007 2007 2007 2007 2007 2007 2007 2007 2007 
2007 2007 2007 2007 2007 2007 2007 2007 2007 
2007 2007 2007 2007 2007 2007 2007 2007 2007 
2007 2007 2007 2007 2007 2007 2007 2007 2007 
2007 2007 2007 2007 2007 2007 2007 2007 2007 
2007 2007 2007 2007 2007 2007 2007 2007 2007 
2007 2007 2007 2007 2007 2007 2007 2007 2007 
2007 2007 2007 2007 2007 2007 2007 2007 2007 
2007 2007 2007 2007 2007 2007 2007 2007 2007 
2007 2007 2007 2007 2007 2007 2007 2007 2007 
2007 2007 2007 2007 2007 2007 2007 2007 2007 
2007 2007 2007 2007 2007 2007 2007 2007 2007 
2007 2007 2007 2007 2007 2007 2007 2007 2007 
2007 2007 2007 2007 2007 2007 2007 2007 2007 
2007 2007 2007 2007 2007 2007 2007 2007 2007 
2007 2007 2007 2007 2007 2007 2007 2007 2007 
2007 2007 2007 2007 2007 2007 2007 2007 2007 
2007 2007 2007 2007 2007 2007 2007 2007 2007 
2007 2007 2007 2007 2007 2007 2007 2007 2007 
2007 2007 2007 2007 2007 2007 2007 2007 2007 
2007 2007 2007 2007 2007 2007 2007 2007 2007 
2007 2007 2007 2007 2007 2007 2007 2007 2007 
2007 2007 2007 2007 2007 2007 2007 2007 2007 
2007 2007 2007 2007 2007 2007 2007 2007 2007 
2007 2007 2007 2007 2007 2007 2007 2007 2007 
2007 2007 2007 2007 2007 2007 2007 2007 2007 
2007 2007 2007 2007 2007 2007 2007 2007 2007 
2007 2007 2007 2007 2007 2007 2007 2007 2007 
2007 2007 2007 2007 2007 2007 2007 2007 2007 
2007 2007 2007 2007 2007 2007 2007 2007 2007 
2007 2007 2007 2007 2007 2007 2007 2007 2007 
2007 2007 2007 2007 2007 2007 2007 2007 2007 
2007 2007 2007 2007 2007 2007 2007 2007 2007 
2007 2007 2007 2007 2007 2007 2007 2007 2007 
2007 2007 2007 2007 2007 2007 2007 2007 2007 
2007 2007 2007 2007 2007 2007 2007 2007 2007 
2007 2007 2007 2007 2007 2007 2007 2007 2007 
2007 2007 2007 2007 2007 2007 2007 2007 2007 
2007 2007 2007 2007 2007 2007 2007 2007 2007 
2007 2007 2007 2007 2007 2007 2007 2007 2007 
2007 2007 2007 2007 2007 2007 2007 2007 2007 
2007 2007 2007 2007 2007 2007 2007 2007 2007 
2007 2007 2007 2007 2007 2007 2007 2007 2007 
2007 2007 2007 2007 2007 2007 2007 2007 2007 
2007 2007 2007 2007 2007 2007 2007 2007 2007 
2007 2007 2007 2007 2007 2007 2007 2007 2007 
2007 2007 2007 2007 2007 2007 2007 2007 2007 
2007 2007 2007 2007 2007 2007 2007 2007 2007 
2007 2007 2007 2007 2007 2007 2007 2007 2007 
2007 2007 2007 2007 2007 2007 2007 2007 2007 
2007 2007 2007 2007 2007 2007 2007 2007 2007 
2007 2007 2007 2007 2007 2007 2007 2007 2007 
2007 2007 2007 2007 2007 2007 2007 2007 2007 
2007 2007 2007 2007 2007 2007 2007 2007 2007 
2007 2007 2007 2007 2007 2007 2007 2007 2007 
2007 2007 2007 2007 2007 2007 2007 2007 2007 
2007 2007 2007 2007 2007 2007 2007 2007 2007 
2007 2007 2007 2007 2007 2007 2007 2007 2007 
2007 2007 2007 2007 2007 2007 2007 2007 2007 
2007 2007 2007 2007 2007 2007 2007 2007 2007 
2007 2007 2007 2007 2007 2007 2007 2007 2007 
2007 2007 2007 2007 2007 2007 2007 2007 2007 
2007 2007 2007 2007 2007 2007 2007 2007 2007 