# vtk DataFile Version 4.2
vtk output
ASCII
DATASET POLYDATA
POINTS 3324 float
-0.0899185 4.28831 67.8793 -0.313962 4.86951 67.1853 -0.888163 4.41621 67.5921 
0.751794 4.31845 67.8189 0.525326 4.78209 67.5422 1.0388 4.54313 67.3165 
-2.04131 3.40504 67.8071 -2.27839 3.89804 67.4889 -2.74717 3.32077 67.4498 
-1.04011 3.59031 67.9348 -1.67618 4.1217 67.5219 -0.12468 3.33889 68.064 
0.612397 3.52592 67.9386 1.28053 3.79942 67.3684 -2.21858 2.4732 67.8752 
-2.87059 2.21519 67.5089 -1.30551 2.5026 68.0446 -0.291975 2.47092 68.0641 
0.579337 2.48913 67.9463 1.25921 2.74403 67.5739 -2.16557 1.5168 67.8015 
-2.66592 1.37951 67.4287 -1.30092 1.48138 68.0552 -0.295887 1.43882 68.0845 
0.599624 1.43976 67.9209 1.2729 1.67536 67.5727 -2.13336 0.839084 67.5832 
-1.8551 0.0832056 67.5318 -1.32232 0.487218 67.9256 -0.434764 0.595812 68.0842 
0.427607 0.354337 67.8807 1.26997 0.49127 67.352 -1.25118 -0.369101 67.7966 
-1.65856 -0.504492 67.5162 -0.411356 -0.355969 67.8726 0.393776 -0.666086 67.3753 
0.850826 -0.181045 67.3708 -1.21246 -0.993043 67.3994 -0.25721 -1.11706 67.4164 
-2.33874 7.49574 66.661 -2.4847 7.78362 66.2428 -2.59152 7.34969 66.5084 
-1.82464 7.3817 66.2506 -2.26351 7.08881 66.4377 -2.21874 4.31096 66.9963 
-2.17995 4.85442 66.467 -2.77895 4.50222 66.4564 -1.25646 4.62247 67.1636 
-1.36699 5.0116 66.5726 -0.243928 5.15356 66.3625 0.61908 4.89886 66.796 
1.28387 4.42762 66.4151 -4.03372 3.38066 66.8057 -4.22677 3.85491 66.4996 
-4.71644 3.30773 66.4516 -3.21827 3.70048 66.9268 -3.61243 4.07364 66.4775 
1.72001 3.8148 66.5899 1.78591 3.13931 66.9613 2.03711 3.46453 66.2596 
-4.23155 2.48278 66.8621 -4.87409 2.23124 66.4988 -3.49999 2.7589 67.1488 
1.79301 2.1501 67.0663 2.14744 2.71182 66.3476 -4.20885 1.53309 66.7571 
-4.68437 1.39394 66.4174 -3.38008 1.61019 67.1068 1.78653 1.12054 67.0694 
2.15282 1.67936 66.4023 -4.14936 0.877408 66.5201 -3.70488 0.268458 66.3996 
-3.37892 0.588815 66.7888 -2.59633 0.647212 67.1964 1.77533 0.470592 66.9525 
2.06128 0.725041 66.425 -3.10877 -0.16375 66.5146 -2.67898 -0.750449 66.431 
-2.31998 -0.344926 67.0005 0.789768 -0.610144 67.0135 1.14205 -0.510909 66.5733 
1.69211 0.0351735 66.3619 -2.01693 -1.17128 66.7113 -1.36995 -1.5371 66.8819 
-1.86312 -1.66192 66.3753 -0.604358 -1.59355 66.9783 0.191383 -1.43843 66.8042 
0.742092 -1.0892 66.5274 -1.0918 -1.91324 66.2904 -0.0626606 -1.88043 66.255 
-5.06656 7.44518 65.7765 -5.15389 7.93572 65.3955 -5.61393 7.51501 65.4477 
-4.12497 7.38145 65.9115 -4.34507 7.8687 65.4167 -3.13566 7.354 66.1465 
-3.35097 7.87142 65.6767 -2.53688 8.16333 65.3496 -1.07104 7.5229 65.9449 
-1.61649 8.02179 65.75 -0.49366 7.38133 65.7442 -0.592766 7.91846 65.6121 
0.0680033 7.64318 65.3152 -5.25037 6.89961 65.6133 -4.75956 6.29271 65.4192 
-4.54808 6.75115 65.7815 -3.42707 6.49434 65.8669 -2.3258 6.50122 66.0481 
-1.75175 6.66144 65.8111 -1.01481 6.93255 65.4814 -0.25657 7.16506 65.3123 
-3.93617 6.03205 65.4342 -3.14867 5.78568 65.4998 -2.95116 5.31299 65.485 
-2.43826 5.42825 65.9912 -1.24858 6.10296 65.4211 -1.15994 5.5943 65.9397 
-0.138889 5.42847 65.7858 -0.331018 5.78087 65.2947 0.353576 5.55604 65.3195 
-4.17454 4.27603 65.9691 -4.30971 4.78327 65.3703 -4.81702 4.31656 65.5449 
-3.13065 4.75193 65.9294 -3.54192 5.02397 65.4125 0.629053 5.08906 65.8248 
1.29081 4.68942 65.1833 -5.23894 3.56612 65.8871 -5.33407 4.06656 65.3286 
-5.76856 3.48055 65.3279 1.78297 4.00415 65.7328 2.1382 3.38119 65.4656 
-6.09293 2.45136 65.8701 -6.24894 2.90985 65.1569 -6.75976 2.28657 65.4861 
-5.36721 2.68447 66.1951 2.28906 2.49512 65.4561 -7.11203 1.40294 65.894 
-7.47169 1.88955 65.2025 -7.88811 1.28377 65.6146 -6.16754 1.32748 66.0312 
-5.35116 1.60794 66.144 2.28168 1.46772 65.513 -8.05336 0.693867 65.7996 
-8.4928 0.851559 65.5066 -8.63534 0.440578 65.5481 -7.46822 0.470065 65.8885 
-6.56688 0.587261 65.9073 -5.41491 0.479813 65.8921 -4.41738 0.522909 66.1597 
2.10757 0.566155 65.5157 -8.26612 0.0196515 65.4054 -7.07589 -0.0527271 65.5376 
-6.03276 -0.0337359 65.5041 -5.15985 -0.196844 65.5543 -4.74693 -0.550697 65.4782 
-4.31642 -0.42407 65.8083 -3.39123 -0.514903 66.1435 1.3963 -0.561589 65.6653 
1.74843 -0.0879568 65.2526 -4.3657 -1.0536 65.3566 -3.83503 -1.62843 65.2907 
-3.46795 -1.28702 65.7714 -2.61382 -1.41283 66.0611 0.583976 -1.63722 66.0695 
1.04934 -1.23247 65.5419 -3.18849 -1.86686 65.3665 -2.13288 -2.06082 65.5649 
-1.12091 -2.20479 65.546 -0.178321 -2.1648 65.435 0.600538 -1.8659 65.3885 
-5.42412 8.30184 64.9227 -5.4142 8.7862 64.2911 -5.85254 8.45951 64.5309 
-4.86027 8.54875 64.1521 -1.94587 8.52604 64.9547 -1.99913 8.6808 64.2002 
-2.51085 8.41101 64.6123 -0.98641 8.51334 65.0869 -1.27059 8.85864 64.3428 
0.0992245 8.36677 65.0064 -0.231149 8.8651 64.4284 0.755294 8.4685 64.7399 
0.58892 8.74436 64.5524 0.989843 8.57608 64.3053 -6.08109 7.60926 64.9472 
-6.37071 8.02685 64.1885 -6.60291 7.27734 64.5266 -4.3747 8.12187 64.5632 
-3.17601 8.09397 64.5526 0.696623 8.00457 64.4407 0.194626 7.35622 64.7469 
-6.20801 6.46757 64.8994 -6.71769 6.44964 64.4229 -5.47216 6.51295 65.2076 
-1.14357 6.37951 65.0864 -0.727068 6.43746 64.4347 -0.379197 6.91319 64.4287 
-6.18551 5.55078 64.782 -6.76608 5.72097 64.3692 -5.48254 5.61579 65.0018 
-4.41148 5.4988 65.1512 -3.43312 5.52289 65.2298 -0.512411 6.08186 64.6586 
0.837873 5.3499 65.0518 0.386411 5.75305 64.59 1.03109 5.1632 64.332 
-6.38992 5.00042 64.3762 -5.82648 4.14463 64.6355 -5.26405 4.78951 65.0203 
1.42255 4.51519 64.2695 -5.97841 3.46083 64.6905 1.78253 4.03414 64.7209 
2.13147 3.35487 64.4388 -6.23269 3.08954 64.5636 -6.73443 2.58617 64.6778 
2.29144 2.47063 64.4293 -10.0873 1.3519 64.8131 -10.1288 1.81115 64.3192 
-10.616 1.21169 64.5746 -9.20669 1.48956 64.8933 -9.5106 1.92906 64.5919 
-8.41631 1.37733 65.1726 -8.42215 1.98115 64.6287 -7.46024 2.20485 64.477 
2.28664 1.48063 64.4959 -10.4192 0.721555 64.769 -10.6321 0.700507 64.4276 
-9.3196 0.617637 65.0737 2.1349 0.497803 64.3742 -10.1359 0.303893 64.4317 
-9.22002 -0.142422 64.583 -8.38823 -0.518807 64.8721 -8.80034 -0.601837 64.5251 
-7.5521 -0.568266 65.0174 -6.51823 -0.540109 65.0002 -5.41116 -0.597306 65.1014 
1.40411 -0.782172 64.6573 1.79223 -0.205904 64.4173 -8.24514 -0.989586 64.3767 
-7.04152 -1.05316 64.4886 -6.02577 -1.0294 64.4673 -5.07662 -1.16032 64.661 
-4.41323 -1.47789 64.8841 -4.79748 -1.51456 64.4596 1.08413 -1.6578 64.4561 
-4.21561 -1.94855 64.4609 -3.08286 -2.25063 64.753 -2.37286 -2.46343 64.8291 
-2.81721 -2.5476 64.4687 -1.53839 -2.52913 65.0158 -0.57688 -2.55676 64.9569 
0.27105 -2.67388 64.3684 0.677417 -2.1924 64.5105 -2.25844 -2.9387 64.3511 
-1.0385 -3.05252 64.5292 -0.251632 -3.05348 64.3692 -5.17676 8.74715 63.7367 
-5.76453 8.44972 63.6036 -4.72879 8.33557 63.4738 -2.40948 8.37707 64.0254 
-2.027 8.53165 63.6061 -1.55562 8.84292 63.4291 -0.556966 9.10673 63.4457 
0.566732 9.00435 63.7613 1.10701 8.64936 63.4411 -6.6491 8.00199 63.2488 
-6.90442 7.26298 63.5633 -4.0902 8.01478 63.4733 -3.40575 8.04093 63.7118 
-2.60518 8.22955 63.5349 0.274362 7.39207 63.8137 0.816596 7.94823 63.2474 
-7.0075 6.27405 63.7607 -0.742734 6.45969 63.5559 -0.448184 6.92718 63.2411 
-7.13055 5.54893 63.8852 -7.34716 5.91947 63.1936 -7.56439 5.23885 63.2485 
-0.250221 5.98964 63.6349 0.571777 5.5777 63.899 0.315033 5.51496 63.1479 
-7.0354 4.90552 63.6614 -6.41922 4.44596 63.9409 -6.83663 4.13945 63.4327 
0.827561 5.16175 63.5618 1.24581 4.45115 63.319 -6.36902 3.49988 64.0374 
-6.89796 3.35956 63.4742 -2.91811 3.39805 63.8917 -3.745 3.47804 63.4132 
-3.03104 3.92707 63.3571 -2.46379 3.82058 63.5629 -2.23351 3.32345 63.8471 
-1.97758 3.55006 63.3065 1.74522 3.95227 63.7626 2.07119 3.16836 63.369 
-9.20895 2.38664 63.9435 -9.28792 2.75383 63.2308 -9.57088 2.46578 63.3857 
-8.54353 2.95342 63.2989 -8.003 2.46006 63.9782 -7.08157 2.71023 63.9432 
-7.55554 3.02093 63.4412 -3.16152 2.47181 63.9744 -3.82936 2.21909 63.5588 
-2.36421 2.50526 63.9829 -1.82723 2.78454 63.4102 2.26926 2.3359 63.5873 
-10.4118 1.15709 64.066 -9.87312 1.80248 63.4764 -3.15255 1.48796 63.882 
-3.63533 1.33686 63.4964 -2.39953 1.44545 63.9619 -1.82103 1.72483 63.4395 
2.26821 1.49092 63.4505 -10.4039 0.556176 64.085 -9.96215 0.324676 63.5262 
-3.0979 0.831699 63.6527 -2.48924 0.641828 63.8038 -2.74887 0.37798 63.5771 
-1.85298 0.588263 63.2984 2.26884 0.657482 63.3049 -10.2911 -0.315505 63.2998 
-10.4511 -0.52035 63.4102 -10.1852 -0.381328 63.5946 -9.41843 -0.565275 63.9874 
-2.38861 -0.0197206 63.2703 1.65558 -0.68668 63.9253 2.10311 -0.28794 63.4285 
-10.0675 -0.701137 63.4297 -9.21386 -1.13463 63.5693 -8.37803 -1.50944 63.8298 
-8.90041 -1.64606 63.33 -7.55146 -1.53696 63.9802 -6.5608 -1.51482 63.9453 
-5.45553 -1.56647 64.0522 1.40103 -1.49477 63.5792 1.79027 -1.08106 63.3215 
-8.12727 -1.86108 63.244 -7.1495 -1.84344 63.4601 -6.1823 -1.9946 63.3407 
-5.11055 -2.13229 63.6239 -4.37146 -2.4204 63.7652 -4.72538 -2.66147 63.3493 
-3.45567 -2.58649 64.0872 0.776622 -2.56337 63.92 1.07947 -2.42152 63.498 
-4.01528 -2.94583 63.4384 -3.12607 -3.16503 63.6749 -2.39741 -3.46327 63.8313 
-2.90285 -3.59703 63.3208 -1.54923 -3.54442 64.0182 -0.571909 -3.56513 63.9687 
0.199087 -3.39679 63.7394 0.756197 -3.06863 63.4557 -2.11529 -3.85692 63.278 
-1.01066 -3.93019 63.3852 -0.0508714 -3.88594 63.2227 -2.97668 9.23396 62.7287 
-3.37294 9.73503 62.2935 -3.53804 9.25342 62.4991 -2.8412 9.51771 62.1836 
0.100688 9.51379 62.9227 -0.111222 10.043 62.231 -0.63417 9.57861 62.4115 
0.831588 9.32583 63.0086 0.562312 9.76959 62.4895 1.09804 9.34952 62.4571 
-5.09846 8.28425 63.2379 -3.28285 8.39302 62.9785 -3.84016 8.47275 62.3168 
-2.09494 9.01461 62.5155 -2.31825 8.65869 63.1171 -1.19451 9.08857 62.4821 
1.12073 8.6086 62.5264 -7.25097 7.61958 62.8214 -7.07121 7.74879 62.4836 
-7.46792 7.50603 62.3941 -6.21702 7.87645 62.694 -5.35934 7.73065 62.8251 
-5.77375 7.2399 62.2511 -4.56932 7.59589 62.8989 -3.96766 7.66316 62.6606 
0.273385 7.53275 62.6197 0.736978 8.09885 62.4038 -7.17245 7.1461 62.5178 
-6.93395 6.50136 62.6857 -5.01373 7.11115 62.4168 -4.52486 7.13116 62.2332 
[...]
CELL_DATA 6656
SCALARS scalars float
LOOKUP_TABLE default
2026 2026 2026 2026 2026 2026 2026 2026 2026 
2026 2026 2026 2026 2026 2026 2026 2026 2026 
2026 2026 2026 2026 2026 2026 2026 2026 2026 
2026 2026 2026 2026 2026 2026 2026 2026 2026 
2026 2026 2026 2026 2026 2026 2026 2026 2026 
2026 2026 2026 2026 2026 2026 2026 2026 2026 
2026 2026 2026 2026 2026 2026 2026 2026 2026 
2026 2026 2026 2026 2026 2026 2026 2026 2026 
2026 2026 2026 2026 2026 2026 2026 2026 2026 
2026 2026 2026 2026 2026 2026 2026 2026 2026 
2026 2026 2026 2026 2026 2026 2026 2026 2026 
2026 2026 2026 2026 2026 2026 2026 2026 2026 
2026 2026 2026 2026 2026 2026 2026 2026 2026 
2026 2026 2026 2026 2026 2026 2026 2026 2026 
2026 2026 2026 2026 2026 2026 2026 2026 2026 
2026 2026 2026 2026 2026 2026 2026 2026 2026 
2026 2026 2026 2026 2026 2026 2026 2026 2026 
2026 2026 2026 2026 2026 2026 2026 2026 2026 
2026 2026 2026 2026 2026 2026 2026 2026 2026 
2026 2026 2026 2026 2026 2026 2026 2026 2026 
2026 2026 2026 2026 2026 2026 2026 2026 2026 
2026 2026 2026 2026 2026 2026 2026 2026 2026 
2026 2026 2026 2026 2026 2026 2026 2026 2026 
2026 2026 2026 2026 2026 2026 2026 2026 2026 
2026 2026 2026 2026 2026 2026 2026 2026 2026 
2026 2026 2026 2026 2026 2026 2026 2026 2026 
2026 2026 2026 2026 2026 2026 2026 2026 2026 
2026 2026 2026 2026 2026 2026 2026 2026 2026 
2026 2026 2026 2026 2026 2026 2026 2026 2026 
2026 2026 2026 2026 2026 2026 2026 2026 2026 
2026 2026 2026 2026 2026 2026 2026 2026 2026 
2026 2026 2026 2026 2026 2026 2026 2026 2026 
2026 2026 2026 2026 2026 2026 2026 2026 2026 
2026 2026 2026 2026 2026 2026 2026 2026 2026 
2026 2026 2026 2026 2026 2026 2026 2026 2026 
2026 2026 2026 2026 2026 2026 2026 2026 2026 
2026 2026 2026 2026 2026 2026 2026 2026 2026 
2026 2026 2026 2026 2026 2026 2026 2026 2026 
2026 2026 2026 2026 2026 2026 2026 2026 2026 
2026 2026 2026 2026 2026 2026 2026 2026 2026 
2026 2026 2026 2026 2026 2026 2026 2026 2026 
2026 2026 2026 2026 2026 2026 2026 2026 2026 
2026 2026 2026 2026 2026 2026 2026 2026 2026 
2026 2026 2026 2026 2026 2026 2026 2026 2026 
2026 2026 2026 2026 2026 2026 2026 2026 2026 
2026 2026 2026 2026 2026 2026 2026 2026 2026 
2026 2026 2026 2026 2026 2026 2026 2026 2026 
2026 2026 2026 2026 2026 2026 2026 2026 2026 
2026 2026 2026 2026 2026 2026 2026 2026 2026 
2026 2026 2026 2026 2026 2026 2026 2026 2026 
2026 2026 2026 2026 2026 2026 2026 2026 2026 
2026 2026 2026 2026 2026 2026 2026 2026 2026 
2026 2026 2026 2026 2026 2026 2026 2026 2026 
2026 2026 2026 2026 2026 2026 2026 2026 2026 
2026 2026 2026 2026 2026 2026 2026 2026 2026 
2026 2026 2026 2026 2026 2026 2026 2026 2026 
2026 2026 2026 2026 2026 2026 2026 2026 2026 
2026 2026 2026 2026 2026 2026 2026 2026 2026 
2026 2026 2026 2026 2026 2026 2026 2026 2026 
2026 2026 2026 2026 2026 2026 2026 2026 2026 
2026 2026 2026 2026 2026 2026 2026 2026 2026 
2026 2026 2026 2026 2026 2026 2026 2026 2026 
2026 2026 2026 2026 2026 2026 2026 2026 2026 
2026 2026 2026 2026 2026 2026 2026 2026 2026 
2026 2026 2026 2026 2026 2026 2026 2026 2026 
2026 2026 2026 2026 2026 2026 2026 2026 2026 
2026 2026 2026 2026 2026 2026 2026 2026 2026 
2026 2026 2026 2026 2026 2026 2026 2026 2026 
2026 2026 2026 2026 2026 2026 2026 2026 2026 
2026 2026 2026 2026 2026 2026 2026 2026 2026 
2026 2026 2026 2026 2026 2026 2026 2026 2026 
2026 2026 2026 2026 2026 2026 2026 2026 2026 
2026 2026 2026 2026 2026 2026 2026 2026 2026 
2026 2026 2026 2026 2026 2026 2026 2026 2026 
2026 2026 2026 2026 2026 2026 2026 2026 2026 
2026 2026 2026 2026 2026 2026 2026 2026 2026 
2026 2026 2026 2026 2026 2026 2026 2026 2026 
2026 2026 2026 2026 2026 2026 2026 2026 2026 
2026 2026 2026 2026 2026 2026 2026 2026 2026 
2026 2026 2026 2026 2026 2026 2026 2026 2026 
2026 2026 2026 2026 2026 2026 2026 2026 2026 
2026 2026 2026 2026 2026 2026 2026 2026 2026 
2026 2026 2026 2026 2026 2026 2026 2026 2026 
2026 2026 2026 2026 2026 2026 2026 2026 2026 
2026 2026 2026 2026 2026 2026 2026 2026 2026 
2026 2026 2026 2026 2026 2026 2026 2026 2026 
2026 2026 2026 2026 2026 2026 2026 2026 2026 
2026 2026 2026 2026 2026 2026 2026 2026 2026 
2026 2026 2026 2026 2026 2026 2026 2026 2026 
2026 2026 2026 2026 2026 2026 2026 2026 2026 
2026 2026 2026 2026 2026 2026 2026 2026 2026 
2026 2026 2026 2026 2026 2026 2026 2026 2026 
2026 2026 2026 2026 2026 2026 2026 2026 2026 
2026 2026 2026 2026 2026 2026 2026 2026 2026 
2026 2026 2026 2026 2026 2026 2026 2026 2026 
2026 2026 2026 2026 2026 2026 2026 2026 2026 
2026 2026 2026 2026 2026 2026 2026 2026 2026 
2026 2026 2026 2026 2026 2026 2026 2026 2026 
2026 2026 2026 2026 2026 2026 2026 2026 2026 
2026 2026 2026 2026 2026 2026 2026 2026 2026 
2026 2026 2026 2026 2026 2026 2026 2026 2026 
2026 2026 2026 2026 2026 2026 2026 2026 2026 
2026 2026 2026 2026 2026 2026 2026 2026 2026 
2026 2026 2026 2026 2026 2026 2026 2026 2026 
2026 2026 2026 2026 2026 2026 2026 2026 2026 
2026 2026 2026 2026 2026 2026 2026 2026 2026 
2026 2026 2026 2026 2026 2026 2026 2026 2026 
2026 2026 2026 2026 2026 2026 2026 2026 2026 
2026 2026 2026 2026 2026 2026 2026 2026 2026 
2026 2026 2026 2026 2026 2026 2026 2026 2026 
2026 2026 2026 2026 2026 2026 2026 2026 2026 
2026 2026 2026 2026 2026 2026 2026 2026 2026 
2026 2026 2026 2026 2026 2026 2026 2026 2026 
2026 2026 2026 2026 2026 2026 2026 2026 2026 
2026 2026 2026 2026 2026 2026 2026 2026 2026 
2026 2026 2026 2026 2026 2026 2026 2026 2026 
2026 2026 2026 2026 2026 2026 2026 2026 2026 
2026 2026 2026 2026 2026 2026 2026 2026 2026 
2026 2026 2026 2026 2026 2026 2026 2026 2026 
2026 2026 2026 2026 2026 2026 2026 2026 2026 
2026 2026 2026 2026 2026 2026 2026 2026 2026 
2026 2026 2026 2026 2026 2026 2026 2026 2026 
2026 2026 2026 2026 2026 2026 2026 2026 2026 
2026 2026 2026 2026 2026 2026 2026 2026 2026 
2026 2026 2026 2026 2026 2026 2026 2026 2026 
2026 2026 2026 2026 2026 2026 2026 2026 2026 
2026 2026 2026 2026 2026 2026 2026 2026 2026 
2026 2026 2026 2026 2026 2026 2026 2026 2026 
2026 2026 2026 2026 2026 2026 2026 2026 2026 
2026 2026 2026 2026 2026 2026 2026 2026 2026 
2026 2026 2026 2026 2026 2026 2026 2026 2026 
2026 2026 2026 2026 2026 2026 2026 2026 2026 
2026 2026 2026 2026 2026 2026 2026 2026 2026 
2026 2026 2026 2026 2026 2026 2026 2026 2026 
2026 2026 2026 2026 2026 2026 2026 2026 2026 
2026 2026 2026 2026 2026 2026 2026 2026 2026 
2026 2026 2026 2026 2026 2026 2026 2026 2026 
2026 2026 2026 2026 2026 2026 2026 2026 2026 
2026 2026 2026 2026 2026 2026 2026 2026 2026 
2026 2026 2026 2026 2026 2026 2026 2026 2026 
2026 2026 2026 2026 2026 2026 2026 2026 2026 
2026 2026 2026 2026 2026 2026 2026 2026 2026 
2026 2026 2026 2026 2026 2026 2026 2026 2026 
2026 2026 2026 2026 2026 2026 2026 2026 2026 
2026 2026 2026 2026 2026 2026 2026 2026 2026 
2026 2026 2026 2026 2026 2026 2026 2026 2026 
2026 2026 2026 2026 2026 2026 2026 2026 2026 
2026 2026 2026 2026 2026 2026 2026 2026 2026 
2026 2026 2026 2026 2026 2026 2026 2026 2026 
2026 2026 2026 2026 2026 2026 2026 2026 2026 
2026 2026 2026 2026 2026 2026 2026 2026 2026 
2026 2026 2026 2026 2026 2026 2026 2026 2026 
2026 2026 2026 2026 2026 2026 2026 2026 2026 
2026 2026 2026 2026 2026 2026 2026 2026 2026 
2026 2026 2026 2026 2026 2026 2026 2026 2026 
2026 2026 2026 2026 2026 2026 2026 2026 2026 
2026 2026 2026 2026 2026 2026 2026 2026 2026 
2026 2026 2026 2026 2026 2026 2026 2026 2026 
2026 2026 2026 2026 2026 2026 2026 2026 2026 
2026 2026 2026 2026 2026 2026 2026 2026 2026 
2026 2026 2026 2026 2026 2026 2026 2026 2026 
2026 2026 2026 2026 2026 2026 2026 2026 2026 
2026 2026 2026 2026 2026 2026 2026 2026 2026 
2026 2026 2026 2026 2026 2026 2026 2026 2026 
2026 2026 2026 2026 2026 2026 2026 2026 2026 
2026 2026 2026 2026 2026 2026 2026 2026 2026 
2026 2026 2026 2026 2026 2026 2026 2026 2026 
2026 2026 2026 2026 2026 2026 2026 2026 2026 
2026 2026 2026 2026 2026 2026 2026 2026 2026 
2026 2026 2026 2026 2026 2026 2026 2026 2026 
2026 2026 2026 2026 2026 2026 2026 2026 2026 
2026 2026 2026 2026 2026 2026 2026 2026 2026 
2026 2026 2026 2026 2026 2026 2026 2026 2026 
2026 2026 2026 2026 2026 2026 2026 2026 2026 
2026 2026 2026 2026 2026 2026 2026 2026 2026 
2026 2026 2026 2026 2026 2026 2026 2026 2026 
2026 2026 2026 2026 2026 2026 2026 2026 2026 
2026 2026 2026 2026 2026 2026 2026 2026 2026 
2026 2026 2026 2026 2026 2026 2026 2026 2026 
2026 2026 2026 2026 2026 2026 2026 2026 2026 
2026 2026 2026 2026 2026 2026 2026 2026 2026 
2026 2026 2026 2026 2026 2026 2026 2026 2026 
2026 2026 2026 2026 2026 2026 2026 2026 2026 
2026 2026 2026 2026 2026 2026 2026 2026 2026 
2026 2026 2026 2026 2026 2026 2026 2026 2026 
2026 2026 2026 2026 2026 2026 2026 2026 2026 
2026 2026 2026 2026 2026 2026 2026 2026 2026 
2026 2026 2026 2026 2026 2026 2026 2026 2026 
2026 2026 2026 2026 2026 2026 2026 2026 2026 
2026 2026 2026 2026 2026 2026 2026 2026 2026 
2026 2026 2026 2026 2026 2026 2026 2026 2026 
2026 2026 2026 2026 2026 2026 2026 2026 2026 
2026 2026 2026 2026 2026 2026 2026 2026 2026 
2026 2026 2026 2026 2026 2026 2026 2026 2026 
2026 2026 2026 2026 2026 2026 2026 2026 2026 
2026 2026 2026 2026 2026 2026 2026 2026 2026 
2026 2026 2026 2026 2026 2026 2026 2026 2026 
2026 2026 2026 2026 2026 2026 2026 2026 2026 
2026 2026 2026 2026 2026 2026 2026 2026 2026 
2026 2026 2026 2026 2026 2026 2026 2026 2026 
2026 2026 2026 2026 2026 2026 2026 2026 2026 
2026 2026 2026 2026 2026 2026 2026 2026 2026 
2026 2026 2026 2026 2026 2026 2026 2026 2026 
2026 2026 2026 2026 2026 2026 2026 2026 2026 
2026 2026 2026 2026 2026 2026 2026 2026 2026 
2026 2026 2026 2026 2026 2026 2026 2026 2026 
2026 2026 2026 2026 2026 2026 2026 2026 2026 
2026 2026 2026 2026 2026 2026 2026 2026 2026 
2026 2026 2026 2026 2026 2026 2026 2026 2026 
2026 2026 2026 2026 2026 2026 2026 2026 2026 
2026 2026 2026 2026 2026 2026 2026 2026 2026 
2026 2026 2026 2026 2026 2026 2026 2026 2026 
2026 2026 2026 2026 2026 2026 2026 2026 2026 
2026 2026 2026 2026 2026 2026 2026 2026 2026 
2026 2026 2026 2026 2026 2026 2026 2026 2026 
2026 2026 2026 2026 2026 2026 2026 2026 2026 
2026 2026 2026 2026 2026 2026 2026 2026 2026 
2026 2026 2026 2026 2026 2026 2026 2026 2026 
2026 2026 2026 2026 2026 2026 2026 2026 2026 
2026 2026 2026 2026 2026 2026 2026 2026 2026 
2026 2026 2026 2026 2026 2026 2026 2026 2026 
2026 2026 2026 2026 2026 2026 2026 2026 2026 
2026 2026 2026 2026 2026 2026 2026 2026 2026 
2026 2026 2026 2026 2026 2026 2026 2026 2026 
2026 2026 2026 2026 2026 2026 2026 2026 2026 
2026 2026 2026 2026 2026 2026 2026 2026 2026 
2026 2026 2026 2026 2026 2026 2026 2026 2026 
2026 2026 2026 2026 2026 2026 2026 2026 2026 
2026 2026 2026 2026 2026 2026 2026 2026 2026 
2026 2026 2026 2026 2026 2026 2026 2026 2026 
2026 2026 2026 2026 2026 2026 2026 2026 2026 
2026 2026 2026 2026 2026 2026 2026 2026 2026 
2026 2026 2026 2026 2026 2026 2026 2026 2026 
2026 2026 2026 2026 2026 2026 2026 2026 2026 
2026 2026 2026 2026 2026 2026 2026 2026 2026 
2026 2026 2026 2026 2026 2026 2026 2026 2026 
2026 2026 2026 2026 2026 2026 2026 2026 2026 
2026 2026 2026 2026 2026 2026 2026 2026 2026 
2026 2026 2026 2026 2026 2026 2026 2026 2026 
2026 2026 2026 2026 2026 2026 2026 2026 2026 
2026 2026 2026 2026 2026 2026 2026 2026 2026 
2026 2026 2026 2026 2026 2026 2026 2026 2026 
2026 2026 2026 2026 2026 2026 2026 2026 2026 
2026 2026 2026 2026 2026 2026 2026 2026 2026 
2026 2026 2026 2026 2026 2026 2026 2026 2026 
2026 2026 2026 2026 2026 2026 2026 2026 2026 
2026 2026 2026 2026 2026 2026 2026 2026 2026 
2026 2026 2026 2026 2026 2026 2026 2026 2026 
2026 2026 2026 2026 2026 2026 2026 2026 2026 
2026 2026 2026 2026 2026 2026 2026 2026 2026 
2026 2026 2026 2026 2026 2026 2026 2026 2026 
2026 2026 2026 2026 2026 2026 2026 2026 2026 
2026 2026 2026 2026 2026 2026 2026 2026 2026 
2026 2026 2026 2026 2026 2026 2026 2026 2026 
2026 2026 2026 2026 2026 2026 2026 2026 2026 
2026 2026 2026 2026 2026 2026 2026 2026 2026 
2026 2026 2026 2026 2026 2026 2026 2026 2026 
2026 2026 2026 2026 2026 2026 2026 2026 2026 
2026 2026 2026 2026 2026 2026 2026 2026 2026 
2026 2026 2026 2026 2026 2026 2026 2026 2026 
2026 2026 2026 2026 2026 2026 2026 2026 2026 
2026 2026 2026 2026 2026 2026 2026 2026 2026 
2026 2026 2026 2026 2026 2026 2026 2026 2026 
2026 2026 2026 2026 2026 2026 2026 2026 2026 
2026 2026 2026 2026 2026 2026 2026 2026 2026 
2026 2026 2026 2026 2026 2026 2026 2026 2026 
2026 2026 2026 2026 2026 2026 2026 2026 2026 
2026 2026 2026 2026 2026 2026 2026 2026 2026 
2026 2026 2026 2026 2026 2026 2026 2026 2026 
2026 2026 2026 2026 2026 2026 2026 2026 2026 
2026 2026 2026 2026 2026 2026 2026 2026 2026 
2026 2026 2026 2026 2026 2026 2026 2026 2026 
2026 2026 2026 2026 2026 2026 2026 2026 2026 
2026 2026 2026 2026 2026 2026 2026 2026 2026 
2026 2026 2026 2026 2026 2026 2026 2026 2026 
2026 2026 2026 2026 2026 2026 2026 2026 2026 
2026 2026 2026 2026 2026 2026 2026 2026 2026 
2026 2026 2026 2026 2026 2026 2026 2026 2026 
2026 2026 2026 2026 2026 2026 2026 2026 2026 
2026 2026 2026 2026 2026 2026 2026 2026 2026 
2026 2026 2026 2026 2026 2026 2026 2026 2026 
2026 2026 2026 2026 2026 2026 2026 2026 2026 
2026 2026 2026 2026 2026 2026 2026 2026 2026 
2026 2026 2026 2026 2026 2026 2026 2026 2026 
2026 2026 2026 2026 2026 2026 2026 2026 2026 
2026 2026 2026 2026 2026 2026 2026 2026 2026 
2026 2026 2026 2026 2026 2026 2026 2026 2026 
2026 2026 2026 2026 2026 2026 2026 2026 2026 
2026 2026 2026 2026 2026 2026 2026 2026 2026 
2026 2026 2026 2026 2026 2026 2026 2026 2026 
2026 2026 2026 2026 2026 2026 2026 2026 2026 
2026 2026 2026 2026 2026 2026 2026 2026 2026 
2026 2026 2026 2026 2026 2026 2026 2026 2026 
2026 2026 2026 2026 2026 2026 2026 2026 2026 
2026 2026 2026 2026 2026 2026 2026 2026 2026 
2026 2026 2026 2026 2026 2026 2026 2026 2026 
2026 2026 2026 2026 2026 2026 2026 2026 2026 
2026 2026 2026 2026 2026 2026 2026 2026 2026 
2026 2026 2026 2026 2026 2026 2026 2026 2026 
2026 2026 2026 2026 2026 2026 2026 2026 2026 
2026 2026 2026 2026 2026 2026 2026 2026 2026 
2026 2026 2026 2026 2026 2026 2026 2026 2026 
2026 2026 2026 2026 2026 2026 2026 2026 2026 
2026 2026 2026 2026 2026 2026 2026 2026 2026 
2026 2026 2026 2026 2026 2026 2026 2026 2026 
2026 2026 2026 2026 2026 2026 2026 2026 2026 
2026 2026 2026 2026 2026 2026 2026 2026 2026 
2026 2026 2026 2026 2026 2026 2026 2026 2026 
2026 2026 2026 2026 2026 2026 2026 2026 2026 
2026 2026 2026 2026 2026 2026 2026 2026 2026 
2026 2026 2026 2026 2026 2026 2026 2026 2026 
2026 2026 2026 2026 2026 2026 2026 2026 2026 
2026 2026 2026 2026 2026 2026 2026 2026 2026 
2026 2026 2026 2026 2026 2026 2026 2026 2026 
2026 2026 2026 2026 2026 2026 2026 2026 2026 
2026 2026 2026 2026 2026 2026 2026 2026 2026 
2026 2026 2026 2026 2026 2026 2026 2026 2026 
2026 2026 2026 2026 2026 2026 2026 2026 2026 
2026 2026 2026 2026 2026 2026 2026 2026 2026 
2026 2026 2026 2026 2026 2026 2026 2026 2026 
2026 2026 2026 2026 2026 2026 2026 2026 2026 
2026 2026 2026 2026 2026 2026 2026 2026 2026 
2026 2026 2026 2026 2026 2026 2026 2026 2026 
2026 2026 2026 2026 2026 2026 2026 2026 2026 
2026 2026 2026 2026 2026 2026 2026 2026 2026 
2026 2026 2026 2026 2026 2026 2026 2026 2026 
2026 2026 2026 2026 2026 2026 2026 2026 2026 
2026 2026 2026 2026 2026 2026 2026 2026 2026 
2026 2026 2026 2026 2026 2026 2026 2026 2026 
2026 2026 2026 2026 2026 2026 2026 2026 2026 
2026 2026 2026 2026 2026 2026 2026 2026 2026 
2026 2026 2026 2026 2026 2026 2026 2026 2026 
2026 2026 2026 2026 2026 2026 2026 2026 2026 
2026 2026 2026 2026 2026 2026 2026 2026 2026 
2026 2026 2026 2026 2026 2026 2026 2026 2026 
2026 2026 2026 2026 2026 2026 2026 2026 2026 
2026 2026 2026 2026 2026 2026 2026 2026 2026 
2026 2026 2026 2026 2026 2026 2026 2026 2026 
2026 2026 2026 2026 2026 2026 2026 2026 2026 
2026 2026 2026 2026 2026 2026 2026 2026 2026 
2026 2026 2026 2026 2026 2026 2026 2026 2026 
2026 2026 2026 2026 2026 2026 2026 2026 2026 
2026 2026 2026 2026 2026 2026 2026 2026 2026 
2026 2026 2026 2026 2026 2026 2026 2026 2026 
2026 2026 2026 2026 2026 2026 2026 2026 2026 
2026 2026 2026 2026 2026 2026 2026 2026 2026 
2026 2026 2026 2026 2026 2026 2026 2026 2026 
2026 2026 2026 2026 2026 2026 2026 2026 2026 
2026 2026 2026 2026 2026 2026 2026 2026 2026 
2026 2026 2026 2026 2026 2026 2026 2026 2026 
2026 2026 2026 2026 2026 2026 2026 2026 2026 
2026 2026 2026 2026 2026 2026 2026 2026 2026 
2026 2026 2026 2026 2026 2026 2026 2026 2026 
2026 2026 2026 2026 2026 2026 2026 2026 2026 
2026 2026 2026 2026 2026 2026 2026 2026 2026 
2026 2026 2026 2026 2026 2026 2026 2026 2026 
2026 2026 2026 2026 2026 2026 2026 2026 2026 
2026 2026 2026 2026 2026 2026 2026 2026 2026 
2026 2026 2026 2026 2026 2026 2026 2026 2026 
2026 2026 2026 2026 2026 2026 2026 2026 2026 
2026 2026 2026 2026 2026 2026 2026 2026 2026 
2026 2026 2026 2026 2026 2026 2026 2026 2026 
2026 2026 2026 2026 2026 2026 2026 2026 2026 
2026 2026 2026 2026 2026 2026 2026 2026 2026 
2026 2026 2026 2026 2026 2026 2026 2026 2026 
2026 2026 2026 2026 2026 2026 2026 2026 2026 
2026 2026 2026 2026 2026 2026 2026 2026 2026 
2026 2026 2026 2026 2026 2026 2026 2026 2026 
2026 2026 2026 2026 2026 2026 2026 2026 2026 
2026 2026 2026 2026 2026 2026 2026 2026 2026 
2026 2026 2026 2026 2026 2026 2026 2026 2026 
2026 2026 2026 2026 2026 2026 2026 2026 2026 
2026 2026 2026 2026 2026 2026 2026 2026 2026 
2026 2026 2026 2026 2026 2026 2026 2026 2026 
2026 2026 2026 2026 2026 2026 2026 2026 2026 
2026 2026 2026 2026 2026 2026 2026 2026 2026 
2026 2026 2026 2026 2026 2026 2026 2026 2026 
2026 2026 2026 2026 2026 2026 2026 2026 2026 
2026 2026 2026 2026 2026 2026 2026 2026 2026 
2026 2026 2026 2026 2026 2026 2026 2026 2026 
2026 2026 2026 2026 2026 2026 2026 2026 2026 
2026 2026 2026 2026 2026 2026 2026 2026 2026 
2026 2026 2026 2026 2026 2026 2026 2026 2026 
2026 2026 2026 2026 2026 2026 2026 2026 2026 
2026 2026 2026 2026 2026 2026 2026 2026 2026 
2026 2026 2026 2026 2026 2026 2026 2026 2026 
2026 2026 2026 2026 2026 2026 2026 2026 2026 
2026 2026 2026 2026 2026 2026 2026 2026 2026 
2026 2026 2026 2026 2026 2026 2026 2026 2026 
2026 2026 2026 2026 2026 2026 2026 2026 2026 
2026 2026 2026 2026 2026 2026 2026 2026 2026 
2026 2026 2026 2026 2026 2026 2026 2026 2026 
2026 2026 2026 2026 2026 2026 2026 2026 2026 
2026 2026 2026 2026 2026 2026 2026 2026 2026 
2026 2026 2026 2026 2026 2026 2026 2026 2026 
2026 2026 2026 2026 2026 2026 2026 2026 2026 
2026 2026 2026 2026 2026 2026 2026 2026 2026 
2026 2026 2026 2026 2026 2026 2026 2026 2026 
2026 2026 2026 2026 2026 2026 2026 2026 2026 
2026 2026 2026 2026 2026 2026 2026 2026 2026 
2026 2026 2026 2026 2026 2026 2026 2026 2026 
2026 2026 2026 2026 2026 2026 2026 2026 2026 
2026 2026 2026 2026 2026 2026 2026 2026 2026 
2026 2026 2026 2026 2026 2026 2026 2026 2026 
2026 2026 2026 2026 2026 2026 2026 2026 2026 
2026 2026 2026 2026 2026 2026 2026 2026 2026 
2026 2026 2026 2026 2026 2026 2026 2026 2026 
2026 2026 2026 2026 2026 2026 2026 2026 2026 
2026 2026 2026 2026 2026 2026 2026 2026 2026 
2026 2026 2026 2026 2026 2026 2026 2026 2026 
2026 2026 2026 2026 2026 2026 2026 2026 2026 
2026 2026 2026 2026 2026 2026 2026 2026 2026 
2026 2026 2026 2026 2026 2026 2026 2026 2026 
2026 2026 2026 2026 2026 2026 2026 2026 2026 
2026 2026 2026 2026 2026 2026 2026 2026 2026 
2026 2026 2026 2026 2026 2026 2026 2026 2026 
2026 2026 2026 2026 2026 2026 2026 2026 2026 
2026 2026 2026 2026 2026 2026 2026 2026 2026 
2026 2026 2026 2026 2026 2026 2026 2026 2026 
2026 2026 2026 2026 2026 2026 2026 2026 2026 
2026 2026 2026 2026 2026 2026 2026 2026 2026 
2026 2026 2026 2026 2026 2026 2026 2026 2026 
2026 2026 2026 2026 2026 2026 2026 2026 2026 
2026 2026 2026 2026 2026 2026 2026 2026 2026 
2026 2026 2026 2026 2026 2026 2026 2026 2026 
2026 2026 2026 2026 2026 2026 2026 2026 2026 
2026 2026 2026 2026 2026 2026 2026 2026 2026 
2026 2026 2026 2026 2026 2026 2026 2026 2026 
2026 2026 2026 2026 2026 2026 2026 2026 2026 
2026 2026 2026 2026 2026 2026 2026 2026 2026 
2026 2026 2026 2026 2026 2026 2026 2026 2026 
2026 2026 2026 2026 2026 2026 2026 2026 2026 
2026 2026 2026 2026 2026 2026 2026 2026 2026 