# vtk DataFile Version 4.2
vtk output
ASCII
DATASET POLYDATA
POINTS 19824 float
56.3778 -7.2769 55.5417 56.4599 -7.62313 55.7517 56.6015 -7.62523 55.2749 
55.8819 -7.71164 55.5607 56.2642 -7.52618 55.0965 55.2554 -8.04539 56.3975 
55.1372 -8.74449 56.8566 55.6786 -8.52465 56.5854 54.473 -8.11741 56.2534 
54.4775 -8.36449 56.7912 54.0466 -8.59593 56.6231 56.1915 -8.46538 56.0569 
56.6921 -8.22828 55.5416 55.1008 -7.94157 55.7542 54.7462 -8.53225 55.4856 
54.2116 -8.74312 56.0617 56.3503 -7.98781 54.3952 56.7411 -8.41921 54.5998 
55.8348 -8.3186 54.4418 55.3212 -8.43818 54.9779 56.4369 -8.29272 53.6726 
56.7051 -8.65436 53.5426 55.9997 -8.62584 53.4288 56.3308 -8.49993 53.1326 
58.0098 -8.07296 51.3726 58.0691 -8.61091 51.8171 58.5618 -8.45804 51.1621 
57.3542 -8.16658 51.3035 57.5451 -8.35302 51.8673 56.932 -8.74747 51.6459 
58.3668 -8.03256 50.6668 58.6943 -8.38126 50.3362 57.6845 -8.0927 50.4508 
56.8486 -8.67079 50.8458 58.2966 -8.18597 49.7852 58.7146 -8.61274 49.495 
57.6808 -8.58729 49.369 57.1362 -8.51857 50.0322 58.2535 -8.60827 49.0124 
55.2689 -9.65854 56.8833 55.8048 -9.37792 56.447 54.4818 -9.37909 57.0683 
53.9606 -9.46892 56.7189 56.2598 -9.59282 55.8403 56.6735 -9.28358 55.2819 
54.6124 -9.29262 55.4512 54.2692 -9.71051 55.9759 56.9915 -9.27761 54.2948 
55.423 -9.10906 54.2592 54.9747 -9.61004 54.588 57.1372 -9.11798 53.4052 
57.3485 -9.82906 53.9186 57.5821 -9.49799 53.2533 55.5333 -9.26003 53.6702 
55.2974 -9.59026 53.9342 57.3242 -9.01309 52.3992 57.7573 -9.68288 52.6627 
56.19 -8.93829 52.6823 55.3796 -9.28845 53.0274 55.0984 -9.13954 52.4727 
54.4662 -9.2434 52.2108 54.5686 -9.50433 52.8925 53.9681 -9.82472 52.5888 
58.4371 -9.03184 51.3625 58.0122 -9.44619 51.8689 56.3182 -9.30877 51.8227 
56.5033 -9.32594 51.3715 56.0137 -9.47649 51.3242 55.3825 -9.1571 51.5207 
54.5811 -9.46819 51.4027 54.1276 -9.59006 51.8939 58.4106 -9.61873 51.2331 
58.8446 -9.26202 50.5306 56.3269 -9.40562 51.0809 56.2656 -8.99488 50.4612 
55.539 -9.15634 50.2729 54.9973 -9.44178 50.7409 59.1791 -9.06971 49.3435 
59.3752 -9.78353 49.9017 59.622 -9.47014 49.1787 56.9206 -8.87165 49.4203 
56.1533 -9.06857 49.4481 55.681 -9.43724 49.5052 55.2573 -9.76747 50.0083 
59.3677 -9.18327 48.6441 59.6379 -9.76774 48.5713 58.69 -9.01911 48.5967 
57.9046 -9.18661 48.6076 57.2269 -9.24086 48.7853 56.7657 -9.67134 48.2589 
56.5309 -9.23963 48.7364 55.968 -9.57625 48.7824 59.1213 -9.47821 48.1814 
58.3854 -9.64121 48.0787 56.2152 -9.73008 48.2756 54.1806 -10.0176 57.3903 
54.3515 -10.7107 57.7299 54.6248 -10.3848 57.4752 53.8407 -10.602 57.418 
55.1769 -10.6155 57.035 55.6565 -10.3383 56.5196 53.9703 -10.3074 56.5103 
56.4116 -10.1458 55.3392 56.0527 -10.4314 55.8358 54.7098 -10.2628 55.3431 
54.3568 -10.7792 55.9423 56.3797 -10.7214 55.2287 56.8404 -10.3876 54.7166 
54.6509 -10.7408 54.7766 57.338 -10.8042 54.0198 57.6796 -10.2458 53.3405 
54.9577 -9.79601 53.5749 54.4857 -10.3468 53.9931 54.2783 -10.0131 53.3128 
53.8529 -10.5319 53.294 57.9252 -10.438 52.433 53.7179 -10.4488 52.5031 
58.2125 -10.1004 51.616 58.2834 -10.8468 51.8638 58.5971 -10.2886 51.1875 
56.2398 -9.67429 51.4575 54.2797 -10.0032 51.2973 53.8839 -10.4082 51.8246 
59.0448 -10.4137 50.6305 54.7476 -10.3069 50.5088 54.2403 -10.8512 50.9994 
59.4372 -10.585 50.1746 59.7521 -10.3676 49.4616 55.5788 -10.3002 49.172 
55.1955 -10.5649 49.7486 59.8123 -10.5916 48.5566 57.5256 -9.71027 48.1926 
55.8939 -10.4368 48.3133 59.1458 -10.1581 47.9032 58.1156 -10.0378 47.465 
58.8513 -10.6256 47.1337 57.0922 -10.0851 47.4985 56.3493 -10.366 47.8027 
56.6508 -10.6337 47.2044 58.3035 -10.1303 46.6474 58.6339 -10.4697 46.3097 
57.6157 -10.1184 46.4449 56.9447 -10.6113 46.5439 58.2417 -10.1817 45.8225 
58.615 -10.7841 45.3881 57.7192 -10.3117 45.5594 57.2123 -10.5726 45.8106 
58.1381 -10.4654 45.1583 53.4121 -11.1997 58.2523 53.2988 -11.4431 58.6815 
53.5538 -11.4634 58.5764 53.1164 -11.4455 58.4841 54.0325 -11.5814 58.0727 
54.8163 -11.2467 57.5597 53.3956 -11.1552 57.4673 52.8995 -11.5903 57.922 
55.3279 -11.7843 57.0103 55.8019 -11.272 56.3314 53.8448 -11.384 56.555 
53.1066 -11.8309 57.0868 56.215 -11.1514 55.6238 56.2721 -11.864 55.8571 
56.5891 -11.3373 55.1976 54.6031 -11.2813 55.404 54.3019 -11.6901 55.8227 
57.017 -11.4469 54.6289 54.1901 -11.5602 54.9979 53.9444 -10.9737 54.3158 
53.2409 -11.2166 54.235 53.505 -11.5139 54.7182 53.03 -11.7222 54.4526 
57.3871 -11.6324 54.1631 57.6956 -11.3758 53.4601 53.4112 -11.0932 53.5348 
52.9644 -11.6209 53.7997 58.0091 -11.4656 52.6166 53.6177 -11.1623 52.5145 
53.27 -11.7895 53.0369 58.3593 -11.5926 52.1284 58.799 -11.3644 51.416 
53.8797 -11.5138 51.5786 59.2554 -11.1062 50.6744 59.3009 -11.8619 50.9312 
59.6291 -11.289 50.2358 54.5993 -11.3589 50.4148 54.2406 -11.8414 50.9072 
59.9641 -11.4076 49.4412 55.3662 -11.0983 49.2536 55.027 -11.3896 49.7554 
60.199 -11.1194 48.4465 60.3638 -11.7972 48.9386 60.6118 -11.4587 48.2421 
55.6823 -11.4387 48.6812 55.3938 -11.7155 49.1764 60.3367 -11.2256 47.7428 
60.659 -11.7957 47.4304 59.6716 -10.9348 47.6729 56.3542 -11.0671 47.2806 
56.0368 -11.3772 47.7748 59.9749 -11.5023 47.0805 59.3006 -11.3358 47.0002 
58.9538 -11.2723 46.2931 56.6566 -11.4589 46.7348 56.3649 -11.6719 47.1889 
58.9185 -11.6955 45.2686 57.4442 -10.8478 45.032 56.875 -11.4388 45.7172 
58.1456 -10.9189 44.6172 58.5714 -11.5258 44.5546 57.4873 -11.1933 44.3297 
56.9625 -11.6119 44.6668 57.935 -11.5937 44.0869 57.2407 -11.7155 44.0889 
53.2111 -11.7928 58.406 54.1944 -12.7881 57.9428 54.8348 -12.255 57.5468 
53.2735 -12.5986 58.1585 52.2694 -12.4665 58.0251 52.1548 -12.0433 57.5542 
51.4251 -12.2652 57.4285 51.409 -12.4809 57.7737 50.9058 -12.7986 57.4322 
55.354 -12.7761 57.0048 55.8109 -12.3045 56.4695 53.6036 -12.3284 56.4943 
53.1077 -12.5428 56.6945 52.1442 -12.3533 56.9892 51.2918 -12.441 57.1232 
56.3179 -12.7898 55.9968 56.8039 -12.2713 55.2994 54.2152 -12.0188 55.4112 
53.8043 -12.4087 55.8262 57.2437 -12.1166 54.6539 57.282 -12.8567 54.9164 
57.5824 -12.3269 54.2168 53.5029 -12.224 55.0361 52.9158 -12.5478 54.5095 
57.9125 -12.442 53.4261 52.8008 -12.5298 53.6155 58.2157 -12.1129 52.6402 
58.3058 -12.8669 52.9369 58.5791 -12.3044 52.2205 53.7883 -12.2648 52.2317 
53.3338 -12.7945 53.0042 58.9393 -12.5211 51.6279 54.0218 -12.317 51.4363 
59.2991 -12.8145 50.9922 59.6757 -12.2204 50.3485 54.7962 -12.3006 50.4003 
54.2905 -12.4612 51.0278 59.9801 -12.4808 49.6629 55.2691 -12.1322 49.5863 
55.6685 -12.491 49.3178 55.4016 -12.6848 49.993 60.3566 -12.7579 49.0453 
60.7217 -12.1958 48.3602 55.9663 -12.4873 48.4461 60.8656 -12.6093 47.6761 
56.2659 -12.1451 47.6055 56.61 -12.3693 47.2031 56.3617 -12.8998 47.9394 
60.2844 -11.9126 46.2976 60.9108 -12.482 46.6709 59.485 -11.7294 46.5161 
56.8026 -12.5147 46.4807 61.0866 -12.1224 45.6045 61.3738 -12.7705 45.8895 
61.6396 -12.4595 45.1879 60.5249 -12.1206 45.2283 59.5354 -12.0202 45.6888 
56.91 -12.5381 45.3718 61.3168 -12.2146 44.7318 61.6329 -12.7259 44.6729 
60.9667 -12.3974 44.5373 60.3728 -12.6948 44.9294 59.4093 -12.5563 44.9923 
58.876 -12.2717 44.6187 56.9944 -12.2551 44.4115 61.4035 -12.4656 44.3197 
58.4265 -12.5765 44.0973 57.5131 -12.4071 44.0945 54.1616 -13.7737 57.9023 
54.8471 -13.2635 57.5159 53.4618 -13.3986 58.0848 52.376 -13.4986 57.9654 
51.2878 -13.1633 57.8454 50.7798 -13.3871 57.5651 55.474 -13.8028 56.9951 
55.8968 -13.219 56.5121 53.3691 -12.8459 56.2114 52.6096 -13.0306 56.2768 
51.2974 -12.9548 56.6461 50.5743 -13.6083 57.128 50.4943 -13.2393 56.378 
49.8809 -13.796 56.5026 56.3804 -13.5897 56.1666 56.8246 -13.4452 55.6148 
53.1772 -12.9351 55.5201 52.7757 -13.6711 55.6548 52.0309 -13.5602 56.1813 
51.0995 -13.5304 55.9848 50.3486 -13.4057 56.0051 57.3236 -13.8109 55.0135 
57.6707 -13.2483 54.3325 52.6275 -13.361 54.4598 58.0324 -13.4519 53.6604 
52.1876 -13.457 53.9158 52.2377 -13.047 53.4765 51.3093 -13.5875 53.8233 
51.2463 -13.2167 53.4979 50.4526 -13.2837 53.4239 50.5017 -13.5035 53.7334 
49.9534 -13.8015 53.3808 58.3905 -13.6258 53.2 58.6776 -13.3999 52.4824 
54.1725 -13.0264 52.4983 54.6245 -13.5066 52.3153 54.1387 -13.6709 52.9078 
53.3875 -13.463 53.0699 52.3109 -13.4278 53.017 50.9502 -13.4014 53.0096 
50.2802 -13.4503 53.1095 58.9538 -13.5491 51.6412 54.4667 -12.9127 51.5397 
54.9556 -13.6796 51.6169 59.2968 -13.8035 50.9821 59.6506 -13.2163 50.3577 
55.1752 -13.1195 50.7513 55.6593 -13.3345 50.2029 55.3812 -13.8856 50.9325 
59.9592 -13.4922 49.6559 55.7354 -13.5645 49.5322 60.3257 -13.7674 49.0134 
60.7025 -13.2159 48.3917 55.8835 -13.4324 48.6695 60.8414 -13.472 47.519 
56.6472 -13.2434 47.3899 56.21 -13.5599 48.0861 60.9946 -13.5035 46.6441 
56.8491 -13.3867 46.4684 61.37 -13.7803 46.0038 61.6898 -13.4098 45.2185 
57.2486 -13.2441 45.6033 57.5473 -13.6192 45.2018 57.2059 -13.6408 45.9549 
61.1155 -13.3515 44.8002 61.2185 -12.7653 44.4955 60.1021 -13.328 44.8026 
59.2914 -13.0445 44.5067 59.8012 -13.5783 44.5368 57.2857 -12.9512 44.7514 
57.6581 -13.4365 44.0881 61.4374 -13.6025 43.9157 61.6213 -13.7955 43.3122 
61.3148 -13.3373 43.4293 60.9993 -13.8137 43.5232 59.3192 -13.5286 44.0103 
58.291 -13.1308 43.5464 58.7269 -13.5171 43.1379 57.5025 -13.293 43.3323 
57.2283 -13.5083 43.7032 57.0936 -13.5097 43.4623 61.2396 -13.6002 42.9648 
58.2236 -13.2335 42.7057 58.4851 -13.5979 42.4913 57.7575 -13.4736 42.6714 
57.239 -13.494 43.1446 58.2626 -13.4591 42.2678 51.1169 -13.079 26.2649 
51.3613 -13.8053 26.8458 51.9186 -13.3447 26.3595 50.0239 -13.0334 26.4209 
50.2622 -13.6194 26.8923 49.0403 -13.0228 26.4162 49.2757 -13.557 26.9272 
48.1027 -13.1145 26.2963 48.5472 -13.4308 26.8072 47.8595 -13.808 26.543 
53.1581 -13.2477 25.5556 53.3138 -13.4076 25.8378 53.7539 -13.6187 25.5222 
52.1935 -13.0998 25.516 52.6933 -13.3867 26.0535 51.1526 -12.8832 25.2994 
50.454 -12.8738 25.6276 49.6004 -13.0158 25.4659 48.4344 -13.0428 25.5563 
47.235 -13.5592 26.1033 47.1782 -13.0129 25.5379 46.053 -13.1032 25.2262 
46.5089 -13.4223 25.7776 45.8226 -13.7803 25.5079 53.188 -13.6584 25.1341 
[...]
CELL_DATA 39804
SCALARS scalars float
LOOKUP_TABLE default
2008 2008 2008 2008 2008 2008 2008 2008 2008 
2008 2008 2008 2008 2008 2008 2008 2008 2008 
2008 2008 2008 2008 2008 2008 2008 2008 2008 
2008 2008 2008 2008 2008 2008 2008 2008 2008 
2008 2008 2008 2008 2008 2008 2008 2008 2008 
2008 2008 2008 2008 2008 2008 2008 2008 2008 
2008 2008 2008 2008 2008 2008 2008 2008 2008 
2008 2008 2008 2008 2008 2008 2008 2008 2008 
2008 2008 2008 2008 2008 2008 2008 2008 2008 
2008 2008 2008 2008 2008 2008 2008 2008 2008 
2008 2008 2008 2008 2008 2008 2008 2008 2008 
2008 2008 2008 2008 2008 2008 2008 2008 2008 
2008 2008 2008 2008 2008 2008 2008 2008 2008 
2008 2008 2008 2008 2008 2008 2008 2008 2008 
2008 2008 2008 2008 2008 2008 2008 2008 2008 
2008 2008 2008 2008 2008 2008 2008 2008 2008 
2008 2008 2008 2008 2008 2008 2008 2008 2008 
2008 2008 2008 2008 2008 2008 2008 2008 2008 
2008 2008 2008 2008 2008 2008 2008 2008 2008 
2008 2008 2008 2008 2008 2008 2008 2008 2008 
2008 2008 2008 2008 2008 2008 2008 2008 2008 
2008 2008 2008 2008 2008 2008 2008 2008 2008 
2008 2008 2008 2008 2008 2008 2008 2008 2008 
2008 2008 2008 2008 2008 2008 2008 2008 2008 
2008 2008 2008 2008 2008 2008 2008 2008 2008 
2008 2008 2008 2008 2008 2008 2008 2008 2008 
2008 2008 2008 2008 2008 2008 2008 2008 2008 
2008 2008 2008 2008 2008 2008 2008 2008 2008 
2008 2008 2008 2008 2008 2008 2008 2008 2008 
2008 2008 2008 2008 2008 2008 2008 2008 2008 
2008 2008 2008 2008 2008 2008 2008 2008 2008 
2008 2008 2008 2008 2008 2008 2008 2008 2008 
2008 2008 2008 2008 2008 2008 2008 2008 2008 
2008 2008 2008 2008 2008 2008 2008 2008 2008 
2008 2008 2008 2008 2008 2008 2008 2008 2008 
2008 2008 2008 2008 2008 2008 2008 2008 2008 
2008 2008 2008 2008 2008 2008 2008 2008 2008 
2008 2008 2008 2008 2008 2008 2008 2008 2008 
2008 2008 2008 2008 2008 2008 2008 2008 2008 
2008 2008 2008 2008 2008 2008 2008 2008 2008 
2008 2008 2008 2008 2008 2008 2008 2008 2008 
2008 2008 2008 2008 2008 2008 2008 2008 2008 
2008 2008 2008 2008 2008 2008 2008 2008 2008 
2008 2008 2008 2008 2008 2008 2008 2008 2008 
2008 2008 2008 2008 2008 2008 2008 2008 2008 
2008 2008 2008 2008 2008 2008 2008 2008 2008 
2008 2008 2008 2008 2008 2008 2008 2008 2008 
2008 2008 2008 2008 2008 2008 2008 2008 2008 
2008 2008 2008 2008 2008 2008 2008 2008 2008 
2008 2008 2008 2008 2008 2008 2008 2008 2008 
2008 2008 2008 2008 2008 2008 2008 2008 2008 
2008 2008 2008 2008 2008 2008 2008 2008 2008 
2008 2008 2008 2008 2008 2008 2008 2008 2008 
2008 2008 2008 2008 2008 2008 2008 2008 2008 
2008 2008 2008 2008 2008 2008 2008 2008 2008 
2008 2008 2008 2008 2008 2008 2008 2008 2008 
2008 2008 2008 2008 2008 2008 2008 2008 2008 
2008 2008 2008 2008 2008 2008 2008 2008 2008 
2008 2008 2008 2008 2008 2008 2008 2008 2008 
2008 2008 2008 2008 2008 2008 2008 2008 2008 
2008 2008 2008 2008 2008 2008 2008 2008 2008 
2008 2008 2008 2008 2008 2008 2008 2008 2008 
2008 2008 2008 2008 2008 2008 2008 2008 2008 
2008 2008 2008 2008 2008 2008 2008 2008 2008 
2008 2008 2008 2008 2008 2008 2008 2008 2008 
2008 2008 2008 2008 2008 2008 2008 2008 2008 
2008 2008 2008 2008 2008 2008 2008 2008 2008 
2008 2008 2008 2008 2008 2008 2008 2008 2008 
2008 2008 2008 2008 2008 2008 2008 2008 2008 
2008 2008 2008 2008 2008 2008 2008 2008 2008 
2008 2008 2008 2008 2008 2008 2008 2008 2008 
2008 2008 2008 2008 2008 2008 2008 2008 2008 
2008 2008 2008 2008 2008 2008 2008 2008 2008 
2008 2008 2008 2008 2008 2008 2008 2008 2008 
2008 2008 2008 2008 2008 2008 2008 2008 2008 
2008 2008 2008 2008 2008 2008 2008 2008 2008 
2008 2008 2008 2008 2008 2008 2008 2008 2008 
2008 2008 2008 2008 2008 2008 2008 2008 2008 
2008 2008 2008 2008 2008 2008 2008 2008 2008 
2008 2008 2008 2008 2008 2008 2008 2008 2008 
2008 2008 2008 2008 2008 2008 2008 2008 2008 
2008 2008 2008 2008 2008 2008 2008 2008 2008 
2008 2008 2008 2008 2008 2008 2008 2008 2008 
2008 2008 2008 2008 2008 2008 2008 2008 2008 
2008 2008 2008 2008 2008 2008 2008 2008 2008 
2008 2008 2008 2008 2008 2008 2008 2008 2008 
2008 2008 2008 2008 2008 2008 2008 2008 2008 
2008 2008 2008 2008 2008 2008 2008 2008 2008 
2008 2008 2008 2008 2008 2008 2008 2008 2008 
2008 2008 2008 2008 2008 2008 2008 2008 2008 
2008 2008 2008 2008 2008 2008 2008 2008 2008 
2008 2008 2008 2008 2008 2008 2008 2008 2008 
2008 2008 2008 2008 2008 2008 2008 2008 2008 
2008 2008 2008 2008 2008 2008 2008 2008 2008 
2008 2008 2008 2008 2008 2008 2008 2008 2008 
2008 2008 2008 2008 2008 2008 2008 2008 2008 
2008 2008 2008 2008 2008 2008 2008 2008 2008 
2008 2008 2008 2008 2008 2008 2008 2008 2008 
2008 2008 2008 2008 2008 2008 2008 2008 2008 
2008 2008 2008 2008 2008 2008 2008 2008 2008 
2008 2008 2008 2008 2008 2008 2008 2008 2008 
2008 2008 2008 2008 2008 2008 2008 2008 2008 
2008 2008 2008 2008 2008 2008 2008 2008 2008 
2008 2008 2008 2008 2008 2008 2008 2008 2008 
2008 2008 2008 2008 2008 2008 2008 2008 2008 
2008 2008 2008 2008 2008 2008 2008 2008 2008 
2008 2008 2008 2008 2008 2008 2008 2008 2008 
2008 2008 2008 2008 2008 2008 2008 2008 2008 
2008 2008 2008 2008 2008 2008 2008 2008 2008 
2008 2008 2008 2008 2008 2008 2008 2008 2008 
2008 2008 2008 2008 2008 2008 2008 2008 2008 
2008 2008 2008 2008 2008 2008 2008 2008 2008 
2008 2008 2008 2008 2008 2008 2008 2008 2008 
2008 2008 2008 2008 2008 2008 2008 2008 2008 
2008 2008 2008 2008 2008 2008 2008 2008 2008 
2008 2008 2008 2008 2008 2008 2008 2008 2008 
2008 2008 2008 2008 2008 2008 2008 2008 2008 
2008 2008 2008 2008 2008 2008 2008 2008 2008 
2008 2008 2008 2008 2008 2008 2008 2008 2008 
2008 2008 2008 2008 2008 2008 2008 2008 2008 
2008 2008 2008 2008 2008 2008 2008 2008 2008 
2008 2008 2008 2008 2008 2008 2008 2008 2008 
2008 2008 2008 2008 2008 2008 2008 2008 2008 
2008 2008 2008 2008 2008 2008 2008 2008 2008 
2008 2008 2008 2008 2008 2008 2008 2008 2008 
2008 2008 2008 2008 2008 2008 2008 2008 2008 
2008 2008 2008 2008 2008 2008 2008 2008 2008 
2008 2008 2008 2008 2008 2008 2008 2008 2008 
2008 2008 2008 2008 2008 2008 2008 2008 2008 
2008 2008 2008 2008 2008 2008 2008 2008 2008 
2008 2008 2008 2008 2008 2008 2008 2008 2008 
2008 2008 2008 2008 2008 2008 2008 2008 2008 
2008 2008 2008 2008 2008 2008 2008 2008 2008 
2008 2008 2008 2008 2008 2008 2008 2008 2008 
2008 2008 2008 2008 2008 2008 2008 2008 2008 
2008 2008 2008 2008 2008 2008 2008 2008 2008 
2008 2008 2008 2008 2008 2008 2008 2008 2008 
2008 2008 2008 2008 2008 2008 2008 2008 2008 
2008 2008 2008 2008 2008 2008 2008 2008 2008 
2008 2008 2008 2008 2008 2008 2008 2008 2008 
2008 2008 2008 2008 2008 2008 2008 2008 2008 
2008 2008 2008 2008 2008 2008 2008 2008 2008 
2008 2008 2008 2008 2008 2008 2008 2008 2008 
2008 2008 2008 2008 2008 2008 2008 2008 2008 
2008 2008 2008 2008 2008 2008 2008 2008 2008 
2008 2008 2008 2008 2008 2008 2008 2008 2008 
2008 2008 2008 2008 2008 2008 2008 2008 2008 
2008 2008 2008 2008 2008 2008 2008 2008 2008 
2008 2008 2008 2008 2008 2008 2008 2008 2008 
2008 2008 2008 2008 2008 2008 2008 2008 2008 
2008 2008 2008 2008 2008 2008 2008 2008 2008 
2008 2008 2008 2008 2008 2008 2008 2008 2008 
2008 2008 2008 2008 2008 2008 2008 2008 2008 
2008 2008 2008 2008 2008 2008 2008 2008 2008 
2008 2008 2008 2008 2008 2008 2008 2008 2008 
2008 2008 2008 2008 2008 2008 2008 2008 2008 
2008 2008 2008 2008 2008 2008 2008 2008 2008 
2008 2008 2008 2008 2008 2008 2008 2008 2008 
2008 2008 2008 2008 2008 2008 2008 2008 2008 
2008 2008 2008 2008 2008 2008 2008 2008 2008 
2008 2008 2008 2008 2008 2008 2008 2008 2008 
2008 2008 2008 2008 2008 2008 2008 2008 2008 
2008 2008 2008 2008 2008 2008 2008 2008 2008 
2008 2008 2008 2008 2008 2008 2008 2008 2008 
2008 2008 2008 2008 2008 2008 2008 2008 2008 
2008 2008 2008 2008 2008 2008 2008 2008 2008 
2008 2008 2008 2008 2008 2008 2008 2008 2008 
2008 2008 2008 2008 2008 2008 2008 2008 2008 
2008 2008 2008 2008 2008 2008 2008 2008 2008 
2008 2008 2008 2008 2008 2008 2008 2008 2008 
2008 2008 2008 2008 2008 2008 2008 2008 2008 
2008 2008 2008 2008 2008 2008 2008 2008 2008 
2008 2008 2008 2008 2008 2008 2008 2008 2008 
2008 2008 2008 2008 2008 2008 2008 2008 2008 
2008 2008 2008 2008 2008 2008 2008 2008 2008 
2008 2008 2008 2008 2008 2008 2008 2008 2008 
2008 2008 2008 2008 2008 2008 2008 2008 2008 
2008 2008 2008 2008 2008 2008 2008 2008 2008 
2008 2008 2008 2008 2008 2008 2008 2008 2008 
2008 2008 2008 2008 2008 2008 2008 2008 2008 
2008 2008 2008 2008 2008 2008 2008 2008 2008 
2008 2008 2008 2008 2008 2008 2008 2008 2008 
2008 2008 2008 2008 2008 2008 2008 2008 2008 
2008 2008 2008 2008 2008 2008 2008 2008 2008 
2008 2008 2008 2008 2008 2008 2008 2008 2008 
2008 2008 2008 2008 2008 2008 2008 2008 2008 
2008 2008 2008 2008 2008 2008 2008 2008 2008 
2008 2008 2008 2008 2008 2008 2008 2008 2008 
2008 2008 2008 2008 2008 2008 2008 2008 2008 
2008 2008 2008 2008 2008 2008 2008 2008 2008 
2008 2008 2008 2008 2008 2008 2008 2008 2008 
2008 2008 2008 2008 2008 2008 2008 2008 2008 
2008 2008 2008 2008 2008 2008 2008 2008 2008 
2008 2008 2008 2008 2008 2008 2008 2008 2008 
2008 2008 2008 2008 2008 2008 2008 2008 2008 
2008 2008 2008 2008 2008 2008 2008 2008 2008 
2008 2008 2008 2008 2008 2008 2008 2008 2008 
2008 2008 2008 2008 2008 2008 2008 2008 2008 
2008 2008 2008 2008 2008 2008 2008 2008 2008 
2008 2008 2008 2008 2008 2008 2008 2008 2008 
2008 2008 2008 2008 2008 2008 2008 2008 2008 
2008 2008 2008 2008 2008 2008 2008 2008 2008 
2008 2008 2008 2008 2008 2008 2008 2008 2008 
2008 2008 2008 2008 2008 2008 2008 2008 2008 
2008 2008 2008 2008 2008 2008 2008 2008 2008 
2008 2008 2008 2008 2008 2008 2008 2008 2008 
2008 2008 2008 2008 2008 2008 2008 2008 2008 
2008 2008 2008 2008 2008 2008 2008 2008 2008 
2008 2008 2008 2008 2008 2008 2008 2008 2008 
2008 2008 2008 2008 2008 2008 2008 2008 2008 
2008 2008 2008 2008 2008 2008 2008 2008 2008 
2008 2008 2008 2008 2008 2008 2008 2008 2008 
2008 2008 2008 2008 2008 2008 2008 2008 2008 
2008 2008 2008 2008 2008 2008 2008 2008 2008 
2008 2008 2008 2008 2008 2008 2008 2008 2008 
2008 2008 2008 2008 2008 2008 2008 2008 2008 
2008 2008 2008 2008 2008 2008 2008 2008 2008 
2008 2008 2008 2008 2008 2008 2008 2008 2008 
2008 2008 2008 2008 2008 2008 2008 2008 2008 
2008 2008 2008 2008 2008 2008 2008 2008 2008 
2008 2008 2008 2008 2008 2008 2008 2008 2008 
2008 2008 2008 2008 2008 2008 2008 2008 2008 
2008 2008 2008 2008 2008 2008 2008 2008 2008 
2008 2008 2008 2008 2008 2008 2008 2008 2008 
2008 2008 2008 2008 2008 2008 2008 2008 2008 
2008 2008 2008 2008 2008 2008 2008 2008 2008 
2008 2008 2008 2008 2008 2008 2008 2008 2008 
2008 2008 2008 2008 2008 2008 2008 2008 2008 
2008 2008 2008 2008 2008 2008 2008 2008 2008 
2008 2008 2008 2008 2008 2008 2008 2008 2008 
2008 2008 2008 2008 2008 2008 2008 2008 2008 
2008 2008 2008 2008 2008 2008 2008 2008 2008 
2008 2008 2008 2008 2008 2008 2008 2008 2008 
2008 2008 2008 2008 2008 2008 2008 2008 2008 
2008 2008 2008 2008 2008 2008 2008 2008 2008 
2008 2008 2008 2008 2008 2008 2008 2008 2008 
2008 2008 2008 2008 2008 2008 2008 2008 2008 
2008 2008 2008 2008 2008 2008 2008 2008 2008 
2008 2008 2008 2008 2008 2008 2008 2008 2008 
2008 2008 2008 2008 2008 2008 2008 2008 2008 
2008 2008 2008 2008 2008 2008 2008 2008 2008 
2008 2008 2008 2008 2008 2008 2008 2008 2008 
2008 2008 2008 2008 2008 2008 2008 2008 2008 
2008 2008 2008 2008 2008 2008 2008 2008 2008 
2008 2008 2008 2008 2008 2008 2008 2008 2008 
2008 2008 2008 2008 2008 2008 2008 2008 2008 
2008 2008 2008 2008 2008 2008 2008 2008 2008 
2008 2008 2008 2008 2008 2008 2008 2008 2008 
2008 2008 2008 2008 2008 2008 2008 2008 2008 
2008 2008 2008 2008 2008 2008 2008 2008 2008 
2008 2008 2008 2008 2008 2008 2008 2008 2008 
2008 2008 2008 2008 2008 2008 2008 2008 2008 
2008 2008 2008 2008 2008 2008 2008 2008 2008 
2008 2008 2008 2008 2008 2008 2008 2008 2008 
2008 2008 2008 2008 2008 2008 2008 2008 2008 
2008 2008 2008 2008 2008 2008 2008 2008 2008 
2008 2008 2008 2008 2008 2008 2008 2008 2008 
2008 2008 2008 2008 2008 2008 2008 2008 2008 
2008 2008 2008 2008 2008 2008 2008 2008 2008 
2008 2008 2008 2008 2008 2008 2008 2008 2008 
2008 2008 2008 2008 2008 2008 2008 2008 2008 
2008 2008 2008 2008 2008 2008 2008 2008 2008 
2008 2008 2008 2008 2008 2008 2008 2008 2008 
2008 2008 2008 2008 2008 2008 2008 2008 2008 
2008 2008 2008 2008 2008 2008 2008 2008 2008 
2008 2008 2008 2008 2008 2008 2008 2008 2008 
2008 2008 2008 2008 2008 2008 2008 2008 2008 
2008 2008 2008 2008 2008 2008 2008 2008 2008 
2008 2008 2008 2008 2008 2008 2008 2008 2008 
2008 2008 2008 2008 2008 2008 2008 2008 2008 
2008 2008 2008 2008 2008 2008 2008 2008 2008 
2008 2008 2008 2008 2008 2008 2008 2008 2008 
2008 2008 2008 2008 2008 2008 2008 2008 2008 
2008 2008 2008 2008 2008 2008 2008 2008 2008 
2008 2008 2008 2008 2008 2008 2008 2008 2008 
2008 2008 2008 2008 2008 2008 2008 2008 2008 
2008 2008 2008 2008 2008 2008 2008 2008 2008 
2008 2008 2008 2008 2008 2008 2008 2008 2008 
2008 2008 2008 2008 2008 2008 2008 2008 2008 
2008 2008 2008 2008 2008 2008 2008 2008 2008 
2008 2008 2008 2008 2008 2008 2008 2008 2008 
2008 2008 2008 2008 2008 2008 2008 2008 2008 
2008 2008 2008 2008 2008 2008 2008 2008 2008 
2008 2008 2008 2008 2008 2008 2008 2008 2008 
2008 2008 2008 2008 2008 2008 2008 2008 2008 
2008 2008 2008 2008 2008 2008 2008 2008 2008 
2008 2008 2008 2008 2008 2008 2008 2008 2008 
2008 2008 2008 2008 2008 2008 2008 2008 2008 
2008 2008 2008 2008 2008 2008 2008 2008 2008 
2008 2008 2008 2008 2008 2008 2008 2008 2008 
2008 2008 2008 2008 2008 2008 2008 2008 2008 
2008 2008 2008 2008 2008 2008 2008 2008 2008 
2008 2008 2008 2008 2008 2008 2008 2008 2008 
2008 2008 2008 2008 2008 2008 2008 2008 2008 
2008 2008 2008 2008 2008 2008 2008 2008 2008 
2008 2008 2008 2008 2008 2008 2008 2008 2008 
2008 2008 2008 2008 2008 2008 2008 2008 2008 
2008 2008 2008 2008 2008 2008 2008 2008 2008 
2008 2008 2008 2008 2008 2008 2008 2008 2008 
2008 2008 2008 2008 2008 2008 2008 2008 2008 
2008 2008 2008 2008 2008 2008 2008 2008 2008 
2008 2008 2008 2008 2008 2008 2008 2008 2008 
2008 2008 2008 2008 2008 2008 2008 2008 2008 
2008 2008 2008 2008 2008 2008 2008 2008 2008 
2008 2008 2008 2008 2008 2008 2008 2008 2008 
2008 2008 2008 2008 2008 2008 2008 2008 2008 
2008 2008 2008 2008 2008 2008 2008 2008 2008 
2008 2008 2008 2008 2008 2008 2008 2008 2008 
2008 2008 2008 2008 2008 2008 2008 2008 2008 
2008 2008 2008 2008 2008 2008 2008 2008 2008 
2008 2008 2008 2008 2008 2008 2008 2008 2008 
2008 2008 2008 2008 2008 2008 2008 2008 2008 
2008 2008 2008 2008 2008 2008 2008 2008 2008 
2008 2008 2008 2008 2008 2008 2008 2008 2008 
2008 2008 2008 2008 2008 2008 2008 2008 2008 
2008 2008 2008 2008 2008 2008 2008 2008 2008 
2008 2008 2008 2008 2008 2008 2008 2008 2008 
2008 2008 2008 2008 2008 2008 2008 2008 2008 
2008 2008 2008 2008 2008 2008 2008 2008 2008 
2008 2008 2008 2008 2008 2008 2008 2008 2008 
2008 2008 2008 2008 2008 2008 2008 2008 2008 
2008 2008 2008 2008 2008 2008 2008 2008 2008 
2008 2008 2008 2008 2008 2008 2008 2008 2008 
2008 2008 2008 2008 2008 2008 2008 2008 2008 
2008 2008 2008 2008 2008 2008 2008 2008 2008 
2008 2008 2008 2008 2008 2008 2008 2008 2008 
2008 2008 2008 2008 2008 2008 2008 2008 2008 
2008 2008 2008 2008 2008 2008 2008 2008 2008 
2008 2008 2008 2008 2008 2008 2008 2008 2008 
2008 2008 2008 2008 2008 2008 2008 2008 2008 
2008 2008 2008 2008 2008 2008 2008 2008 2008 
2008 2008 2008 2008 2008 2008 2008 2008 2008 
2008 2008 2008 2008 2008 2008 2008 2008 2008 
2008 2008 2008 2008 2008 2008 2008 2008 2008 
2008 2008 2008 2008 2008 2008 2008 2008 2008 
2008 2008 2008 2008 2008 2008 2008 2008 2008 
2008 2008 2008 2008 2008 2008 2008 2008 2008 
2008 2008 2008 2008 2008 2008 2008 2008 2008 
2008 2008 2008 2008 2008 2008 2008 2008 2008 
2008 2008 2008 2008 2008 2008 2008 2008 2008 
2008 2008 2008 2008 2008 2008 2008 2008 2008 
2008 2008 2008 2008 2008 2008 2008 2008 2008 
2008 2008 2008 2008 2008 2008 2008 2008 2008 
2008 2008 2008 2008 2008 2008 2008 2008 2008 
2008 2008 2008 2008 2008 2008 2008 2008 2008 
2008 2008 2008 2008 2008 2008 2008 2008 2008 
2008 2008 2008 2008 2008 2008 2008 2008 2008 
2008 2008 2008 2008 2008 2008 2008 2008 2008 
2008 2008 2008 2008 2008 2008 2008 2008 2008 
2008 2008 2008 2008 2008 2008 2008 2008 2008 
2008 2008 2008 2008 2008 2008 2008 2008 2008 
2008 2008 2008 2008 2008 2008 2008 2008 2008 
2008 2008 2008 2008 2008 2008 2008 2008 2008 
2008 2008 2008 2008 2008 2008 2008 2008 2008 
2008 2008 2008 2008 2008 2008 2008 2008 2008 
2008 2008 2008 2008 2008 2008 2008 2008 2008 
2008 2008 2008 2008 2008 2008 2008 2008 2008 
2008 2008 2008 2008 2008 2008 2008 2008 2008 
2008 2008 2008 2008 2008 2008 2008 2008 2008 
2008 2008 2008 2008 2008 2008 2008 2008 2008 
2008 2008 2008 2008 2008 2008 2008 2008 2008 
2008 2008 2008 2008 2008 2008 2008 2008 2008 
2008 2008 2008 2008 2008 2008 2008 2008 2008 
2008 2008 2008 2008 2008 2008 2008 2008 2008 
2008 2008 2008 2008 2008 2008 2008 2008 2008 
2008 2008 2008 2008 2008 2008 2008 2008 2008 
2008 2008 2008 2008 2008 2008 2008 2008 2008 
2008 2008 2008 2008 2008 2008 2008 2008 2008 
2008 2008 2008 2008 2008 2008 2008 2008 2008 
2008 2008 2008 2008 2008 2008 2008 2008 2008 
2008 2008 2008 2008 2008 2008 2008 2008 2008 
2008 2008 2008 2008 2008 2008 2008 2008 2008 
2008 2008 2008 2008 2008 2008 2008 2008 2008 
2008 2008 2008 2008 2008 2008 2008 2008 2008 
2008 2008 2008 2008 2008 2008 2008 2008 2008 
2008 2008 2008 2008 2008 2008 2008 2008 2008 
2008 2008 2008 2008 2008 2008 2008 2008 2008 
2008 2008 2008 2008 2008 2008 2008 2008 2008 
2008 2008 2008 2008 2008 2008 2008 2008 2008 
2008 2008 2008 2008 2008 2008 2008 2008 2008 
2008 2008 2008 2008 2008 2008 2008 2008 2008 
2008 2008 2008 2008 2008 2008 2008 2008 2008 
2008 2008 2008 2008 2008 2008 2008 2008 2008 
2008 2008 2008 2008 2008 2008 2008 2008 2008 
2008 2008 2008 2008 2008 2008 2008 2008 2008 
2008 2008 2008 2008 2008 2008 2008 2008 2008 
2008 2008 2008 2008 2008 2008 2008 2008 2008 
2008 2008 2008 2008 2008 2008 2008 2008 2008 
2008 2008 2008 2008 2008 2008 2008 2008 2008 
2008 2008 2008 2008 2008 2008 2008 2008 2008 
2008 2008 2008 2008 2008 2008 2008 2008 2008 
2008 2008 2008 2008 2008 2008 2008 2008 2008 
2008 2008 2008 2008 2008 2008 2008 2008 2008 
2008 2008 2008 2008 2008 2008 2008 2008 2008 
2008 2008 2008 2008 2008 2008 2008 2008 2008 
2008 2008 2008 2008 2008 2008 2008 2008 2008 
2008 2008 2008 2008 2008 2008 2008 2008 2008 
2008 2008 2008 2008 2008 2008 2008 2008 2008 
2008 2008 2008 2008 2008 2008 2008 2008 2008 
2008 2008 2008 2008 2008 2008 2008 2008 2008 
2008 2008 2008 2008 2008 2008 2008 2008 2008 
2008 2008 2008 2008 2008 2008 2008 2008 2008 
2008 2008 2008 2008 2008 2008 2008 2008 2008 
2008 2008 2008 2008 2008 2008 2008 2008 2008 
2008 2008 2008 2008 2008 2008 2008 2008 2008 
2008 2008 2008 2008 2008 2008 2008 2008 2008 
2008 2008 2008 2008 2008 2008 2008 2008 2008 
2008 2008 2008 2008 2008 2008 2008 2008 2008 
2008 2008 2008 2008 2008 2008 2008 2008 2008 
2008 2008 2008 2008 2008 2008 2008 2008 2008 
2008 2008 2008 2008 2008 2008 2008 2008 2008 
2008 2008 2008 2008 2008 2008 2008 2008 2008 
2008 2008 2008 2008 2008 2008 2008 2008 2008 
2008 2008 2008 2008 2008 2008 2008 2008 2008 
2008 2008 2008 2008 2008 2008 2008 2008 2008 
2008 2008 2008 2008 2008 2008 2008 2008 2008 
2008 2008 2008 2008 2008 2008 2008 2008 2008 
2008 2008 2008 2008 2008 2008 2008 2008 2008 
2008 2008 2008 2008 2008 2008 2008 2008 2008 
2008 2008 2008 2008 2008 2008 2008 2008 2008 
2008 2008 2008 2008 2008 2008 2008 2008 2008 
2008 2008 2008 2008 2008 2008 2008 2008 2008 
2008 2008 2008 2008 2008 2008 2008 2008 2008 
2008 2008 2008 2008 2008 2008 2008 2008 2008 
2008 2008 2008 2008 2008 2008 2008 2008 2008 
2008 2008 2008 2008 2008 2008 2008 2008 2008 
2008 2008 2008 2008 2008 2008 2008 2008 2008 
2008 2008 2008 2008 2008 2008 2008 2008 2008 
2008 2008 2008 2008 2008 2008 2008 2008 2008 
2008 2008 2008 2008 2008 2008 2008 2008 2008 
2008 2008 2008 2008 2008 2008 2008 2008 2008 
2008 2008 2008 2008 2008 2008 2008 2008 2008 
2008 2008 2008 2008 2008 2008 2008 2008 2008 