# vtk DataFile Version 4.2
vtk output
ASCII
DATASET POLYDATA
POINTS 15966 float
-32.2499 -30.5763 40.659 -32.4078 -30.3012 40.5222 -32.5243 -30.5698 40.6171 
-31.9902 -30.452 40.1979 -33.3165 -31.5027 40.6595 -33.4947 -31.142 40.3785 
-33.5427 -31.7845 40.3536 -32.3097 -30.9124 40.3772 -32.9205 -31.5755 40.3053 
-33.2197 -31.9416 40.4297 -37.9751 -23.6864 39.8537 -38.4545 -23.1494 39.4889 
-38.784 -23.8543 39.5672 -37.2787 -23.7203 39.7965 -37.6601 -23.0312 39.5498 
-36.9725 -23.3638 39.4707 -38.1854 -24.5154 39.8716 -38.7863 -24.4882 39.5804 
-37.3839 -24.5136 39.9156 -36.7684 -24.2372 39.5472 -38.464 -25.0906 39.4774 
-37.851 -25.6104 39.5429 -37.5841 -25.2977 39.7886 -36.8652 -25.2045 39.5412 
-37.4191 -25.8479 39.3197 -33.0558 -27.7137 39.8713 -33.3282 -27.1582 39.4683 
-33.8533 -27.6506 39.5784 -32.2288 -27.6854 39.7972 -32.5335 -27.04 39.5457 
-31.9484 -27.2765 39.2697 -33.9834 -28.4342 39.8374 -34.4796 -28.0783 39.4239 
-34.786 -28.8374 39.4966 -33.127 -28.6077 40.0459 -32.3686 -28.5035 39.9387 
-31.9913 -28.4266 39.2771 -34.1954 -29.5031 39.9037 -34.845 -29.7715 39.5357 
-33.4691 -29.2908 40.0664 -32.5246 -29.5693 40.1602 -31.8977 -29.5276 39.675 
-34.1684 -30.5093 39.8872 -34.7567 -30.3994 39.5255 -33.0651 -30.4792 40.2963 
-31.7401 -30.4459 39.3777 -34.588 -30.9257 39.3351 -33.9871 -31.5801 39.5597 
-32.4326 -31.4078 40.0664 -31.9107 -31.375 39.4538 -33.3208 -32.606 40.0508 
-33.6973 -32.5752 39.7259 -32.8051 -32.4638 39.8388 -32.2792 -32.099 39.5413 
-33.4191 -33.3148 39.723 -33.6438 -33.4765 39.213 -32.9049 -33.2911 39.5366 
-33.0782 -33.8216 39.2461 -49.0153 -15.6384 38.8513 -49.4147 -15.1291 38.498 
-49.7758 -15.7878 38.5511 -48.33 -15.7041 38.7879 -48.4576 -14.9865 38.3587 
-47.8487 -15.5045 38.3562 -49.2237 -16.4829 38.9236 -49.8666 -16.7212 38.5271 
-48.2923 -16.517 38.9359 -47.7603 -16.1709 38.5244 -49.2344 -17.4696 38.902 
-49.8457 -17.7297 38.5146 -48.3611 -17.4596 39.0413 -47.4425 -16.8108 38.6218 
-47.2427 -17.5122 38.9122 -46.1311 -17.8042 38.7857 -46.6542 -17.0863 38.4901 
-45.9048 -17.3873 38.4028 -49.1974 -18.501 38.8993 -49.84 -18.7703 38.5353 
-48.3413 -18.4731 39.0377 -47.3366 -18.4946 39.0364 -46.2956 -18.5403 39.0018 
-45.4599 -17.9861 38.5465 -45.2551 -18.6507 38.8152 -44.8972 -18.3703 38.4161 
-43.1617 -18.8561 38.7694 -43.4638 -18.2519 38.4066 -43.8734 -18.6781 38.5685 
-42.8814 -18.3321 38.4228 -49.1963 -19.5438 38.9112 -49.8481 -19.7899 38.5573 
-48.2972 -19.5235 39.0515 -47.2935 -19.5368 39.0474 -46.3002 -19.5276 39.0323 
-45.2896 -19.5262 39.0173 -44.4638 -18.7697 38.5631 -44.1171 -19.3938 38.9237 
-43.0715 -19.7063 39.0271 -42.4426 -18.8902 38.572 -42.3955 -19.5753 38.8091 
-41.9424 -19.398 38.4305 -49.3318 -20.3177 38.8114 -49.7475 -20.4377 38.5533 
-48.402 -20.5478 38.9445 -47.2961 -20.5558 39.0517 -46.2769 -20.5715 39.0328 
-45.2629 -20.5759 39.0379 -44.2488 -20.551 39.057 -43.2567 -20.5648 39.053 
-42.392 -20.5245 38.8915 -41.7533 -20.2364 38.4868 -49.2847 -20.9413 38.4222 
-48.2519 -21.2428 38.6342 -47.862 -21.6374 38.3755 -47.4802 -21.3013 38.8277 
-46.5296 -21.3965 38.8809 -45.3861 -21.5599 38.9113 -44.2697 -21.576 39.0333 
-43.4314 -21.4495 39.0444 -42.5916 -21.622 38.8416 -41.8028 -21.2028 38.4938 
-38.1412 -21.7214 38.8573 -38.3893 -21.1572 38.4487 -38.8888 -21.6339 38.5703 
-37.1079 -21.7519 38.8224 -37.6119 -21.0925 38.516 -36.8828 -21.3288 38.4675 
-47.0764 -21.8461 38.2814 -46.1051 -21.8656 38.5278 -45.3373 -22.1825 38.4806 
-44.7158 -22.7361 38.4605 -44.4495 -22.3305 38.822 -43.418 -22.3728 38.8544 
-42.6593 -22.4516 38.5889 -42.0833 -21.9903 38.4445 -39.081 -22.3001 38.8134 
-39.5396 -22.0023 38.3279 -39.6437 -22.7493 38.5131 -38.3578 -22.5591 39.1763 
-37.2613 -22.5281 39.165 -36.2705 -21.8725 38.3547 -36.2305 -22.6239 38.8323 
-35.7334 -22.4594 38.3179 -43.9589 -23.0229 38.5281 -43.1578 -22.9533 38.4714 
-39.2245 -23.2342 39.0395 -39.7597 -23.5298 38.369 -36.2945 -23.5961 39.1539 
-35.2607 -22.9061 38.2843 -35.2721 -23.6165 38.8251 -34.7398 -23.4276 38.3404 
-39.2889 -24.3167 39.0501 -39.6237 -24.3021 38.2374 -36.1459 -24.787 39.1664 
-35.2825 -24.5293 38.9928 -34.4811 -23.9229 38.5666 -34.2662 -24.6184 38.8148 
-33.9105 -24.3393 38.4455 -39.1098 -25.0099 38.7313 -38.3268 -25.6187 39.0626 
-38.8031 -25.5747 38.1836 -36.3313 -25.8594 39.1038 -35.2786 -25.5459 38.9696 
-34.2507 -25.5124 38.9558 -33.4687 -24.9189 38.5536 -33.1903 -25.6258 38.8169 
-32.8491 -25.3391 38.445 -38.0852 -26.1279 38.7179 -37.1602 -26.5074 38.8766 
-37.8719 -26.5422 38.5344 -36.1349 -26.7375 38.9661 -35.2826 -26.5508 38.9688 
-34.4109 -26.3342 38.9684 -33.3404 -26.5019 39.1222 -32.3826 -25.9272 38.5964 
-32.3548 -26.4785 39.0322 -31.8466 -26.6663 38.4746 -37.4712 -27.0382 38.3756 
-36.7458 -27.7013 38.4183 -36.3472 -27.4187 38.7899 -35.4413 -27.3475 38.9681 
-34.3428 -27.2968 39.1383 -31.9053 -27.7936 38.4931 -36.1223 -28.1318 38.5844 
-35.8813 -28.8687 38.522 -35.3107 -28.2247 38.9925 -32.3114 -28.3293 38.7407 
-32.4605 -28.4689 38.4962 -32.3472 -28.2119 38.4844 -35.338 -29.2975 39.0165 
-35.8271 -29.8354 38.3291 -32.2378 -28.7376 38.6579 -31.8128 -29.6028 38.6327 
-35.2212 -30.3115 39.0167 -35.6067 -30.7562 38.2324 -31.7505 -30.7657 38.6645 
-35.0515 -31.1141 38.699 -34.4946 -31.4513 38.9231 -34.8067 -31.5436 38.5128 
-31.764 -31.4 38.3224 -34.504 -31.9346 38.4671 -34.0054 -32.7581 38.6 
-32.2806 -32.9256 39.0973 -31.7495 -32.2672 38.4755 -33.7494 -33.8054 38.3387 
-32.4569 -33.6049 38.9992 -31.8236 -33.2764 38.5117 -33.1906 -34.118 38.6865 
-32.3562 -33.9539 38.6232 -50.0183 -13.6176 37.8544 -50.2754 -13.0775 37.5567 
-50.741 -13.6507 37.4758 -49.1257 -13.765 37.8438 -49.6448 -13.0591 37.5519 
-48.8882 -13.342 37.4672 -50.3395 -14.3251 37.8877 -50.8628 -14.7638 37.5224 
-49.4429 -14.4635 38.1647 -48.2467 -13.8795 37.3646 -48.5485 -14.3516 37.9544 
-47.8156 -14.5019 37.5265 -50.1922 -15.2046 38.0478 -50.8233 -15.7721 37.499 
-47.1467 -15.841 37.9215 -47.5224 -15.0791 37.7511 -46.9118 -15.3437 37.3985 
-50.3371 -16.2267 38.0117 -50.8121 -16.7641 37.4817 -47.0871 -16.5186 38.2429 
-46.4355 -15.8478 37.5183 -46.1641 -16.6008 37.9622 -45.0665 -16.6704 37.8392 
-45.6283 -15.9952 37.4909 -44.0795 -16.6559 37.8509 -44.6002 -16 37.5103 
-43.1445 -16.7641 37.8131 -43.4417 -15.9853 37.3337 -42.7674 -16.4178 37.4026 
-50.3372 -17.2227 37.9995 -50.8101 -17.7613 37.4976 -45.1882 -17.5669 38.1439 
-44.4451 -17.3531 37.9949 -43.3656 -17.6342 38.0986 -42.4147 -16.8376 37.6047 
-42.2345 -17.5135 37.9113 -41.1602 -17.765 37.8193 -41.4537 -17.0314 37.3218 
-40.7682 -17.4567 37.3977 -50.3357 -18.2362 38.0153 -50.8408 -18.7722 37.4962 
-44.2284 -18.1753 38.2239 -42.2022 -18.5198 38.1922 -41.3077 -18.5184 38.0198 
-40.3937 -17.8506 37.6273 -40.2262 -18.5336 37.91 -39.3252 -18.7511 37.763 
-39.4305 -18.0083 37.3583 -38.842 -18.5271 37.3836 -50.3573 -19.2833 38.0227 
-50.8534 -19.8137 37.3248 -41.2721 -19.6335 38.1085 -40.3167 -19.5263 37.9879 
-39.2607 -19.5854 37.8812 -38.7362 -19.2141 37.5167 -50.2102 -20.3237 38.029 
-50.6109 -20.5498 37.2799 -41.118 -20.7975 38.1258 -40.2717 -20.5247 37.9876 
-39.4387 -20.3425 37.9851 -38.3981 -19.8611 37.5938 -38.3053 -20.5211 38.0095 
-37.0239 -20.6931 38.0276 -37.5386 -20.0252 37.5219 -36.2826 -20.7342 37.783 
-36.3781 -20.0084 37.2968 -35.8062 -20.5175 37.3333 -50.0696 -21.0386 37.6459 
-49.4177 -21.4729 37.8794 -49.7991 -21.7433 37.2011 -48.6383 -21.5704 38.1271 
-41.4496 -21.7528 38.1478 -40.3988 -21.6822 37.9097 -39.2548 -21.1572 38.1638 
-36.4493 -21.2471 38.1173 -35.821 -21.2918 37.6277 -49.0487 -21.9919 37.5487 
-48.0414 -22.0555 37.682 -47.1418 -22.1729 37.5099 -46.223 -22.2008 37.8611 
-45.3343 -22.6966 38.044 -45.893 -22.8586 37.3338 -42.3234 -22.683 38.2036 
-41.407 -22.591 37.8458 -40.8225 -22.4947 37.3537 -40.2527 -22.0312 37.2123 
-39.8654 -22.4412 37.6785 -35.3323 -22.5439 37.9563 -35.5191 -22.0995 37.7509 
-34.9598 -22.4647 37.5368 -45.3411 -23.3054 37.7561 -45.5998 -23.5287 37.2415 
-44.5942 -23.3903 38.0399 -43.4041 -23.4721 38.0451 -42.3435 -23.428 37.8245 
-41.6367 -23.6029 37.3537 -41.2147 -23.0894 37.3514 -39.7348 -23.5055 37.3613 
-33.9886 -23.6845 38.0419 -34.4702 -22.9937 37.7162 -33.1013 -23.7876 37.7489 
-33.6627 -23.0616 37.4535 -32.9186 -23.3345 37.3937 -45.0252 -23.8501 37.4067 
-44.1771 -23.9336 37.5519 -43.2113 -24.0948 37.4324 -42.2798 -24.0679 37.3997 
-39.4561 -24.2295 37.5811 -39.3009 -24.7428 38.0804 -39.0624 -24.6968 37.4461 
-33.1538 -24.5747 38.1663 -32.4388 -23.9273 37.5399 -32.1977 -24.6646 37.8354 
-31.8474 -24.3765 37.4607 -38.8387 -25.3813 37.3198 -32.1435 -25.5806 38.1998 
-31.4135 -24.9777 37.5786 -31.3854 -25.619 37.8092 -30.9225 -25.3475 37.2814 
-38.3017 -26.4744 38.1495 -38.6685 -26.3031 37.3503 -31.416 -26.497 37.8654 
-30.9233 -26.383 37.2705 -38.1014 -27.0389 37.6709 -37.341 -27.6819 38.0078 
-37.8429 -27.6907 37.38 -31.4762 -27.6043 37.4314 -31.159 -27.1473 37.3191 
-37.2086 -28.4662 37.8153 -37.6253 -28.4093 37.1883 -36.571 -28.3624 38.2261 
-31.9608 -28.5823 38.1955 -31.4429 -28.1765 37.6695 -31.2644 -28.7782 37.7129 
-31.0674 -28.7504 37.3802 -37.1611 -29.0635 37.5297 -36.7425 -29.5526 37.226 
-36.4928 -29.2407 37.9588 -31.4421 -29.4671 37.8242 -31.0566 -29.2901 37.4871 
-36.2391 -29.8952 37.5999 -35.9433 -30.4328 37.5091 -31.6816 -30.4532 37.6164 
-31.3278 -29.7962 37.2972 -35.2116 -31.4975 38.1387 -35.671 -31.3233 37.3309 
-31.6806 -31.522 37.3525 -35.061 -32.0551 37.6374 -34.4692 -32.4817 37.9257 
-34.7592 -32.5855 37.1669 -31.3497 -32.1694 37.5599 -31.2271 -32.8356 37.9115 
-30.9827 -32.5023 37.2687 -34.2636 -32.8928 37.5878 -33.9799 -33.4227 37.5304 
-31.3984 -33.8493 38.038 -30.6973 -33.3699 37.2354 -33.2262 -34.5994 38.0455 
-33.6446 -34.2333 37.3926 -32.324 -34.4916 38.2131 -31.5564 -34.8253 37.8318 
-30.9368 -34.4904 37.3679 -33.0941 -34.9822 37.3356 -32.5948 -35.5418 37.3622 
-32.4493 -35.2762 37.8034 -31.9004 -35.4798 37.613 -31.4856 -35.29 37.1574 
-32.3198 -35.7238 37.5583 -50.2713 -12.6616 37.0543 -50.2666 -12.0712 36.5333 
[...]
CELL_DATA 31956
SCALARS scalars float
LOOKUP_TABLE default
2030 2030 2030 2030 2030 2030 2030 2030 2030 
2030 2030 2030 2030 2030 2030 2030 2030 2030 
2030 2030 2030 2030 2030 2030 2030 2030 2030 
2030 2030 2030 2030 2030 2030 2030 2030 2030 
2030 2030 2030 2030 2030 2030 2030 2030 2030 
2030 2030 2030 2030 2030 2030 2030 2030 2030 
2030 2030 2030 2030 2030 2030 2030 2030 2030 
2030 2030 2030 2030 2030 2030 2030 2030 2030 
2030 2030 2030 2030 2030 2030 2030 2030 2030 
2030 2030 2030 2030 2030 2030 2030 2030 2030 
2030 2030 2030 2030 2030 2030 2030 2030 2030 
2030 2030 2030 2030 2030 2030 2030 2030 2030 
2030 2030 2030 2030 2030 2030 2030 2030 2030 
2030 2030 2030 2030 2030 2030 2030 2030 2030 
2030 2030 2030 2030 2030 2030 2030 2030 2030 
2030 2030 2030 2030 2030 2030 2030 2030 2030 
2030 2030 2030 2030 2030 2030 2030 2030 2030 
2030 2030 2030 2030 2030 2030 2030 2030 2030 
2030 2030 2030 2030 2030 2030 2030 2030 2030 
2030 2030 2030 2030 2030 2030 2030 2030 2030 
2030 2030 2030 2030 2030 2030 2030 2030 2030 
2030 2030 2030 2030 2030 2030 2030 2030 2030 
2030 2030 2030 2030 2030 2030 2030 2030 2030 
2030 2030 2030 2030 2030 2030 2030 2030 2030 
2030 2030 2030 2030 2030 2030 2030 2030 2030 
2030 2030 2030 2030 2030 2030 2030 2030 2030 
2030 2030 2030 2030 2030 2030 2030 2030 2030 
2030 2030 2030 2030 2030 2030 2030 2030 2030 
2030 2030 2030 2030 2030 2030 2030 2030 2030 
2030 2030 2030 2030 2030 2030 2030 2030 2030 
2030 2030 2030 2030 2030 2030 2030 2030 2030 
2030 2030 2030 2030 2030 2030 2030 2030 2030 
2030 2030 2030 2030 2030 2030 2030 2030 2030 
2030 2030 2030 2030 2030 2030 2030 2030 2030 
2030 2030 2030 2030 2030 2030 2030 2030 2030 
2030 2030 2030 2030 2030 2030 2030 2030 2030 
2030 2030 2030 2030 2030 2030 2030 2030 2030 
2030 2030 2030 2030 2030 2030 2030 2030 2030 
2030 2030 2030 2030 2030 2030 2030 2030 2030 
2030 2030 2030 2030 2030 2030 2030 2030 2030 
2030 2030 2030 2030 2030 2030 2030 2030 2030 
2030 2030 2030 2030 2030 2030 2030 2030 2030 
2030 2030 2030 2030 2030 2030 2030 2030 2030 
2030 2030 2030 2030 2030 2030 2030 2030 2030 
2030 2030 2030 2030 2030 2030 2030 2030 2030 
2030 2030 2030 2030 2030 2030 2030 2030 2030 
2030 2030 2030 2030 2030 2030 2030 2030 2030 
2030 2030 2030 2030 2030 2030 2030 2030 2030 
2030 2030 2030 2030 2030 2030 2030 2030 2030 
2030 2030 2030 2030 2030 2030 2030 2030 2030 
2030 2030 2030 2030 2030 2030 2030 2030 2030 
2030 2030 2030 2030 2030 2030 2030 2030 2030 
2030 2030 2030 2030 2030 2030 2030 2030 2030 
2030 2030 2030 2030 2030 2030 2030 2030 2030 
2030 2030 2030 2030 2030 2030 2030 2030 2030 
2030 2030 2030 2030 2030 2030 2030 2030 2030 
2030 2030 2030 2030 2030 2030 2030 2030 2030 
2030 2030 2030 2030 2030 2030 2030 2030 2030 
2030 2030 2030 2030 2030 2030 2030 2030 2030 
2030 2030 2030 2030 2030 2030 2030 2030 2030 
2030 2030 2030 2030 2030 2030 2030 2030 2030 
2030 2030 2030 2030 2030 2030 2030 2030 2030 
2030 2030 2030 2030 2030 2030 2030 2030 2030 
2030 2030 2030 2030 2030 2030 2030 2030 2030 
2030 2030 2030 2030 2030 2030 2030 2030 2030 
2030 2030 2030 2030 2030 2030 2030 2030 2030 
2030 2030 2030 2030 2030 2030 2030 2030 2030 
2030 2030 2030 2030 2030 2030 2030 2030 2030 
2030 2030 2030 2030 2030 2030 2030 2030 2030 
2030 2030 2030 2030 2030 2030 2030 2030 2030 
2030 2030 2030 2030 2030 2030 2030 2030 2030 
2030 2030 2030 2030 2030 2030 2030 2030 2030 
2030 2030 2030 2030 2030 2030 2030 2030 2030 
2030 2030 2030 2030 2030 2030 2030 2030 2030 
2030 2030 2030 2030 2030 2030 2030 2030 2030 
2030 2030 2030 2030 2030 2030 2030 2030 2030 
2030 2030 2030 2030 2030 2030 2030 2030 2030 
2030 2030 2030 2030 2030 2030 2030 2030 2030 
2030 2030 2030 2030 2030 2030 2030 2030 2030 
2030 2030 2030 2030 2030 2030 2030 2030 2030 
2030 2030 2030 2030 2030 2030 2030 2030 2030 
2030 2030 2030 2030 2030 2030 2030 2030 2030 
2030 2030 2030 2030 2030 2030 2030 2030 2030 
2030 2030 2030 2030 2030 2030 2030 2030 2030 
2030 2030 2030 2030 2030 2030 2030 2030 2030 
2030 2030 2030 2030 2030 2030 2030 2030 2030 
2030 2030 2030 2030 2030 2030 2030 2030 2030 
2030 2030 2030 2030 2030 2030 2030 2030 2030 
2030 2030 2030 2030 2030 2030 2030 2030 2030 
2030 2030 2030 2030 2030 2030 2030 2030 2030 
2030 2030 2030 2030 2030 2030 2030 2030 2030 
2030 2030 2030 2030 2030 2030 2030 2030 2030 
2030 2030 2030 2030 2030 2030 2030 2030 2030 
2030 2030 2030 2030 2030 2030 2030 2030 2030 
2030 2030 2030 2030 2030 2030 2030 2030 2030 
2030 2030 2030 2030 2030 2030 2030 2030 2030 
2030 2030 2030 2030 2030 2030 2030 2030 2030 
2030 2030 2030 2030 2030 2030 2030 2030 2030 
2030 2030 2030 2030 2030 2030 2030 2030 2030 
2030 2030 2030 2030 2030 2030 2030 2030 2030 
2030 2030 2030 2030 2030 2030 2030 2030 2030 
2030 2030 2030 2030 2030 2030 2030 2030 2030 
2030 2030 2030 2030 2030 2030 2030 2030 2030 
2030 2030 2030 2030 2030 2030 2030 2030 2030 
2030 2030 2030 2030 2030 2030 2030 2030 2030 
2030 2030 2030 2030 2030 2030 2030 2030 2030 
2030 2030 2030 2030 2030 2030 2030 2030 2030 
2030 2030 2030 2030 2030 2030 2030 2030 2030 
2030 2030 2030 2030 2030 2030 2030 2030 2030 
2030 2030 2030 2030 2030 2030 2030 2030 2030 
2030 2030 2030 2030 2030 2030 2030 2030 2030 
2030 2030 2030 2030 2030 2030 2030 2030 2030 
2030 2030 2030 2030 2030 2030 2030 2030 2030 
2030 2030 2030 2030 2030 2030 2030 2030 2030 
2030 2030 2030 2030 2030 2030 2030 2030 2030 
2030 2030 2030 2030 2030 2030 2030 2030 2030 
2030 2030 2030 2030 2030 2030 2030 2030 2030 
2030 2030 2030 2030 2030 2030 2030 2030 2030 
2030 2030 2030 2030 2030 2030 2030 2030 2030 
2030 2030 2030 2030 2030 2030 2030 2030 2030 
2030 2030 2030 2030 2030 2030 2030 2030 2030 
2030 2030 2030 2030 2030 2030 2030 2030 2030 
2030 2030 2030 2030 2030 2030 2030 2030 2030 
2030 2030 2030 2030 2030 2030 2030 2030 2030 
2030 2030 2030 2030 2030 2030 2030 2030 2030 
2030 2030 2030 2030 2030 2030 2030 2030 2030 
2030 2030 2030 2030 2030 2030 2030 2030 2030 
2030 2030 2030 2030 2030 2030 2030 2030 2030 
2030 2030 2030 2030 2030 2030 2030 2030 2030 
2030 2030 2030 2030 2030 2030 2030 2030 2030 
2030 2030 2030 2030 2030 2030 2030 2030 2030 
2030 2030 2030 2030 2030 2030 2030 2030 2030 
2030 2030 2030 2030 2030 2030 2030 2030 2030 
2030 2030 2030 2030 2030 2030 2030 2030 2030 
2030 2030 2030 2030 2030 2030 2030 2030 2030 
2030 2030 2030 2030 2030 2030 2030 2030 2030 
2030 2030 2030 2030 2030 2030 2030 2030 2030 
2030 2030 2030 2030 2030 2030 2030 2030 2030 
2030 2030 2030 2030 2030 2030 2030 2030 2030 
2030 2030 2030 2030 2030 2030 2030 2030 2030 
2030 2030 2030 2030 2030 2030 2030 2030 2030 
2030 2030 2030 2030 2030 2030 2030 2030 2030 
2030 2030 2030 2030 2030 2030 2030 2030 2030 
2030 2030 2030 2030 2030 2030 2030 2030 2030 
2030 2030 2030 2030 2030 2030 2030 2030 2030 
2030 2030 2030 2030 2030 2030 2030 2030 2030 
2030 2030 2030 2030 2030 2030 2030 2030 2030 
2030 2030 2030 2030 2030 2030 2030 2030 2030 
2030 2030 2030 2030 2030 2030 2030 2030 2030 
2030 2030 2030 2030 2030 2030 2030 2030 2030 
2030 2030 2030 2030 2030 2030 2030 2030 2030 
2030 2030 2030 2030 2030 2030 2030 2030 2030 
2030 2030 2030 2030 2030 2030 2030 2030 2030 
2030 2030 2030 2030 2030 2030 2030 2030 2030 
2030 2030 2030 2030 2030 2030 2030 2030 2030 
2030 2030 2030 2030 2030 2030 2030 2030 2030 
2030 2030 2030 2030 2030 2030 2030 2030 2030 
2030 2030 2030 2030 2030 2030 2030 2030 2030 
2030 2030 2030 2030 2030 2030 2030 2030 2030 
2030 2030 2030 2030 2030 2030 2030 2030 2030 
2030 2030 2030 2030 2030 2030 2030 2030 2030 
2030 2030 2030 2030 2030 2030 2030 2030 2030 
2030 2030 2030 2030 2030 2030 2030 2030 2030 
2030 2030 2030 2030 2030 2030 2030 2030 2030 
2030 2030 2030 2030 2030 2030 2030 2030 2030 
2030 2030 2030 2030 2030 2030 2030 2030 2030 
2030 2030 2030 2030 2030 2030 2030 2030 2030 
2030 2030 2030 2030 2030 2030 2030 2030 2030 
2030 2030 2030 2030 2030 2030 2030 2030 2030 
2030 2030 2030 2030 2030 2030 2030 2030 2030 
2030 2030 2030 2030 2030 2030 2030 2030 2030 
2030 2030 2030 2030 2030 2030 2030 2030 2030 
2030 2030 2030 2030 2030 2030 2030 2030 2030 
2030 2030 2030 2030 2030 2030 2030 2030 2030 
2030 2030 2030 2030 2030 2030 2030 2030 2030 
2030 2030 2030 2030 2030 2030 2030 2030 2030 
2030 2030 2030 2030 2030 2030 2030 2030 2030 
2030 2030 2030 2030 2030 2030 2030 2030 2030 
2030 2030 2030 2030 2030 2030 2030 2030 2030 
2030 2030 2030 2030 2030 2030 2030 2030 2030 
2030 2030 2030 2030 2030 2030 2030 2030 2030 
2030 2030 2030 2030 2030 2030 2030 2030 2030 
2030 2030 2030 2030 2030 2030 2030 2030 2030 
2030 2030 2030 2030 2030 2030 2030 2030 2030 
2030 2030 2030 2030 2030 2030 2030 2030 2030 
2030 2030 2030 2030 2030 2030 2030 2030 2030 
2030 2030 2030 2030 2030 2030 2030 2030 2030 
2030 2030 2030 2030 2030 2030 2030 2030 2030 
2030 2030 2030 2030 2030 2030 2030 2030 2030 
2030 2030 2030 2030 2030 2030 2030 2030 2030 
2030 2030 2030 2030 2030 2030 2030 2030 2030 
2030 2030 2030 2030 2030 2030 2030 2030 2030 
2030 2030 2030 2030 2030 2030 2030 2030 2030 
2030 2030 2030 2030 2030 2030 2030 2030 2030 
2030 2030 2030 2030 2030 2030 2030 2030 2030 
2030 2030 2030 2030 2030 2030 2030 2030 2030 
2030 2030 2030 2030 2030 2030 2030 2030 2030 
2030 2030 2030 2030 2030 2030 2030 2030 2030 
2030 2030 2030 2030 2030 2030 2030 2030 2030 
2030 2030 2030 2030 2030 2030 2030 2030 2030 
2030 2030 2030 2030 2030 2030 2030 2030 2030 
2030 2030 2030 2030 2030 2030 2030 2030 2030 
2030 2030 2030 2030 2030 2030 2030 2030 2030 
2030 2030 2030 2030 2030 2030 2030 2030 2030 
2030 2030 2030 2030 2030 2030 2030 2030 2030 
2030 2030 2030 2030 2030 2030 2030 2030 2030 
2030 2030 2030 2030 2030 2030 2030 2030 2030 
2030 2030 2030 2030 2030 2030 2030 2030 2030 
2030 2030 2030 2030 2030 2030 2030 2030 2030 
2030 2030 2030 2030 2030 2030 2030 2030 2030 
2030 2030 2030 2030 2030 2030 2030 2030 2030 
2030 2030 2030 2030 2030 2030 2030 2030 2030 
2030 2030 2030 2030 2030 2030 2030 2030 2030 
2030 2030 2030 2030 2030 2030 2030 2030 2030 
2030 2030 2030 2030 2030 2030 2030 2030 2030 
2030 2030 2030 2030 2030 2030 2030 2030 2030 
2030 2030 2030 2030 2030 2030 2030 2030 2030 
2030 2030 2030 2030 2030 2030 2030 2030 2030 
2030 2030 2030 2030 2030 2030 2030 2030 2030 
2030 2030 2030 2030 2030 2030 2030 2030 2030 
2030 2030 2030 2030 2030 2030 2030 2030 2030 
2030 2030 2030 2030 2030 2030 2030 2030 2030 
2030 2030 2030 2030 2030 2030 2030 2030 2030 
2030 2030 2030 2030 2030 2030 2030 2030 2030 
2030 2030 2030 2030 2030 2030 2030 2030 2030 
2030 2030 2030 2030 2030 2030 2030 2030 2030 
2030 2030 2030 2030 2030 2030 2030 2030 2030 
2030 2030 2030 2030 2030 2030 2030 2030 2030 
2030 2030 2030 2030 2030 2030 2030 2030 2030 
2030 2030 2030 2030 2030 2030 2030 2030 2030 
2030 2030 2030 2030 2030 2030 2030 2030 2030 
2030 2030 2030 2030 2030 2030 2030 2030 2030 
2030 2030 2030 2030 2030 2030 2030 2030 2030 
2030 2030 2030 2030 2030 2030 2030 2030 2030 
2030 2030 2030 2030 2030 2030 2030 2030 2030 
2030 2030 2030 2030 2030 2030 2030 2030 2030 
2030 2030 2030 2030 2030 2030 2030 2030 2030 
2030 2030 2030 2030 2030 2030 2030 2030 2030 
2030 2030 2030 2030 2030 2030 2030 2030 2030 
2030 2030 2030 2030 2030 2030 2030 2030 2030 
2030 2030 2030 2030 2030 2030 2030 2030 2030 
2030 2030 2030 2030 2030 2030 2030 2030 2030 
2030 2030 2030 2030 2030 2030 2030 2030 2030 
2030 2030 2030 2030 2030 2030 2030 2030 2030 
2030 2030 2030 2030 2030 2030 2030 2030 2030 
2030 2030 2030 2030 2030 2030 2030 2030 2030 
2030 2030 2030 2030 2030 2030 2030 2030 2030 
2030 2030 2030 2030 2030 2030 2030 2030 2030 
2030 2030 2030 2030 2030 2030 2030 2030 2030 
2030 2030 2030 2030 2030 2030 2030 2030 2030 
2030 2030 2030 2030 2030 2030 2030 2030 2030 
2030 2030 2030 2030 2030 2030 2030 2030 2030 
2030 2030 2030 2030 2030 2030 2030 2030 2030 
2030 2030 2030 2030 2030 2030 2030 2030 2030 
2030 2030 2030 2030 2030 2030 2030 2030 2030 
2030 2030 2030 2030 2030 2030 2030 2030 2030 
2030 2030 2030 2030 2030 2030 2030 2030 2030 
2030 2030 2030 2030 2030 2030 2030 2030 2030 
2030 2030 2030 2030 2030 2030 2030 2030 2030 
2030 2030 2030 2030 2030 2030 2030 2030 2030 
2030 2030 2030 2030 2030 2030 2030 2030 2030 
2030 2030 2030 2030 2030 2030 2030 2030 2030 
2030 2030 2030 2030 2030 2030 2030 2030 2030 
2030 2030 2030 2030 2030 2030 2030 2030 2030 
2030 2030 2030 2030 2030 2030 2030 2030 2030 
2030 2030 2030 2030 2030 2030 2030 2030 2030 
2030 2030 2030 2030 2030 2030 2030 2030 2030 
2030 2030 2030 2030 2030 2030 2030 2030 2030 
2030 2030 2030 2030 2030 2030 2030 2030 2030 
2030 2030 2030 2030 2030 2030 2030 2030 2030 
2030 2030 2030 2030 2030 2030 2030 2030 2030 
2030 2030 2030 2030 2030 2030 2030 2030 2030 
2030 2030 2030 2030 2030 2030 2030 2030 2030 
2030 2030 2030 2030 2030 2030 2030 2030 2030 
2030 2030 2030 2030 2030 2030 2030 2030 2030 
2030 2030 2030 2030 2030 2030 2030 2030 2030 
2030 2030 2030 2030 2030 2030 2030 2030 2030 
2030 2030 2030 2030 2030 2030 2030 2030 2030 
2030 2030 2030 2030 2030 2030 2030 2030 2030 
2030 2030 2030 2030 2030 2030 2030 2030 2030 
2030 2030 2030 2030 2030 2030 2030 2030 2030 
2030 2030 2030 2030 2030 2030 2030 2030 2030 
2030 2030 2030 2030 2030 2030 2030 2030 2030 
2030 2030 2030 2030 2030 2030 2030 2030 2030 
2030 2030 2030 2030 2030 2030 2030 2030 2030 
2030 2030 2030 2030 2030 2030 2030 2030 2030 
2030 2030 2030 2030 2030 2030 2030 2030 2030 
2030 2030 2030 2030 2030 2030 2030 2030 2030 
2030 2030 2030 2030 2030 2030 2030 2030 2030 
2030 2030 2030 2030 2030 2030 2030 2030 2030 
2030 2030 2030 2030 2030 2030 2030 2030 2030 
2030 2030 2030 2030 2030 2030 2030 2030 2030 
2030 2030 2030 2030 2030 2030 2030 2030 2030 
2030 2030 2030 2030 2030 2030 2030 2030 2030 
2030 2030 2030 2030 2030 2030 2030 2030 2030 
2030 2030 2030 2030 2030 2030 2030 2030 2030 
2030 2030 2030 2030 2030 2030 2030 2030 2030 
2030 2030 2030 2030 2030 2030 2030 2030 2030 
2030 2030 2030 2030 2030 2030 2030 2030 2030 
2030 2030 2030 2030 2030 2030 2030 2030 2030 
2030 2030 2030 2030 2030 2030 2030 2030 2030 
2030 2030 2030 2030 2030 2030 2030 2030 2030 
2030 2030 2030 2030 2030 2030 2030 2030 2030 
2030 2030 2030 2030 2030 2030 2030 2030 2030 
2030 2030 2030 2030 2030 2030 2030 2030 2030 
2030 2030 2030 2030 2030 2030 2030 2030 2030 
2030 2030 2030 2030 2030 2030 2030 2030 2030 
2030 2030 2030 2030 2030 2030 2030 2030 2030 
2030 2030 2030 2030 2030 2030 2030 2030 2030 
2030 2030 2030 2030 2030 2030 2030 2030 2030 
2030 2030 2030 2030 2030 2030 2030 2030 2030 
2030 2030 2030 2030 2030 2030 2030 2030 2030 
2030 2030 2030 2030 2030 2030 2030 2030 2030 
2030 2030 2030 2030 2030 2030 2030 2030 2030 
2030 2030 2030 2030 2030 2030 2030 2030 2030 
2030 2030 2030 2030 2030 2030 2030 2030 2030 
2030 2030 2030 2030 2030 2030 2030 2030 2030 
2030 2030 2030 2030 2030 2030 2030 2030 2030 
2030 2030 2030 2030 2030 2030 2030 2030 2030 
2030 2030 2030 2030 2030 2030 2030 2030 2030 
2030 2030 2030 2030 2030 2030 2030 2030 2030 
2030 2030 2030 2030 2030 2030 2030 2030 2030 
2030 2030 2030 2030 2030 2030 2030 2030 2030 
2030 2030 2030 2030 2030 2030 2030 2030 2030 
2030 2030 2030 2030 2030 2030 2030 2030 2030 
2030 2030 2030 2030 2030 2030 2030 2030 2030 
2030 2030 2030 2030 2030 2030 2030 2030 2030 
2030 2030 2030 2030 2030 2030 2030 2030 2030 
2030 2030 2030 2030 2030 2030 2030 2030 2030 
2030 2030 2030 2030 2030 2030 2030 2030 2030 
2030 2030 2030 2030 2030 2030 2030 2030 2030 
2030 2030 2030 2030 2030 2030 2030 2030 2030 
2030 2030 2030 2030 2030 2030 2030 2030 2030 
2030 2030 2030 2030 2030 2030 2030 2030 2030 
2030 2030 2030 2030 2030 2030 2030 2030 2030 
2030 2030 2030 2030 2030 2030 2030 2030 2030 
2030 2030 2030 2030 2030 2030 2030 2030 2030 
2030 2030 2030 2030 2030 2030 2030 2030 2030 
2030 2030 2030 2030 2030 2030 2030 2030 2030 
2030 2030 2030 2030 2030 2030 2030 2030 2030 
2030 2030 2030 2030 2030 2030 2030 2030 2030 
2030 2030 2030 2030 2030 2030 2030 2030 2030 
2030 2030 2030 2030 2030 2030 2030 2030 2030 
2030 2030 2030 2030 2030 2030 2030 2030 2030 
2030 2030 2030 2030 2030 2030 2030 2030 2030 
2030 2030 2030 2030 2030 2030 2030 2030 2030 
2030 2030 2030 2030 2030 2030 2030 2030 2030 
2030 2030 2030 2030 2030 2030 2030 2030 2030 
2030 2030 2030 2030 2030 2030 2030 2030 2030 
2030 2030 2030 2030 2030 2030 2030 2030 2030 
2030 2030 2030 2030 2030 2030 2030 2030 2030 
2030 2030 2030 2030 2030 2030 2030 2030 2030 
2030 2030 2030 2030 2030 2030 2030 2030 2030 
2030 2030 2030 2030 2030 2030 2030 2030 2030 
2030 2030 2030 2030 2030 2030 2030 2030 2030 
2030 2030 2030 2030 2030 2030 2030 2030 2030 
2030 2030 2030 2030 2030 2030 2030 2030 2030 
2030 2030 2030 2030 2030 2030 2030 2030 2030 
2030 2030 2030 2030 2030 2030 2030 2030 2030 
2030 2030 2030 2030 2030 2030 2030 2030 2030 
2030 2030 2030 2030 2030 2030 2030 2030 2030 
2030 2030 2030 2030 2030 2030 2030 2030 2030 
2030 2030 2030 2030 2030 2030 2030 2030 2030 
2030 2030 2030 2030 2030 2030 2030 2030 2030 
2030 2030 2030 2030 2030 2030 2030 2030 2030 
2030 2030 2030 2030 2030 2030 2030 2030 2030 
2030 2030 2030 2030 2030 2030 2030 2030 2030 
2030 2030 2030 2030 2030 2030 2030 2030 2030 
2030 2030 2030 2030 2030 2030 2030 2030 2030 
2030 2030 2030 2030 2030 2030 2030 2030 2030 
2030 2030 2030 2030 2030 2030 2030 2030 2030 
2030 2030 2030 2030 2030 2030 2030 2030 2030 
2030 2030 2030 2030 2030 2030 2030 2030 2030 
2030 2030 2030 2030 2030 2030 2030 2030 2030 
2030 2030 2030 2030 2030 2030 2030 2030 2030 
2030 2030 2030 2030 2030 2030 2030 2030 2030 
2030 2030 2030 2030 2030 2030 2030 2030 2030 
2030 2030 2030 2030 2030 2030 2030 2030 2030 
2030 2030 2030 2030 2030 2030 2030 2030 2030 
2030 2030 2030 2030 2030 2030 2030 2030 2030 
2030 2030 2030 2030 2030 2030 2030 2030 2030 
2030 2030 2030 2030 2030 2030 2030 2030 2030 
2030 2030 2030 2030 2030 2030 2030 2030 2030 
2030 2030 2030 2030 2030 2030 2030 2030 2030 
2030 2030 2030 2030 2030 2030 2030 2030 2030 
2030 2030 2030 2030 2030 2030 2030 2030 2030 
2030 2030 2030 2030 2030 2030 2030 2030 2030 
2030 2030 2030 2030 2030 2030 2030 2030 2030 
2030 2030 2030 2030 2030 2030 2030 2030 2030 
2030 2030 2030 2030 2030 2030 2030 2030 2030 
2030 2030 2030 2030 2030 2030 2030 2030 2030 
2030 2030 2030 2030 2030 2030 2030 2030 2030 
2030 2030 2030 2030 2030 2030 2030 2030 2030 
2030 2030 2030 2030 2030 2030 2030 2030 2030 
2030 2030 2030 2030 2030 2030 2030 2030 2030 
2030 2030 2030 2030 2030 2030 2030 2030 2030 
2030 2030 2030 2030 2030 2030 2030 2030 2030 
2030 2030 2030 2030 2030 2030 2030 2030 2030 
2030 2030 2030 2030 2030 2030 2030 2030 2030 
2030 2030 2030 2030 2030 2030 2030 2030 2030 
2030 2030 2030 2030 2030 2030 2030 2030 2030 
2030 2030 2030 2030 2030 2030 2030 2030 2030 
2030 2030 2030 2030 2030 2030 2030 2030 2030 
2030 2030 2030 2030 2030 2030 2030 2030 2030 
2030 2030 2030 2030 2030 2030 2030 2030 2030 
2030 2030 2030 2030 2030 2030 2030 2030 2030 
2030 2030 2030 2030 2030 2030 2030 2030 2030 
2030 2030 2030 2030 2030 2030 2030 2030 2030 
2030 2030 2030 2030 2030 2030 2030 2030 2030 
2030 2030 2030 2030 2030 2030 2030 2030 2030 
2030 2030 2030 2030 2030 2030 2030 2030 2030 
2030 2030 2030 2030 2030 2030 2030 2030 2030 
2030 2030 2030 2030 2030 2030 2030 2030 2030 
2030 2030 2030 2030 2030 2030 2030 2030 2030 
2030 2030 2030 2030 2030 2030 2030 2030 2030 
2030 2030 2030 2030 2030 2030 2030 2030 2030 
2030 2030 2030 2030 2030 2030 2030 2030 2030 
2030 2030 2030 2030 2030 2030 2030 2030 2030 
2030 2030 2030 2030 2030 2030 2030 2030 2030 
2030 2030 2030 2030 2030 2030 2030 2030 2030 
2030 2030 2030 2030 2030 2030 2030 2030 2030 
2030 2030 2030 2030 2030 2030 2030 2030 2030 
2030 2030 2030 2030 2030 2030 2030 2030 2030 
2030 2030 2030 2030 2030 2030 2030 2030 2030 
2030 2030 2030 2030 2030 2030 2030 2030 2030 
2030 2030 2030 2030 2030 2030 2030 2030 2030 
2030 2030 2030 2030 2030 2030 2030 2030 2030 
2030 2030 2030 2030 2030 2030 2030 2030 2030 
2030 2030 2030 2030 2030 2030 2030 2030 2030 
2030 2030 2030 2030 2030 2030 2030 2030 2030 
2030 2030 2030 2030 2030 2030 2030 2030 2030 
2030 2030 2030 2030 2030 2030 2030 2030 2030 
2030 2030 2030 2030 2030 2030 2030 2030 2030 