# vtk DataFile Version 4.2
vtk output
ASCII
DATASET POLYDATA
POINTS 14432 float
-27.9705 -9.44184 -7.93318 -27.9994 -9.20401 -8.07361 -27.7758 -9.36218 -8.10094 
-28.123 -9.29465 -8.07441 -26.8991 -10.0161 -7.84364 -26.824 -9.63318 -8.0538 
-26.471 -9.89338 -8.05194 -27.5855 -9.84435 -7.81982 -27.2815 -9.51535 -8.12884 
-28.1639 -10.0068 -7.81886 -28.33 -9.65603 -8.12669 -26.3723 -10.454 -7.8854 
-26.0639 -10.2389 -8.09105 -25.9733 -10.5153 -8.05239 -26.8934 -10.6107 -7.73827 
-27.4101 -10.5142 -7.72022 -28.0378 -10.5286 -7.72663 -28.5621 -10.1547 -7.99209 
-28.56 -10.5733 -7.84899 -28.8395 -10.4083 -8.20119 -26.1126 -10.8197 -8.11638 
-26.4832 -11.132 -8.06516 -26.677 -10.967 -7.86996 -27.2568 -11.0505 -7.81409 
-27.8774 -11.0607 -7.812 -28.4363 -11.057 -7.86498 -28.7771 -10.921 -8.10779 
-26.8397 -11.3734 -8.15169 -27.5881 -11.436 -8.05569 -28.1686 -11.3652 -8.09003 
-28.5557 -11.2341 -8.14237 -26.8458 -9.4119 -8.37305 -26.8662 -9.08311 -8.7837 
-26.4492 -9.39886 -8.61243 -27.428 -9.30732 -8.47946 -27.3884 -9.11259 -8.78532 
-28.1256 -9.34446 -8.2821 -27.7804 -9.21822 -8.78968 -25.7031 -9.88484 -8.52137 
-25.5987 -9.61444 -8.78267 -25.3979 -9.95815 -8.75445 -26.1508 -9.83202 -8.35653 
-25.9992 -9.55066 -8.67556 -27.8823 -9.37355 -8.50779 -28.584 -9.52191 -8.74542 
-28.701 -9.96473 -8.31184 -28.9796 -9.99458 -8.69054 -25.7131 -10.3581 -8.36547 
-25.3618 -10.5455 -8.88217 -28.9971 -10.6157 -8.72356 -25.7176 -10.85 -8.55991 
-26.1851 -11.1415 -8.37069 -25.8627 -11.1204 -8.67402 -28.6922 -11.0348 -8.41472 
-28.4466 -11.3005 -8.48967 -28.6974 -10.9767 -8.76593 -26.1822 -11.4202 -8.68075 
-26.7498 -11.6759 -8.47212 -26.4871 -11.7163 -8.68247 -27.2667 -11.7259 -8.36956 
-27.9396 -11.6684 -8.39506 -28.4424 -11.6765 -8.58186 -28.5995 -11.4222 -8.67839 
-28.7983 -11.6637 -8.8924 -26.8211 -11.9637 -8.75397 -27.5753 -12.0389 -8.65732 
-28.1929 -12.0238 -8.65452 -28.5579 -11.9524 -8.68484 -24.6002 -6.3187 -9.06486 
-24.5308 -6.01049 -9.39934 -24.1093 -6.30622 -9.33513 -25.1301 -6.39538 -9.06529 
-24.8712 -6.05689 -9.2812 -25.2968 -6.22575 -9.47284 -24.4462 -6.87248 -9.01862 
-24.0696 -7.05038 -9.25068 -25 -6.87565 -8.91536 -25.5532 -6.5512 -9.27263 
-25.5429 -6.91646 -9.06262 -25.7991 -6.89193 -9.39618 -24.3811 -7.36055 -9.1083 
-24.1925 -7.55995 -9.31382 -24.9143 -7.47546 -9.01591 -25.6519 -7.516 -9.00994 
-25.9496 -7.35278 -9.41039 -24.5976 -7.76913 -9.27551 -25.0669 -7.90347 -9.24577 
-25.394 -8.20455 -9.34926 -25.5967 -8.03203 -9.08293 -26.2885 -7.74705 -9.31573 
-26.3087 -8.10051 -9.01397 -26.8576 -8.2223 -9.08573 -26.7129 -7.93478 -9.24036 
-26.9969 -8.0944 -9.40188 -25.7292 -8.452 -9.26344 -25.8053 -8.8041 -9.26662 
-26.0843 -8.65352 -9.04384 -26.7458 -8.68003 -8.99203 -27.1511 -8.54158 -9.40854 
-25.8249 -9.20704 -9.02531 -25.5546 -9.05576 -9.35121 -25.3564 -9.50588 -9.17622 
-26.3373 -9.13522 -8.85232 -27.3972 -8.90933 -9.25735 -28.2472 -9.25652 -8.97069 
-28.0251 -9.0512 -9.28575 -28.6188 -9.25878 -9.10841 -28.5452 -9.11023 -9.33636 
-28.8484 -9.25562 -9.38647 -25.1866 -10.0707 -9.18624 -29.2877 -10.1097 -9.06199 
-29.1174 -9.66814 -9.31147 -29.3837 -10.0325 -9.37439 -25.1692 -10.6318 -9.39787 
-27.4951 -10.5179 -9.11871 -27.2416 -10.5956 -9.38821 -27.3377 -10.3805 -9.38466 
-27.7605 -10.2588 -9.32956 -27.8413 -10.5745 -9.11966 -28.155 -10.4417 -9.30041 
-29.2921 -10.447 -9.06756 -29.3892 -10.3466 -9.27602 -25.6089 -11.0663 -8.90977 
-25.3702 -11.0363 -9.32682 -27.5658 -10.7353 -9.31481 -28.111 -10.7209 -9.41551 
-28.6699 -11.2154 -8.83826 -28.9398 -10.9888 -9.297 -29.2199 -10.6339 -9.20665 
-25.7196 -11.4111 -9.20115 -26.1896 -11.7197 -8.98064 -25.9039 -11.7262 -9.47614 
-29.0792 -11.5709 -9.29198 -26.3292 -12.0169 -9.20555 -26.7429 -12.261 -9.07557 
-26.5247 -12.3081 -9.47011 -27.3337 -12.3932 -8.97125 -28.0377 -12.412 -8.87129 
-28.6613 -12.2379 -8.89325 -29.2213 -11.9589 -9.30418 -29.0824 -12.4604 -9.13435 
-29.4813 -12.256 -9.37846 -26.9271 -12.477 -9.2738 -27.3598 -12.6996 -9.29533 
-27.6987 -12.9291 -9.28018 -27.879 -12.7816 -9.09116 -28.5194 -12.7903 -9.06726 
-28.9943 -12.8275 -9.21528 -29.3502 -12.5708 -9.31825 -28.0287 -13.1633 -9.351 
-28.6717 -13.1321 -9.29059 -23.3868 -5.72357 -9.66887 -23.1732 -5.43109 -10.056 
-22.9281 -5.8523 -9.85318 -23.8778 -5.79558 -9.63705 -23.7758 -5.46392 -9.94189 
-24.2204 -5.78875 -10.0845 -23.2622 -6.27321 -9.62378 -22.8915 -6.44583 -9.86178 
-23.6358 -6.13839 -9.4927 -24.4139 -5.98699 -9.76812 -24.9285 -6.03474 -9.69361 
-25.356 -6.34306 -9.90221 -23.2708 -6.85692 -9.67956 -22.9573 -6.85483 -9.87116 
-23.6875 -6.71076 -9.46398 -25.661 -6.61252 -9.69405 -25.8719 -7.03897 -9.74984 
-23.1263 -7.21214 -9.93151 -23.4588 -7.71513 -9.96486 -23.7613 -7.43093 -9.55932 
-26.0439 -7.34348 -9.98191 -23.8849 -8.08751 -9.6951 -23.613 -8.2327 -10.0288 
-24.3844 -8.0759 -9.52006 -24.9896 -8.19565 -9.47751 -26.2763 -7.63028 -9.74553 
-26.7063 -7.87629 -9.81039 -27.0458 -8.29016 -9.93595 -23.896 -8.46531 -9.82031 
-24.0827 -8.71511 -9.86024 -24.3772 -8.63079 -9.69579 -24.9214 -8.59603 -9.60286 
-25.4417 -8.63998 -9.48257 -27.2469 -8.69619 -10.0002 -24.3337 -9.0037 -9.95014 
-24.6738 -9.51015 -9.97495 -25.0242 -9.11664 -9.61025 -27.4619 -8.8734 -9.81151 
-27.9844 -9.04062 -9.91881 -28.5951 -9.07868 -9.74527 -28.8665 -9.35198 -9.79517 
-25.0146 -9.74101 -9.55646 -24.7955 -10.0056 -9.87991 -28.2404 -9.99169 -9.63535 
-27.7779 -9.85269 -9.84467 -28.0951 -9.63957 -9.93452 -28.4738 -9.52216 -9.95457 
-28.8622 -9.87779 -9.66558 -29.2389 -9.9395 -9.525 -24.9811 -10.2969 -9.59741 
-24.8059 -10.4464 -10.0661 -27.2055 -10.3516 -9.94191 -27.4274 -10.1496 -9.72216 
-28.601 -10.5031 -9.52897 -29.1716 -10.376 -9.47964 -25.015 -10.7159 -9.8275 
-25.2685 -11.0536 -9.94261 -27.3357 -10.7043 -9.71625 -27.8242 -10.7669 -9.78558 
-28.5916 -10.7646 -9.86167 -29.2359 -11.2968 -9.64075 -29.1325 -10.9607 -9.85637 
-29.3817 -11.1019 -10.0611 -25.5662 -11.4105 -9.74903 -25.8703 -11.7104 -10.0593 
-29.247 -11.6367 -9.51367 -29.531 -11.5332 -9.93029 -26.1661 -12.0234 -9.74433 
-26.4727 -12.3117 -10.0442 -29.774 -12.4971 -9.57198 -29.7169 -12.0005 -9.71925 
-30.1367 -12.2863 -9.8737 -26.8923 -12.6125 -9.71963 -27.4115 -12.93 -9.56397 
-27.134 -12.9278 -10.0582 -29.2616 -13.0422 -9.45466 -29.8195 -12.9287 -9.5695 
-30.2177 -12.8999 -9.7326 -30.4182 -12.5725 -9.88675 -30.589 -12.8095 -9.92054 
-27.552 -13.2277 -9.79129 -27.9523 -13.4833 -9.65956 -27.7167 -13.5281 -10.0648 
-28.5332 -13.4711 -9.55295 -29.101 -13.5322 -9.65114 -29.7102 -13.383 -9.67342 
-30.1668 -13.4247 -9.82066 -30.5176 -13.1797 -9.90083 -25.056 -14.279 -9.67633 
-25.0831 -13.9114 -10.0143 -24.6468 -14.0482 -9.91576 -25.3503 -14.0193 -9.95301 
-28.1789 -13.7029 -9.95684 -28.7645 -13.7532 -9.93832 -29.3706 -13.7484 -9.95175 
-29.9439 -13.7053 -10.017 -24.576 -14.6795 -9.64112 -24.2784 -14.4364 -9.87607 
-24.1265 -14.9037 -9.8428 -25.0704 -14.7881 -9.53156 -25.5436 -14.253 -9.7929 
-25.6459 -14.6856 -9.58936 -26.3349 -14.8428 -9.65771 -26.1632 -14.3598 -9.96985 
-26.5729 -14.6331 -9.93967 -24.3606 -15.17 -9.69735 -24.119 -15.2535 -9.85859 
-24.8167 -15.1984 -9.63993 -25.5159 -15.2801 -9.61273 -26.2065 -15.3005 -9.51854 
-26.8637 -14.9219 -9.9538 -26.8632 -15.3728 -9.62297 -27.1706 -15.236 -9.92865 
-24.407 -15.5182 -9.96895 -25.1444 -15.5897 -9.89028 -25.667 -15.689 -9.8565 
-25.9684 -15.9863 -9.94176 -26.1849 -15.8307 -9.65837 -26.8023 -15.9135 -9.51699 
-27.4589 -15.5194 -9.95139 -27.3369 -15.9528 -9.64294 -27.7336 -15.9011 -9.93653 
-26.3113 -16.2471 -9.84918 -26.5325 -16.6201 -10.0162 -26.717 -16.36 -9.67851 
-27.2232 -16.4369 -9.65531 -27.6914 -16.4686 -9.91421 -24.9489 -16.9044 -9.89573 
-24.793 -17.2654 -9.80707 -25.1961 -17.2165 -9.66167 -25.6389 -17.25 -9.69326 
-25.435 -16.8383 -9.87282 -25.8633 -17.0372 -9.92124 -27.0187 -16.7028 -9.95251 
-27.3696 -16.6991 -9.89687 -24.9934 -17.5857 -9.67003 -24.7858 -17.5907 -9.9656 
-25.4179 -17.6478 -9.65706 -25.8826 -17.5376 -9.86127 -25.1176 -17.8611 -9.80504 
-25.5416 -17.9978 -9.97916 -22.6713 -5.64795 -10.1507 -22.6165 -5.43969 -10.5777 
-22.3196 -5.85504 -10.445 -23.3278 -5.33676 -10.5569 -23.734 -5.33897 -10.3569 
-24.4542 -5.66797 -10.3172 -24.2505 -5.50079 -10.4047 -24.5165 -5.65521 -10.486 
-22.572 -6.12981 -10.1443 -22.2506 -6.44973 -10.4732 -24.4614 -6.34863 -10.1473 
-24.1919 -6.27691 -10.4974 -24.3756 -5.81446 -10.5032 -24.9669 -6.3579 -10.0645 
-22.6412 -6.78024 -10.1677 -22.2723 -6.92826 -10.5677 -24.3447 -6.80151 -10.33 
-24.1965 -6.79235 -10.6305 -24.8164 -6.85253 -10.2737 -25.5599 -6.9068 -10.1898 
-22.6539 -7.2254 -10.4709 -23.1044 -7.47238 -10.2184 -22.9411 -7.51386 -10.671 
-24.4941 -7.06707 -10.4463 -25.0659 -7.10536 -10.5622 -25.6159 -7.15148 -10.5681 
-26.0308 -7.30839 -10.4951 -26.3771 -7.61329 -10.2066 -26.3559 -7.64073 -10.5758 
-23.246 -7.70374 -10.4039 -23.4083 -8.03172 -10.4605 -26.6224 -8.02295 -10.44 
-26.8655 -8.08519 -10.1939 -23.8376 -8.67166 -10.0771 -23.5779 -8.56822 -10.573 
-26.883 -8.35336 -10.4098 -27.0582 -8.68787 -10.4646 -23.9437 -9.00818 -10.3827 
-24.3127 -9.27564 -10.2302 -24.1111 -9.41517 -10.6632 -27.5022 -8.99458 -10.5016 
-27.9511 -9.38725 -10.1947 -27.673 -9.33677 -10.5892 -28.5046 -9.20813 -10.0594 
-24.4224 -9.58403 -10.371 -24.5968 -10.0548 -10.4375 -27.429 -9.82302 -10.2301 
-27.2136 -9.98249 -10.4404 -27.4451 -9.64814 -10.5914 -27.9835 -9.69653 -10.5407 
-27.7017 -9.79032 -10.5701 -27.9878 -10.1076 -10.383 -28.2497 -9.79256 -10.556 
-24.7707 -10.5348 -10.5831 -27.3823 -10.1224 -10.412 -27.5337 -10.5043 -10.1176 
-28.091 -10.5571 -10.1284 -28.5154 -10.1266 -10.4913 -28.5838 -10.468 -10.3031 
-28.8845 -10.3756 -10.5457 -25.0537 -10.8313 -10.4294 -25.3839 -11.0798 -10.5615 
-29.1307 -10.761 -10.3163 -29.5383 -11.2247 -10.6089 -25.6753 -11.3381 -10.4948 
-25.9872 -11.6577 -10.5623 -29.8737 -11.4948 -10.5054 -30.0414 -11.7773 -10.1579 
-30.5468 -11.8433 -10.3151 -30.2669 -11.5158 -10.5544 -30.6727 -11.6128 -10.5483 
-26.1836 -11.9717 -10.3284 -26.4967 -12.2005 -10.6826 -30.5193 -12.3189 -10.0741 
[...]
CELL_DATA 28892
SCALARS scalars float
LOOKUP_TABLE default
1031 1031 1031 1031 1031 1031 1031 1031 1031 
1031 1031 1031 1031 1031 1031 1031 1031 1031 
1031 1031 1031 1031 1031 1031 1031 1031 1031 
1031 1031 1031 1031 1031 1031 1031 1031 1031 
1031 1031 1031 1031 1031 1031 1031 1031 1031 
1031 1031 1031 1031 1031 1031 1031 1031 1031 
1031 1031 1031 1031 1031 1031 1031 1031 1031 
1031 1031 1031 1031 1031 1031 1031 1031 1031 
1031 1031 1031 1031 1031 1031 1031 1031 1031 
1031 1031 1031 1031 1031 1031 1031 1031 1031 
1031 1031 1031 1031 1031 1031 1031 1031 1031 
1031 1031 1031 1031 1031 1031 1031 1031 1031 
1031 1031 1031 1031 1031 1031 1031 1031 1031 
1031 1031 1031 1031 1031 1031 1031 1031 1031 
1031 1031 1031 1031 1031 1031 1031 1031 1031 
1031 1031 1031 1031 1031 1031 1031 1031 1031 
1031 1031 1031 1031 1031 1031 1031 1031 1031 
1031 1031 1031 1031 1031 1031 1031 1031 1031 
1031 1031 1031 1031 1031 1031 1031 1031 1031 
1031 1031 1031 1031 1031 1031 1031 1031 1031 
1031 1031 1031 1031 1031 1031 1031 1031 1031 
1031 1031 1031 1031 1031 1031 1031 1031 1031 
1031 1031 1031 1031 1031 1031 1031 1031 1031 
1031 1031 1031 1031 1031 1031 1031 1031 1031 
1031 1031 1031 1031 1031 1031 1031 1031 1031 
1031 1031 1031 1031 1031 1031 1031 1031 1031 
1031 1031 1031 1031 1031 1031 1031 1031 1031 
1031 1031 1031 1031 1031 1031 1031 1031 1031 
1031 1031 1031 1031 1031 1031 1031 1031 1031 
1031 1031 1031 1031 1031 1031 1031 1031 1031 
1031 1031 1031 1031 1031 1031 1031 1031 1031 
1031 1031 1031 1031 1031 1031 1031 1031 1031 
1031 1031 1031 1031 1031 1031 1031 1031 1031 
1031 1031 1031 1031 1031 1031 1031 1031 1031 
1031 1031 1031 1031 1031 1031 1031 1031 1031 
1031 1031 1031 1031 1031 1031 1031 1031 1031 
1031 1031 1031 1031 1031 1031 1031 1031 1031 
1031 1031 1031 1031 1031 1031 1031 1031 1031 
1031 1031 1031 1031 1031 1031 1031 1031 1031 
1031 1031 1031 1031 1031 1031 1031 1031 1031 
1031 1031 1031 1031 1031 1031 1031 1031 1031 
1031 1031 1031 1031 1031 1031 1031 1031 1031 
1031 1031 1031 1031 1031 1031 1031 1031 1031 
1031 1031 1031 1031 1031 1031 1031 1031 1031 
1031 1031 1031 1031 1031 1031 1031 1031 1031 
1031 1031 1031 1031 1031 1031 1031 1031 1031 
1031 1031 1031 1031 1031 1031 1031 1031 1031 
1031 1031 1031 1031 1031 1031 1031 1031 1031 
1031 1031 1031 1031 1031 1031 1031 1031 1031 
1031 1031 1031 1031 1031 1031 1031 1031 1031 
1031 1031 1031 1031 1031 1031 1031 1031 1031 
1031 1031 1031 1031 1031 1031 1031 1031 1031 
1031 1031 1031 1031 1031 1031 1031 1031 1031 
1031 1031 1031 1031 1031 1031 1031 1031 1031 
1031 1031 1031 1031 1031 1031 1031 1031 1031 
1031 1031 1031 1031 1031 1031 1031 1031 1031 
1031 1031 1031 1031 1031 1031 1031 1031 1031 
1031 1031 1031 1031 1031 1031 1031 1031 1031 
1031 1031 1031 1031 1031 1031 1031 1031 1031 
1031 1031 1031 1031 1031 1031 1031 1031 1031 
1031 1031 1031 1031 1031 1031 1031 1031 1031 
1031 1031 1031 1031 1031 1031 1031 1031 1031 
1031 1031 1031 1031 1031 1031 1031 1031 1031 
1031 1031 1031 1031 1031 1031 1031 1031 1031 
1031 1031 1031 1031 1031 1031 1031 1031 1031 
1031 1031 1031 1031 1031 1031 1031 1031 1031 
1031 1031 1031 1031 1031 1031 1031 1031 1031 
1031 1031 1031 1031 1031 1031 1031 1031 1031 
1031 1031 1031 1031 1031 1031 1031 1031 1031 
1031 1031 1031 1031 1031 1031 1031 1031 1031 
1031 1031 1031 1031 1031 1031 1031 1031 1031 
1031 1031 1031 1031 1031 1031 1031 1031 1031 
1031 1031 1031 1031 1031 1031 1031 1031 1031 
1031 1031 1031 1031 1031 1031 1031 1031 1031 
1031 1031 1031 1031 1031 1031 1031 1031 1031 
1031 1031 1031 1031 1031 1031 1031 1031 1031 
1031 1031 1031 1031 1031 1031 1031 1031 1031 
1031 1031 1031 1031 1031 1031 1031 1031 1031 
1031 1031 1031 1031 1031 1031 1031 1031 1031 
1031 1031 1031 1031 1031 1031 1031 1031 1031 
1031 1031 1031 1031 1031 1031 1031 1031 1031 
1031 1031 1031 1031 1031 1031 1031 1031 1031 
1031 1031 1031 1031 1031 1031 1031 1031 1031 
1031 1031 1031 1031 1031 1031 1031 1031 1031 
1031 1031 1031 1031 1031 1031 1031 1031 1031 
1031 1031 1031 1031 1031 1031 1031 1031 1031 
1031 1031 1031 1031 1031 1031 1031 1031 1031 
1031 1031 1031 1031 1031 1031 1031 1031 1031 
1031 1031 1031 1031 1031 1031 1031 1031 1031 
1031 1031 1031 1031 1031 1031 1031 1031 1031 
1031 1031 1031 1031 1031 1031 1031 1031 1031 
1031 1031 1031 1031 1031 1031 1031 1031 1031 
1031 1031 1031 1031 1031 1031 1031 1031 1031 
1031 1031 1031 1031 1031 1031 1031 1031 1031 
1031 1031 1031 1031 1031 1031 1031 1031 1031 
1031 1031 1031 1031 1031 1031 1031 1031 1031 
1031 1031 1031 1031 1031 1031 1031 1031 1031 
1031 1031 1031 1031 1031 1031 1031 1031 1031 
1031 1031 1031 1031 1031 1031 1031 1031 1031 
1031 1031 1031 1031 1031 1031 1031 1031 1031 
1031 1031 1031 1031 1031 1031 1031 1031 1031 
1031 1031 1031 1031 1031 1031 1031 1031 1031 
1031 1031 1031 1031 1031 1031 1031 1031 1031 
1031 1031 1031 1031 1031 1031 1031 1031 1031 
1031 1031 1031 1031 1031 1031 1031 1031 1031 
1031 1031 1031 1031 1031 1031 1031 1031 1031 
1031 1031 1031 1031 1031 1031 1031 1031 1031 
1031 1031 1031 1031 1031 1031 1031 1031 1031 
1031 1031 1031 1031 1031 1031 1031 1031 1031 
1031 1031 1031 1031 1031 1031 1031 1031 1031 
1031 1031 1031 1031 1031 1031 1031 1031 1031 
1031 1031 1031 1031 1031 1031 1031 1031 1031 
1031 1031 1031 1031 1031 1031 1031 1031 1031 
1031 1031 1031 1031 1031 1031 1031 1031 1031 
1031 1031 1031 1031 1031 1031 1031 1031 1031 
1031 1031 1031 1031 1031 1031 1031 1031 1031 
1031 1031 1031 1031 1031 1031 1031 1031 1031 
1031 1031 1031 1031 1031 1031 1031 1031 1031 
1031 1031 1031 1031 1031 1031 1031 1031 1031 
1031 1031 1031 1031 1031 1031 1031 1031 1031 
1031 1031 1031 1031 1031 1031 1031 1031 1031 
1031 1031 1031 1031 1031 1031 1031 1031 1031 
1031 1031 1031 1031 1031 1031 1031 1031 1031 
1031 1031 1031 1031 1031 1031 1031 1031 1031 
1031 1031 1031 1031 1031 1031 1031 1031 1031 
1031 1031 1031 1031 1031 1031 1031 1031 1031 
1031 1031 1031 1031 1031 1031 1031 1031 1031 
1031 1031 1031 1031 1031 1031 1031 1031 1031 
1031 1031 1031 1031 1031 1031 1031 1031 1031 
1031 1031 1031 1031 1031 1031 1031 1031 1031 
1031 1031 1031 1031 1031 1031 1031 1031 1031 
1031 1031 1031 1031 1031 1031 1031 1031 1031 
1031 1031 1031 1031 1031 1031 1031 1031 1031 
1031 1031 1031 1031 1031 1031 1031 1031 1031 
1031 1031 1031 1031 1031 1031 1031 1031 1031 
1031 1031 1031 1031 1031 1031 1031 1031 1031 
1031 1031 1031 1031 1031 1031 1031 1031 1031 
1031 1031 1031 1031 1031 1031 1031 1031 1031 
1031 1031 1031 1031 1031 1031 1031 1031 1031 
1031 1031 1031 1031 1031 1031 1031 1031 1031 
1031 1031 1031 1031 1031 1031 1031 1031 1031 
1031 1031 1031 1031 1031 1031 1031 1031 1031 
1031 1031 1031 1031 1031 1031 1031 1031 1031 
1031 1031 1031 1031 1031 1031 1031 1031 1031 
1031 1031 1031 1031 1031 1031 1031 1031 1031 
1031 1031 1031 1031 1031 1031 1031 1031 1031 
1031 1031 1031 1031 1031 1031 1031 1031 1031 
1031 1031 1031 1031 1031 1031 1031 1031 1031 
1031 1031 1031 1031 1031 1031 1031 1031 1031 
1031 1031 1031 1031 1031 1031 1031 1031 1031 
1031 1031 1031 1031 1031 1031 1031 1031 1031 
1031 1031 1031 1031 1031 1031 1031 1031 1031 
1031 1031 1031 1031 1031 1031 1031 1031 1031 
1031 1031 1031 1031 1031 1031 1031 1031 1031 
1031 1031 1031 1031 1031 1031 1031 1031 1031 
1031 1031 1031 1031 1031 1031 1031 1031 1031 
1031 1031 1031 1031 1031 1031 1031 1031 1031 
1031 1031 1031 1031 1031 1031 1031 1031 1031 
1031 1031 1031 1031 1031 1031 1031 1031 1031 
1031 1031 1031 1031 1031 1031 1031 1031 1031 
1031 1031 1031 1031 1031 1031 1031 1031 1031 
1031 1031 1031 1031 1031 1031 1031 1031 1031 
1031 1031 1031 1031 1031 1031 1031 1031 1031 
1031 1031 1031 1031 1031 1031 1031 1031 1031 
1031 1031 1031 1031 1031 1031 1031 1031 1031 
1031 1031 1031 1031 1031 1031 1031 1031 1031 
1031 1031 1031 1031 1031 1031 1031 1031 1031 
1031 1031 1031 1031 1031 1031 1031 1031 1031 
1031 1031 1031 1031 1031 1031 1031 1031 1031 
1031 1031 1031 1031 1031 1031 1031 1031 1031 
1031 1031 1031 1031 1031 1031 1031 1031 1031 
1031 1031 1031 1031 1031 1031 1031 1031 1031 
1031 1031 1031 1031 1031 1031 1031 1031 1031 
1031 1031 1031 1031 1031 1031 1031 1031 1031 
1031 1031 1031 1031 1031 1031 1031 1031 1031 
1031 1031 1031 1031 1031 1031 1031 1031 1031 
1031 1031 1031 1031 1031 1031 1031 1031 1031 
1031 1031 1031 1031 1031 1031 1031 1031 1031 
1031 1031 1031 1031 1031 1031 1031 1031 1031 
1031 1031 1031 1031 1031 1031 1031 1031 1031 
1031 1031 1031 1031 1031 1031 1031 1031 1031 
1031 1031 1031 1031 1031 1031 1031 1031 1031 
1031 1031 1031 1031 1031 1031 1031 1031 1031 
1031 1031 1031 1031 1031 1031 1031 1031 1031 
1031 1031 1031 1031 1031 1031 1031 1031 1031 
1031 1031 1031 1031 1031 1031 1031 1031 1031 
1031 1031 1031 1031 1031 1031 1031 1031 1031 
1031 1031 1031 1031 1031 1031 1031 1031 1031 
1031 1031 1031 1031 1031 1031 1031 1031 1031 
1031 1031 1031 1031 1031 1031 1031 1031 1031 
1031 1031 1031 1031 1031 1031 1031 1031 1031 
1031 1031 1031 1031 1031 1031 1031 1031 1031 
1031 1031 1031 1031 1031 1031 1031 1031 1031 
1031 1031 1031 1031 1031 1031 1031 1031 1031 
1031 1031 1031 1031 1031 1031 1031 1031 1031 
1031 1031 1031 1031 1031 1031 1031 1031 1031 
1031 1031 1031 1031 1031 1031 1031 1031 1031 
1031 1031 1031 1031 1031 1031 1031 1031 1031 
1031 1031 1031 1031 1031 1031 1031 1031 1031 
1031 1031 1031 1031 1031 1031 1031 1031 1031 
1031 1031 1031 1031 1031 1031 1031 1031 1031 
1031 1031 1031 1031 1031 1031 1031 1031 1031 
1031 1031 1031 1031 1031 1031 1031 1031 1031 
1031 1031 1031 1031 1031 1031 1031 1031 1031 
1031 1031 1031 1031 1031 1031 1031 1031 1031 
1031 1031 1031 1031 1031 1031 1031 1031 1031 
1031 1031 1031 1031 1031 1031 1031 1031 1031 
1031 1031 1031 1031 1031 1031 1031 1031 1031 
1031 1031 1031 1031 1031 1031 1031 1031 1031 
1031 1031 1031 1031 1031 1031 1031 1031 1031 
1031 1031 1031 1031 1031 1031 1031 1031 1031 
1031 1031 1031 1031 1031 1031 1031 1031 1031 
1031 1031 1031 1031 1031 1031 1031 1031 1031 
1031 1031 1031 1031 1031 1031 1031 1031 1031 
1031 1031 1031 1031 1031 1031 1031 1031 1031 
1031 1031 1031 1031 1031 1031 1031 1031 1031 
1031 1031 1031 1031 1031 1031 1031 1031 1031 
1031 1031 1031 1031 1031 1031 1031 1031 1031 
1031 1031 1031 1031 1031 1031 1031 1031 1031 
1031 1031 1031 1031 1031 1031 1031 1031 1031 
1031 1031 1031 1031 1031 1031 1031 1031 1031 
1031 1031 1031 1031 1031 1031 1031 1031 1031 
1031 1031 1031 1031 1031 1031 1031 1031 1031 
1031 1031 1031 1031 1031 1031 1031 1031 1031 
1031 1031 1031 1031 1031 1031 1031 1031 1031 
1031 1031 1031 1031 1031 1031 1031 1031 1031 
1031 1031 1031 1031 1031 1031 1031 1031 1031 
1031 1031 1031 1031 1031 1031 1031 1031 1031 
1031 1031 1031 1031 1031 1031 1031 1031 1031 
1031 1031 1031 1031 1031 1031 1031 1031 1031 
1031 1031 1031 1031 1031 1031 1031 1031 1031 
1031 1031 1031 1031 1031 1031 1031 1031 1031 
1031 1031 1031 1031 1031 1031 1031 1031 1031 
1031 1031 1031 1031 1031 1031 1031 1031 1031 
1031 1031 1031 1031 1031 1031 1031 1031 1031 
1031 1031 1031 1031 1031 1031 1031 1031 1031 
1031 1031 1031 1031 1031 1031 1031 1031 1031 
1031 1031 1031 1031 1031 1031 1031 1031 1031 
1031 1031 1031 1031 1031 1031 1031 1031 1031 
1031 1031 1031 1031 1031 1031 1031 1031 1031 
1031 1031 1031 1031 1031 1031 1031 1031 1031 
1031 1031 1031 1031 1031 1031 1031 1031 1031 
1031 1031 1031 1031 1031 1031 1031 1031 1031 
1031 1031 1031 1031 1031 1031 1031 1031 1031 
1031 1031 1031 1031 1031 1031 1031 1031 1031 
1031 1031 1031 1031 1031 1031 1031 1031 1031 
1031 1031 1031 1031 1031 1031 1031 1031 1031 
1031 1031 1031 1031 1031 1031 1031 1031 1031 
1031 1031 1031 1031 1031 1031 1031 1031 1031 
1031 1031 1031 1031 1031 1031 1031 1031 1031 
1031 1031 1031 1031 1031 1031 1031 1031 1031 
1031 1031 1031 1031 1031 1031 1031 1031 1031 
1031 1031 1031 1031 1031 1031 1031 1031 1031 
1031 1031 1031 1031 1031 1031 1031 1031 1031 
1031 1031 1031 1031 1031 1031 1031 1031 1031 
1031 1031 1031 1031 1031 1031 1031 1031 1031 
1031 1031 1031 1031 1031 1031 1031 1031 1031 
1031 1031 1031 1031 1031 1031 1031 1031 1031 
1031 1031 1031 1031 1031 1031 1031 1031 1031 
1031 1031 1031 1031 1031 1031 1031 1031 1031 
1031 1031 1031 1031 1031 1031 1031 1031 1031 
1031 1031 1031 1031 1031 1031 1031 1031 1031 
1031 1031 1031 1031 1031 1031 1031 1031 1031 
1031 1031 1031 1031 1031 1031 1031 1031 1031 
1031 1031 1031 1031 1031 1031 1031 1031 1031 
1031 1031 1031 1031 1031 1031 1031 1031 1031 
1031 1031 1031 1031 1031 1031 1031 1031 1031 
1031 1031 1031 1031 1031 1031 1031 1031 1031 
1031 1031 1031 1031 1031 1031 1031 1031 1031 
1031 1031 1031 1031 1031 1031 1031 1031 1031 
1031 1031 1031 1031 1031 1031 1031 1031 1031 
1031 1031 1031 1031 1031 1031 1031 1031 1031 
1031 1031 1031 1031 1031 1031 1031 1031 1031 
1031 1031 1031 1031 1031 1031 1031 1031 1031 
1031 1031 1031 1031 1031 1031 1031 1031 1031 
1031 1031 1031 1031 1031 1031 1031 1031 1031 
1031 1031 1031 1031 1031 1031 1031 1031 1031 
1031 1031 1031 1031 1031 1031 1031 1031 1031 
1031 1031 1031 1031 1031 1031 1031 1031 1031 
1031 1031 1031 1031 1031 1031 1031 1031 1031 
1031 1031 1031 1031 1031 1031 1031 1031 1031 
1031 1031 1031 1031 1031 1031 1031 1031 1031 
1031 1031 1031 1031 1031 1031 1031 1031 1031 
1031 1031 1031 1031 1031 1031 1031 1031 1031 
1031 1031 1031 1031 1031 1031 1031 1031 1031 
1031 1031 1031 1031 1031 1031 1031 1031 1031 
1031 1031 1031 1031 1031 1031 1031 1031 1031 
1031 1031 1031 1031 1031 1031 1031 1031 1031 
1031 1031 1031 1031 1031 1031 1031 1031 1031 
1031 1031 1031 1031 1031 1031 1031 1031 1031 
1031 1031 1031 1031 1031 1031 1031 1031 1031 
1031 1031 1031 1031 1031 1031 1031 1031 1031 
1031 1031 1031 1031 1031 1031 1031 1031 1031 
1031 1031 1031 1031 1031 1031 1031 1031 1031 
1031 1031 1031 1031 1031 1031 1031 1031 1031 
1031 1031 1031 1031 1031 1031 1031 1031 1031 
1031 1031 1031 1031 1031 1031 1031 1031 1031 
1031 1031 1031 1031 1031 1031 1031 1031 1031 
1031 1031 1031 1031 1031 1031 1031 1031 1031 
1031 1031 1031 1031 1031 1031 1031 1031 1031 
1031 1031 1031 1031 1031 1031 1031 1031 1031 
1031 1031 1031 1031 1031 1031 1031 1031 1031 
1031 1031 1031 1031 1031 1031 1031 1031 1031 
1031 1031 1031 1031 1031 1031 1031 1031 1031 
1031 1031 1031 1031 1031 1031 1031 1031 1031 
1031 1031 1031 1031 1031 1031 1031 1031 1031 
1031 1031 1031 1031 1031 1031 1031 1031 1031 
1031 1031 1031 1031 1031 1031 1031 1031 1031 
1031 1031 1031 1031 1031 1031 1031 1031 1031 
1031 1031 1031 1031 1031 1031 1031 1031 1031 
1031 1031 1031 1031 1031 1031 1031 1031 1031 
1031 1031 1031 1031 1031 1031 1031 1031 1031 
1031 1031 1031 1031 1031 1031 1031 1031 1031 
1031 1031 1031 1031 1031 1031 1031 1031 1031 
1031 1031 1031 1031 1031 1031 1031 1031 1031 
1031 1031 1031 1031 1031 1031 1031 1031 1031 
1031 1031 1031 1031 1031 1031 1031 1031 1031 
1031 1031 1031 1031 1031 1031 1031 1031 1031 
1031 1031 1031 1031 1031 1031 1031 1031 1031 
1031 1031 1031 1031 1031 1031 1031 1031 1031 
1031 1031 1031 1031 1031 1031 1031 1031 1031 
1031 1031 1031 1031 1031 1031 1031 1031 1031 
1031 1031 1031 1031 1031 1031 1031 1031 1031 
1031 1031 1031 1031 1031 1031 1031 1031 1031 
1031 1031 1031 1031 1031 1031 1031 1031 1031 
1031 1031 1031 1031 1031 1031 1031 1031 1031 
1031 1031 1031 1031 1031 1031 1031 1031 1031 
1031 1031 1031 1031 1031 1031 1031 1031 1031 
1031 1031 1031 1031 1031 1031 1031 1031 1031 
1031 1031 1031 1031 1031 1031 1031 1031 1031 
1031 1031 1031 1031 1031 1031 1031 1031 1031 
1031 1031 1031 1031 1031 1031 1031 1031 1031 
1031 1031 1031 1031 1031 1031 1031 1031 1031 
1031 1031 1031 1031 1031 1031 1031 1031 1031 
1031 1031 1031 1031 1031 1031 1031 1031 1031 
1031 1031 1031 1031 1031 1031 1031 1031 1031 
1031 1031 1031 1031 1031 1031 1031 1031 1031 
1031 1031 1031 1031 1031 1031 1031 1031 1031 
1031 1031 1031 1031 1031 1031 1031 1031 1031 
1031 1031 1031 1031 1031 1031 1031 1031 1031 
1031 1031 1031 1031 1031 1031 1031 1031 1031 
1031 1031 1031 1031 1031 1031 1031 1031 1031 
1031 1031 1031 1031 1031 1031 1031 1031 1031 
1031 1031 1031 1031 1031 1031 1031 1031 1031 
1031 1031 1031 1031 1031 1031 1031 1031 1031 
1031 1031 1031 1031 1031 1031 1031 1031 1031 
1031 1031 1031 1031 1031 1031 1031 1031 1031 
1031 1031 1031 1031 1031 1031 1031 1031 1031 
1031 1031 1031 1031 1031 1031 1031 1031 1031 
1031 1031 1031 1031 1031 1031 1031 1031 1031 
1031 1031 1031 1031 1031 1031 1031 1031 1031 
1031 1031 1031 1031 1031 1031 1031 1031 1031 
1031 1031 1031 1031 1031 1031 1031 1031 1031 
1031 1031 1031 1031 1031 1031 1031 1031 1031 
1031 1031 1031 1031 1031 1031 1031 1031 1031 
1031 1031 1031 1031 1031 1031 1031 1031 1031 
1031 1031 1031 1031 1031 1031 1031 1031 1031 
1031 1031 1031 1031 1031 1031 1031 1031 1031 
1031 1031 1031 1031 1031 1031 1031 1031 1031 
1031 1031 1031 1031 1031 1031 1031 1031 1031 
1031 1031 1031 1031 1031 1031 1031 1031 1031 
1031 1031 1031 1031 1031 1031 1031 1031 1031 
1031 1031 1031 1031 1031 1031 1031 1031 1031 
1031 1031 1031 1031 1031 1031 1031 1031 1031 
1031 1031 1031 1031 1031 1031 1031 1031 1031 
1031 1031 1031 1031 1031 1031 1031 1031 1031 
1031 1031 1031 1031 1031 1031 1031 1031 1031 
1031 1031 1031 1031 1031 1031 1031 1031 1031 
1031 1031 1031 1031 1031 1031 1031 1031 1031 
1031 1031 1031 1031 1031 1031 1031 1031 1031 
1031 1031 1031 1031 1031 1031 1031 1031 1031 
1031 1031 1031 1031 1031 1031 1031 1031 1031 
1031 1031 1031 1031 1031 1031 1031 1031 1031 
1031 1031 1031 1031 1031 1031 1031 1031 1031 
1031 1031 1031 1031 1031 1031 1031 1031 1031 
1031 1031 1031 1031 1031 1031 1031 1031 1031 
1031 1031 1031 1031 1031 1031 1031 1031 1031 
1031 1031 1031 1031 1031 1031 1031 1031 1031 
1031 1031 1031 1031 1031 1031 1031 1031 1031 
1031 1031 1031 1031 1031 1031 1031 1031 1031 
1031 1031 1031 1031 1031 1031 1031 1031 1031 
1031 1031 1031 1031 1031 1031 1031 1031 1031 
1031 1031 1031 1031 1031 1031 1031 1031 1031 
1031 1031 1031 1031 1031 1031 1031 1031 1031 
1031 1031 1031 1031 1031 1031 1031 1031 1031 
1031 1031 1031 1031 1031 1031 1031 1031 1031 
1031 1031 1031 1031 1031 1031 1031 1031 1031 
1031 1031 1031 1031 1031 1031 1031 1031 1031 
1031 1031 1031 1031 1031 1031 1031 1031 1031 
1031 1031 1031 1031 1031 1031 1031 1031 1031 
1031 1031 1031 1031 1031 1031 1031 1031 1031 
1031 1031 1031 1031 1031 1031 1031 1031 1031 
1031 1031 1031 1031 1031 1031 1031 1031 1031 
1031 1031 1031 1031 1031 1031 1031 1031 1031 
1031 1031 1031 1031 1031 1031 1031 1031 1031 
1031 1031 1031 1031 1031 1031 1031 1031 1031 
1031 1031 1031 1031 1031 1031 1031 1031 1031 
1031 1031 1031 1031 1031 1031 1031 1031 1031 
1031 1031 1031 1031 1031 1031 1031 1031 1031 
1031 1031 1031 1031 1031 1031 1031 1031 1031 
1031 1031 1031 1031 1031 1031 1031 1031 1031 
1031 1031 1031 1031 1031 1031 1031 1031 1031 
1031 1031 1031 1031 1031 1031 1031 1031 1031 
1031 1031 1031 1031 1031 1031 1031 1031 1031 
1031 1031 1031 1031 1031 1031 1031 1031 1031 
1031 1031 1031 1031 1031 1031 1031 1031 1031 
1031 1031 1031 1031 1031 1031 1031 1031 1031 
1031 1031 1031 1031 1031 1031 1031 1031 1031 
1031 1031 1031 1031 1031 1031 1031 1031 1031 
1031 1031 1031 1031 1031 1031 1031 1031 1031 
1031 1031 1031 1031 1031 1031 1031 1031 1031 
1031 1031 1031 1031 1031 1031 1031 1031 1031 
1031 1031 1031 1031 1031 1031 1031 1031 1031 
1031 1031 1031 1031 1031 1031 1031 1031 1031 
1031 1031 1031 1031 1031 1031 1031 1031 1031 
1031 1031 1031 1031 1031 1031 1031 1031 1031 
1031 1031 1031 1031 1031 1031 1031 1031 1031 
1031 1031 1031 1031 1031 1031 1031 1031 1031 
1031 1031 1031 1031 1031 1031 1031 1031 1031 
1031 1031 1031 1031 1031 1031 1031 1031 1031 
1031 1031 1031 1031 1031 1031 1031 1031 1031 
1031 1031 1031 1031 1031 1031 1031 1031 1031 
1031 1031 1031 1031 1031 1031 1031 1031 1031 
1031 1031 1031 1031 1031 1031 1031 1031 1031 
1031 1031 1031 1031 1031 1031 1031 1031 1031 
1031 1031 1031 1031 1031 1031 1031 1031 1031 
1031 1031 1031 1031 1031 1031 1031 1031 1031 
1031 1031 1031 1031 1031 1031 1031 1031 1031 
1031 1031 1031 1031 1031 1031 1031 1031 1031 
1031 1031 1031 1031 1031 1031 1031 1031 1031 
1031 1031 1031 1031 1031 1031 1031 1031 1031 
1031 1031 1031 1031 1031 1031 1031 1031 1031 
1031 1031 1031 1031 1031 1031 1031 1031 1031 