# vtk DataFile Version 4.2
vtk output
ASCII
DATASET POLYDATA
POINTS 1688 float
-4.76295 -30.9061 43.0755 -4.60897 -30.6259 42.9402 -4.42793 -30.8685 42.8692 
-5.31479 -30.9437 43.1591 -4.99248 -30.5579 42.9531 -5.94077 -30.945 43.1699 
-5.61499 -30.5435 42.9523 -6.5654 -30.9538 43.1736 -6.3341 -30.5479 42.8746 
-7.13955 -31.0272 43.1328 -6.96873 -30.6802 42.871 -7.37609 -30.8145 42.8574 
-4.64909 -31.2321 42.9868 -4.82596 -31.6882 42.9338 -5.15774 -31.4646 43.1668 
-5.80339 -31.4933 43.2557 -6.42379 -31.4914 43.268 -7.01889 -31.5045 43.2659 
-7.65741 -31.0985 42.837 -7.52953 -31.5181 43.139 -7.90756 -31.48 42.863 
-5.27994 -32.0703 43.1024 -5.0063 -32.1594 42.8779 -5.78372 -32.0935 43.2363 
-6.40219 -32.1169 43.2562 -7.00909 -32.1214 43.2488 -7.52875 -32.0936 43.1681 
-7.92285 -31.9366 42.9526 -5.31365 -32.4647 42.9632 -5.56503 -32.8153 42.8888 
-5.70227 -32.5612 43.1008 -6.26125 -32.6377 43.1503 -6.86928 -32.6559 43.1456 
-7.43038 -32.6394 43.0938 -7.8895 -32.5094 42.9303 -6.01758 -32.9916 42.9177 
-6.59909 -33.0459 42.9258 -7.20455 -33.0351 42.9196 -7.69421 -32.9296 42.8695 
-4.62508 -30.3952 42.6451 -4.54541 -30.0868 42.1158 -4.20621 -30.3682 42.391 
-5.34424 -30.2473 42.6478 -5.21068 -30.051 42.2239 -5.96673 -30.2474 42.6404 
-5.83677 -30.0398 42.2599 -6.46978 -30.2965 42.5303 -6.28929 -30.1117 42.3283 
-6.692 -30.2666 42.1158 -4.12236 -30.8346 42.5772 -3.91966 -30.5132 42.258 
-3.80442 -30.9186 42.2216 -6.9823 -30.496 42.3701 -7.63109 -30.8521 42.6354 
-7.45898 -30.6908 42.467 -7.85194 -30.923 42.2169 -4.06165 -31.4281 42.5052 
-3.80619 -31.5227 42.1026 -4.39712 -31.3555 42.7608 -8.33497 -31.6993 42.6058 
-8.17988 -31.2568 42.3566 -8.56415 -31.4505 42.2126 -10.8146 -31.5781 42.5409 
-10.5442 -31.2686 42.3147 -10.344 -31.6731 42.3498 -11.2128 -31.6205 42.4949 
-11.0186 -31.2083 42.3437 -11.4157 -31.4191 42.2847 -4.08888 -31.8381 42.3657 
-4.25327 -32.29 42.3287 -4.55045 -32.0077 42.63 -8.32429 -32.259 42.7326 
-8.86461 -31.7354 42.2103 -8.86384 -32.1697 42.5356 -9.1909 -32.0558 42.2341 
-10.6857 -32.0947 42.5755 -10.303 -32.2468 42.2274 -11.1476 -32.0882 42.5678 
-11.5364 -31.9427 42.3332 -4.66148 -32.7043 42.5303 -4.29369 -32.853 42.3064 
-5.13805 -32.6778 42.728 -8.20959 -32.8805 42.7056 -8.72519 -32.6169 42.6401 
-9.33339 -32.356 42.3601 -9.20689 -32.7419 42.4996 -9.62951 -32.6556 42.0919 
-10.6249 -32.5481 42.4997 -10.4461 -32.82 42.1629 -11.0197 -32.603 42.5427 
-11.4881 -32.5204 42.3489 -4.60557 -33.1629 42.4586 -4.39842 -33.3477 42.2787 
-5.12818 -33.2917 42.5411 -5.67854 -33.2027 42.6944 -6.3323 -33.4539 42.6104 
-7.0166 -33.4042 42.6979 -7.70224 -33.3301 42.6945 -8.224 -33.3233 42.6273 
-8.69822 -33.2633 42.5403 -9.17097 -33.21 42.3973 -9.47116 -33.0484 42.2161 
-10.825 -32.9669 42.3613 -11.2685 -32.9274 42.3167 -4.80507 -33.5874 42.3312 
-5.266 -33.7408 42.3565 -5.56902 -34.015 42.252 -5.73924 -33.7041 42.4576 
-6.17715 -33.8136 42.3511 -6.51378 -33.7622 42.3538 -6.77462 -33.9991 42.2684 
-6.89687 -33.7508 42.4821 -7.46798 -33.8211 42.5429 -8.12318 -33.7866 42.5099 
-8.58171 -33.9477 42.2212 -8.92257 -33.5586 42.2968 -5.92246 -34.0496 42.2475 
-7.21237 -34.159 42.3214 -7.76936 -34.2418 42.332 -8.20639 -34.2468 42.2346 
-4.06303 -30.2156 42.078 -4.13251 -29.9755 41.6604 -3.77797 -30.349 41.7777 
-4.57854 -29.9729 41.7124 -5.11225 -29.9194 41.6288 -5.81536 -29.9692 41.7368 
-6.33648 -30.0651 41.8822 -6.73031 -30.2939 41.5366 -11.9178 -30.3555 41.9337 
-11.7627 -30.0084 41.5054 -11.427 -30.3028 41.7551 -12.5724 -30.372 41.9168 
-12.2831 -30.0468 41.708 -12.7347 -30.3354 41.5142 -3.63614 -30.9852 41.6328 
-7.12145 -30.5073 41.7008 -7.54583 -30.6839 41.8676 -7.92634 -30.9074 41.5106 
-9.55602 -30.8978 41.8518 -9.49655 -30.7759 41.6689 -9.28737 -30.8763 41.7284 
-10.0747 -30.8631 41.9346 -10.0163 -30.7115 41.602 -10.638 -30.9161 42.0459 
-10.488 -30.6552 41.7164 -11.3727 -30.849 42.0377 -10.9812 -30.4987 41.6266 
-11.9388 -30.9477 42.0444 -12.4626 -30.8477 42.0385 -12.989 -30.591 41.7688 
-12.9949 -30.9093 41.9206 -13.1918 -31.0082 41.6818 -3.6966 -31.5091 41.7064 
-8.20986 -31.0975 41.7817 -8.81884 -31.4916 41.9873 -8.74792 -31.251 41.6453 
-9.44005 -31.1124 41.7563 -9.06386 -31.5672 41.8062 -9.61523 -31.3957 41.5673 
-9.93333 -31.3569 42.0213 -11.8477 -31.5476 42.1013 -12.4389 -31.4857 42.0356 
-12.9829 -31.4975 41.9572 -13.2258 -31.5048 41.72 -3.95303 -32.0358 42.1146 
-3.70201 -32.0869 41.7167 -9.62012 -32.0515 42.0115 -9.31442 -31.7773 41.8568 
-10.0021 -31.9376 42.0837 -11.9242 -32.2722 42.122 -12.3462 -32.0283 42.0295 
-12.8631 -32.15 41.9219 -13.192 -31.9962 41.789 -3.98673 -32.5429 42.0258 
-3.68778 -32.8512 41.7257 -9.94601 -32.4155 41.8675 -9.83722 -32.7429 41.7278 
-10.1913 -32.723 41.7626 -11.7111 -32.8477 42.1243 -12.3273 -32.704 41.9345 
-12.8753 -32.6405 41.5317 -13.0931 -32.3184 41.7314 -4.06402 -33.2584 42.0249 
-3.69135 -33.4734 41.7295 -9.41254 -33.5095 42.0613 -9.80788 -33.2589 41.6337 
-10.5448 -33.356 42.082 -10.2055 -33.3871 41.6472 -11.1389 -33.3564 42.0615 
-11.7796 -33.2408 41.916 -12.1964 -33.359 41.6407 -12.5004 -33.0783 41.6356 
-4.07075 -33.8874 41.9073 -3.74476 -33.8673 41.7251 -4.57237 -33.8844 42.0971 
-5.17038 -34.0251 42.1524 -6.34715 -34.1088 42.1511 -8.94402 -33.8442 42.0742 
-9.29675 -33.9254 41.9318 -9.91179 -33.5429 41.7509 -9.96228 -33.7597 41.9011 
-10.5686 -33.8281 41.9146 -10.9882 -33.9583 41.6535 -11.3904 -33.6529 41.7352 
-11.8032 -33.605 41.642 -3.92423 -34.21 41.6629 -4.2895 -34.5265 41.7179 
-4.47652 -34.3693 41.8979 -5.04743 -34.441 41.9457 -5.73961 -34.3819 42.0166 
-6.31702 -34.5137 41.9282 -6.84312 -34.4174 42.0277 -7.45562 -34.5292 42.0478 
-8.00243 -34.5496 41.9938 -8.44823 -34.4378 41.8839 -8.91337 -34.2369 41.8003 
-9.51691 -34.141 41.6621 -10.0985 -34.0343 41.607 -10.5681 -34.1919 41.5806 
-4.63189 -34.7598 41.625 -5.37298 -34.8198 41.725 -5.98661 -34.8206 41.7251 
-6.58148 -34.8125 41.624 -7.16237 -34.735 41.6537 -7.74862 -34.7559 41.6449 
-8.30397 -34.7271 41.5639 -4.0689 -29.722 41.2592 -3.9078 -29.5044 40.8937 
-3.70222 -29.8694 41.2271 -4.32989 -29.6174 41.0269 -5.31706 -29.7309 41.2533 
-5.16322 -29.5268 40.9169 -4.95267 -29.7398 41.2199 -5.57871 -29.6334 41.0187 
-3.54716 -30.3907 41.2869 -4.53104 -29.8321 41.3353 -5.80305 -29.8698 41.1944 
-6.338 -30.072 41.2905 -6.72403 -30.3133 40.9235 -11.2606 -30.1676 41.4462 
-11.4111 -30.0929 41.1133 -11.0363 -30.2819 41.1917 -11.9184 -30.0169 41.0716 
-12.3429 -30.0309 41.2773 -12.6183 -30.3858 41.0728 -3.4455 -30.8053 41.2482 
-3.33174 -30.5238 40.9994 -3.24723 -30.9601 40.8891 -7.10476 -30.5406 41.0699 
-7.61845 -30.7021 41.1376 -8.01374 -30.8668 41.0154 -8.91657 -30.9595 41.243 
-8.74041 -30.7451 40.8906 -8.56011 -30.9538 41.1941 -9.43825 -30.9793 41.6024 
-9.18282 -30.8707 40.9943 -9.81898 -30.9379 41.4241 -10.224 -30.8433 41.1326 
-10.6771 -30.5795 41.0624 -13.0449 -30.8082 41.5006 -12.7802 -30.9458 41.1377 
-3.45667 -31.1569 41.2059 -3.56234 -31.572 41.324 -8.26274 -31.0336 41.2849 
-9.31295 -31.4852 41.5414 -9.4333 -31.1768 41.1644 -9.9697 -31.1194 41.0379 
-13.0924 -31.3585 41.4046 -12.7616 -31.693 41.1067 -3.46073 -32.0611 41.3062 
-3.36542 -31.7697 41.021 -3.23627 -32.155 41.0265 -13.0681 -32.0356 41.4908 
-12.8018 -32.2118 41.2056 -3.40896 -32.547 41.4045 -3.09472 -32.7861 40.9924 
-9.97941 -32.7983 41.5699 -12.889 -32.511 41.0806 -13.0745 -32.7287 41.2935 
-13.1202 -32.7231 41.1234 -3.3825 -33.1485 41.4266 -3.18349 -33.3855 41.1043 
-10.0678 -33.1099 41.4585 -12.4435 -33.3521 41.4456 -12.7068 -33.2216 41.0868 
-13.0028 -32.854 41.115 -3.45811 -33.7592 41.4205 -3.19199 -33.9368 40.9042 
-10.0248 -33.7423 41.4741 -9.84749 -34.0738 41.143 -10.0318 -33.5873 41.2213 
-10.189 -34.0831 41.1459 -11.2616 -33.925 41.4923 -11.6043 -33.9078 41.3904 
-12.0686 -33.8184 41.2865 -12.4315 -33.6374 41.1531 -3.53845 -34.2265 41.2119 
-3.99957 -34.5225 41.4205 -3.72415 -34.5828 41.0688 -8.7301 -34.5923 41.5217 
-9.28557 -34.4841 41.3799 -9.92141 -34.4434 41.2274 -10.0187 -34.2374 41.0911 
-10.4466 -34.5022 41.3029 -10.876 -34.4263 41.309 -11.3533 -34.2316 41.1038 
-11.9419 -34.1153 40.9438 -4.14012 -34.8434 41.2061 -4.55635 -35.0644 41.2966 
-4.35321 -35.1985 41.053 -5.06006 -35.1149 41.4141 -5.67639 -35.1313 41.4377 
-6.23155 -35.1145 41.3879 -6.60691 -35.0621 41.1878 -7.01714 -34.8801 41.0634 
-7.61141 -34.8214 41.1304 -8.2134 -34.8393 41.1074 -8.86076 -34.788 41.1048 
-9.48971 -34.7388 41.0942 -10.0541 -34.7118 40.9476 -10.7348 -34.7304 40.9734 
-4.8149 -35.3778 41.1085 -5.38837 -35.4292 41.1329 -5.99485 -35.4144 41.0203 
-6.41547 -35.2575 40.9883 -3.44903 -29.6489 40.8106 -3.50557 -29.4651 40.3959 
-3.20803 -29.7829 40.5308 -4.07096 -29.3735 40.4247 -4.69639 -29.6352 40.9873 
-4.6322 -29.4289 40.595 -5.30721 -29.3833 40.4402 -5.92585 -29.7184 40.7795 
-5.67288 -29.5024 40.6339 -6.0907 -29.709 40.3092 -3.3534 -30.0592 40.8775 
-3.13823 -30.3041 40.5318 -6.39254 -30.015 40.5908 -6.81179 -30.3047 40.4201 
-11.2493 -30.3909 40.8643 -11.821 -30.3245 40.8371 -12.2959 -30.2276 40.9177 
-3.09925 -30.7979 40.3892 -7.10105 -30.5157 40.5003 -7.49926 -30.6386 40.5856 
-8.30048 -30.8609 40.9347 -8.09448 -30.6254 40.5356 -8.80277 -30.5258 40.4303 
-9.53057 -30.9527 40.7416 -9.36 -30.7241 40.5212 -9.79148 -30.8816 40.3866 
-10.5895 -30.6875 40.3008 -10.3071 -30.9031 40.6608 -11.1612 -30.6316 40.5571 
-11.7664 -30.8483 40.7095 -11.5546 -30.9772 40.4095 -12.3533 -30.6984 40.8405 
-3.36286 -31.42 40.9669 -3.17516 -31.4782 40.5932 -5.96421 -31.6565 40.7278 
-5.62574 -31.6578 40.5907 -5.78419 -31.2088 40.3716 -6.14929 -31.4312 40.4832 
-9.89821 -31.0553 40.6308 -11.8466 -31.5272 40.7196 -11.5588 -31.6236 40.5226 
-12.3437 -31.3509 40.86 -3.03333 -32.1472 40.5653 -5.84163 -32.1312 40.8375 
-5.54506 -32.1247 40.5101 -6.43932 -31.7255 40.4607 -6.41079 -32.182 40.7951 
-6.76046 -32.0511 40.477 -11.7558 -31.984 40.657 -11.6081 -31.9596 40.3582 
-12.3463 -32.0512 40.835 -2.84625 -32.6217 40.682 -2.77272 -32.4416 40.3219 
-2.64659 -32.8531 40.3599 -5.75986 -32.5821 40.7562 -5.61053 -32.6463 40.3662 
[...]
CELL_DATA 3384
SCALARS scalars float
LOOKUP_TABLE default
1032 1032 1032 1032 1032 1032 1032 1032 1032 
1032 1032 1032 1032 1032 1032 1032 1032 1032 
1032 1032 1032 1032 1032 1032 1032 1032 1032 
1032 1032 1032 1032 1032 1032 1032 1032 1032 
1032 1032 1032 1032 1032 1032 1032 1032 1032 
1032 1032 1032 1032 1032 1032 1032 1032 1032 
1032 1032 1032 1032 1032 1032 1032 1032 1032 
1032 1032 1032 1032 1032 1032 1032 1032 1032 
1032 1032 1032 1032 1032 1032 1032 1032 1032 
1032 1032 1032 1032 1032 1032 1032 1032 1032 
1032 1032 1032 1032 1032 1032 1032 1032 1032 
1032 1032 1032 1032 1032 1032 1032 1032 1032 
1032 1032 1032 1032 1032 1032 1032 1032 1032 
1032 1032 1032 1032 1032 1032 1032 1032 1032 
1032 1032 1032 1032 1032 1032 1032 1032 1032 
1032 1032 1032 1032 1032 1032 1032 1032 1032 
1032 1032 1032 1032 1032 1032 1032 1032 1032 
1032 1032 1032 1032 1032 1032 1032 1032 1032 
1032 1032 1032 1032 1032 1032 1032 1032 1032 
1032 1032 1032 1032 1032 1032 1032 1032 1032 
1032 1032 1032 1032 1032 1032 1032 1032 1032 
1032 1032 1032 1032 1032 1032 1032 1032 1032 
1032 1032 1032 1032 1032 1032 1032 1032 1032 
1032 1032 1032 1032 1032 1032 1032 1032 1032 
1032 1032 1032 1032 1032 1032 1032 1032 1032 
1032 1032 1032 1032 1032 1032 1032 1032 1032 
1032 1032 1032 1032 1032 1032 1032 1032 1032 
1032 1032 1032 1032 1032 1032 1032 1032 1032 
1032 1032 1032 1032 1032 1032 1032 1032 1032 
1032 1032 1032 1032 1032 1032 1032 1032 1032 
1032 1032 1032 1032 1032 1032 1032 1032 1032 
1032 1032 1032 1032 1032 1032 1032 1032 1032 
1032 1032 1032 1032 1032 1032 1032 1032 1032 
1032 1032 1032 1032 1032 1032 1032 1032 1032 
1032 1032 1032 1032 1032 1032 1032 1032 1032 
1032 1032 1032 1032 1032 1032 1032 1032 1032 
1032 1032 1032 1032 1032 1032 1032 1032 1032 
1032 1032 1032 1032 1032 1032 1032 1032 1032 
1032 1032 1032 1032 1032 1032 1032 1032 1032 
1032 1032 1032 1032 1032 1032 1032 1032 1032 
1032 1032 1032 1032 1032 1032 1032 1032 1032 
1032 1032 1032 1032 1032 1032 1032 1032 1032 
1032 1032 1032 1032 1032 1032 1032 1032 1032 
1032 1032 1032 1032 1032 1032 1032 1032 1032 
1032 1032 1032 1032 1032 1032 1032 1032 1032 
1032 1032 1032 1032 1032 1032 1032 1032 1032 
1032 1032 1032 1032 1032 1032 1032 1032 1032 
1032 1032 1032 1032 1032 1032 1032 1032 1032 
1032 1032 1032 1032 1032 1032 1032 1032 1032 
1032 1032 1032 1032 1032 1032 1032 1032 1032 
1032 1032 1032 1032 1032 1032 1032 1032 1032 
1032 1032 1032 1032 1032 1032 1032 1032 1032 
1032 1032 1032 1032 1032 1032 1032 1032 1032 
1032 1032 1032 1032 1032 1032 1032 1032 1032 
1032 1032 1032 1032 1032 1032 1032 1032 1032 
1032 1032 1032 1032 1032 1032 1032 1032 1032 
1032 1032 1032 1032 1032 1032 1032 1032 1032 
1032 1032 1032 1032 1032 1032 1032 1032 1032 
1032 1032 1032 1032 1032 1032 1032 1032 1032 
1032 1032 1032 1032 1032 1032 1032 1032 1032 
1032 1032 1032 1032 1032 1032 1032 1032 1032 
1032 1032 1032 1032 1032 1032 1032 1032 1032 
1032 1032 1032 1032 1032 1032 1032 1032 1032 
1032 1032 1032 1032 1032 1032 1032 1032 1032 
1032 1032 1032 1032 1032 1032 1032 1032 1032 
1032 1032 1032 1032 1032 1032 1032 1032 1032 
1032 1032 1032 1032 1032 1032 1032 1032 1032 
1032 1032 1032 1032 1032 1032 1032 1032 1032 
1032 1032 1032 1032 1032 1032 1032 1032 1032 
1032 1032 1032 1032 1032 1032 1032 1032 1032 
1032 1032 1032 1032 1032 1032 1032 1032 1032 
1032 1032 1032 1032 1032 1032 1032 1032 1032 
1032 1032 1032 1032 1032 1032 1032 1032 1032 
1032 1032 1032 1032 1032 1032 1032 1032 1032 
1032 1032 1032 1032 1032 1032 1032 1032 1032 
1032 1032 1032 1032 1032 1032 1032 1032 1032 
1032 1032 1032 1032 1032 1032 1032 1032 1032 
1032 1032 1032 1032 1032 1032 1032 1032 1032 
1032 1032 1032 1032 1032 1032 1032 1032 1032 
1032 1032 1032 1032 1032 1032 1032 1032 1032 
1032 1032 1032 1032 1032 1032 1032 1032 1032 
1032 1032 1032 1032 1032 1032 1032 1032 1032 
1032 1032 1032 1032 1032 1032 1032 1032 1032 
1032 1032 1032 1032 1032 1032 1032 1032 1032 
1032 1032 1032 1032 1032 1032 1032 1032 1032 
1032 1032 1032 1032 1032 1032 1032 1032 1032 
1032 1032 1032 1032 1032 1032 1032 1032 1032 
1032 1032 1032 1032 1032 1032 1032 1032 1032 
1032 1032 1032 1032 1032 1032 1032 1032 1032 
1032 1032 1032 1032 1032 1032 1032 1032 1032 
1032 1032 1032 1032 1032 1032 1032 1032 1032 
1032 1032 1032 1032 1032 1032 1032 1032 1032 
1032 1032 1032 1032 1032 1032 1032 1032 1032 
1032 1032 1032 1032 1032 1032 1032 1032 1032 
1032 1032 1032 1032 1032 1032 1032 1032 1032 
1032 1032 1032 1032 1032 1032 1032 1032 1032 
1032 1032 1032 1032 1032 1032 1032 1032 1032 
1032 1032 1032 1032 1032 1032 1032 1032 1032 
1032 1032 1032 1032 1032 1032 1032 1032 1032 
1032 1032 1032 1032 1032 1032 1032 1032 1032 
1032 1032 1032 1032 1032 1032 1032 1032 1032 
1032 1032 1032 1032 1032 1032 1032 1032 1032 
1032 1032 1032 1032 1032 1032 1032 1032 1032 
1032 1032 1032 1032 1032 1032 1032 1032 1032 
1032 1032 1032 1032 1032 1032 1032 1032 1032 
1032 1032 1032 1032 1032 1032 1032 1032 1032 
1032 1032 1032 1032 1032 1032 1032 1032 1032 
1032 1032 1032 1032 1032 1032 1032 1032 1032 
1032 1032 1032 1032 1032 1032 1032 1032 1032 
1032 1032 1032 1032 1032 1032 1032 1032 1032 
1032 1032 1032 1032 1032 1032 1032 1032 1032 
1032 1032 1032 1032 1032 1032 1032 1032 1032 
1032 1032 1032 1032 1032 1032 1032 1032 1032 
1032 1032 1032 1032 1032 1032 1032 1032 1032 
1032 1032 1032 1032 1032 1032 1032 1032 1032 
1032 1032 1032 1032 1032 1032 1032 1032 1032 
1032 1032 1032 1032 1032 1032 1032 1032 1032 
1032 1032 1032 1032 1032 1032 1032 1032 1032 
1032 1032 1032 1032 1032 1032 1032 1032 1032 
1032 1032 1032 1032 1032 1032 1032 1032 1032 
1032 1032 1032 1032 1032 1032 1032 1032 1032 
1032 1032 1032 1032 1032 1032 1032 1032 1032 
1032 1032 1032 1032 1032 1032 1032 1032 1032 
1032 1032 1032 1032 1032 1032 1032 1032 1032 
1032 1032 1032 1032 1032 1032 1032 1032 1032 
1032 1032 1032 1032 1032 1032 1032 1032 1032 
1032 1032 1032 1032 1032 1032 1032 1032 1032 
1032 1032 1032 1032 1032 1032 1032 1032 1032 
1032 1032 1032 1032 1032 1032 1032 1032 1032 
1032 1032 1032 1032 1032 1032 1032 1032 1032 
1032 1032 1032 1032 1032 1032 1032 1032 1032 
1032 1032 1032 1032 1032 1032 1032 1032 1032 
1032 1032 1032 1032 1032 1032 1032 1032 1032 
1032 1032 1032 1032 1032 1032 1032 1032 1032 
1032 1032 1032 1032 1032 1032 1032 1032 1032 
1032 1032 1032 1032 1032 1032 1032 1032 1032 
1032 1032 1032 1032 1032 1032 1032 1032 1032 
1032 1032 1032 1032 1032 1032 1032 1032 1032 
1032 1032 1032 1032 1032 1032 1032 1032 1032 
1032 1032 1032 1032 1032 1032 1032 1032 1032 
1032 1032 1032 1032 1032 1032 1032 1032 1032 
1032 1032 1032 1032 1032 1032 1032 1032 1032 
1032 1032 1032 1032 1032 1032 1032 1032 1032 
1032 1032 1032 1032 1032 1032 1032 1032 1032 
1032 1032 1032 1032 1032 1032 1032 1032 1032 
1032 1032 1032 1032 1032 1032 1032 1032 1032 
1032 1032 1032 1032 1032 1032 1032 1032 1032 
1032 1032 1032 1032 1032 1032 1032 1032 1032 
1032 1032 1032 1032 1032 1032 1032 1032 1032 
1032 1032 1032 1032 1032 1032 1032 1032 1032 
1032 1032 1032 1032 1032 1032 1032 1032 1032 
1032 1032 1032 1032 1032 1032 1032 1032 1032 
1032 1032 1032 1032 1032 1032 1032 1032 1032 
1032 1032 1032 1032 1032 1032 1032 1032 1032 
1032 1032 1032 1032 1032 1032 1032 1032 1032 
1032 1032 1032 1032 1032 1032 1032 1032 1032 
1032 1032 1032 1032 1032 1032 1032 1032 1032 
1032 1032 1032 1032 1032 1032 1032 1032 1032 
1032 1032 1032 1032 1032 1032 1032 1032 1032 
1032 1032 1032 1032 1032 1032 1032 1032 1032 
1032 1032 1032 1032 1032 1032 1032 1032 1032 
1032 1032 1032 1032 1032 1032 1032 1032 1032 
1032 1032 1032 1032 1032 1032 1032 1032 1032 
1032 1032 1032 1032 1032 1032 1032 1032 1032 
1032 1032 1032 1032 1032 1032 1032 1032 1032 
1032 1032 1032 1032 1032 1032 1032 1032 1032 
1032 1032 1032 1032 1032 1032 1032 1032 1032 
1032 1032 1032 1032 1032 1032 1032 1032 1032 
1032 1032 1032 1032 1032 1032 1032 1032 1032 
1032 1032 1032 1032 1032 1032 1032 1032 1032 
1032 1032 1032 1032 1032 1032 1032 1032 1032 
1032 1032 1032 1032 1032 1032 1032 1032 1032 
1032 1032 1032 1032 1032 1032 1032 1032 1032 
1032 1032 1032 1032 1032 1032 1032 1032 1032 
1032 1032 1032 1032 1032 1032 1032 1032 1032 
1032 1032 1032 1032 1032 1032 1032 1032 1032 
1032 1032 1032 1032 1032 1032 1032 1032 1032 
1032 1032 1032 1032 1032 1032 1032 1032 1032 
1032 1032 1032 1032 1032 1032 1032 1032 1032 
1032 1032 1032 1032 1032 1032 1032 1032 1032 
1032 1032 1032 1032 1032 1032 1032 1032 1032 
1032 1032 1032 1032 1032 1032 1032 1032 1032 
1032 1032 1032 1032 1032 1032 1032 1032 1032 
1032 1032 1032 1032 1032 1032 1032 1032 1032 
1032 1032 1032 1032 1032 1032 1032 1032 1032 
1032 1032 1032 1032 1032 1032 1032 1032 1032 
1032 1032 1032 1032 1032 1032 1032 1032 1032 
1032 1032 1032 1032 1032 1032 1032 1032 1032 
1032 1032 1032 1032 1032 1032 1032 1032 1032 
1032 1032 1032 1032 1032 1032 1032 1032 1032 
1032 1032 1032 1032 1032 1032 1032 1032 1032 
1032 1032 1032 1032 1032 1032 1032 1032 1032 
1032 1032 1032 1032 1032 1032 1032 1032 1032 
1032 1032 1032 1032 1032 1032 1032 1032 1032 
1032 1032 1032 1032 1032 1032 1032 1032 1032 
1032 1032 1032 1032 1032 1032 1032 1032 1032 
1032 1032 1032 1032 1032 1032 1032 1032 1032 
1032 1032 1032 1032 1032 1032 1032 1032 1032 
1032 1032 1032 1032 1032 1032 1032 1032 1032 
1032 1032 1032 1032 1032 1032 1032 1032 1032 
1032 1032 1032 1032 1032 1032 1032 1032 1032 
1032 1032 1032 1032 1032 1032 1032 1032 1032 
1032 1032 1032 1032 1032 1032 1032 1032 1032 
1032 1032 1032 1032 1032 1032 1032 1032 1032 
1032 1032 1032 1032 1032 1032 1032 1032 1032 
1032 1032 1032 1032 1032 1032 1032 1032 1032 
1032 1032 1032 1032 1032 1032 1032 1032 1032 
1032 1032 1032 1032 1032 1032 1032 1032 1032 
1032 1032 1032 1032 1032 1032 1032 1032 1032 
1032 1032 1032 1032 1032 1032 1032 1032 1032 
1032 1032 1032 1032 1032 1032 1032 1032 1032 
1032 1032 1032 1032 1032 1032 1032 1032 1032 
1032 1032 1032 1032 1032 1032 1032 1032 1032 
1032 1032 1032 1032 1032 1032 1032 1032 1032 
1032 1032 1032 1032 1032 1032 1032 1032 1032 
1032 1032 1032 1032 1032 1032 1032 1032 1032 
1032 1032 1032 1032 1032 1032 1032 1032 1032 
1032 1032 1032 1032 1032 1032 1032 1032 1032 
1032 1032 1032 1032 1032 1032 1032 1032 1032 
1032 1032 1032 1032 1032 1032 1032 1032 1032 
1032 1032 1032 1032 1032 1032 1032 1032 1032 
1032 1032 1032 1032 1032 1032 1032 1032 1032 
1032 1032 1032 1032 1032 1032 1032 1032 1032 
1032 1032 1032 1032 1032 1032 1032 1032 1032 
1032 1032 1032 1032 1032 1032 1032 1032 1032 
1032 1032 1032 1032 1032 1032 1032 1032 1032 
1032 1032 1032 1032 1032 1032 1032 1032 1032 
1032 1032 1032 1032 1032 1032 1032 1032 1032 
1032 1032 1032 1032 1032 1032 1032 1032 1032 
1032 1032 1032 1032 1032 1032 1032 1032 1032 
1032 1032 1032 1032 1032 1032 1032 1032 1032 
1032 1032 1032 1032 1032 1032 1032 1032 1032 
1032 1032 1032 1032 1032 1032 1032 1032 1032 
1032 1032 1032 1032 1032 1032 1032 1032 1032 
1032 1032 1032 1032 1032 1032 1032 1032 1032 
1032 1032 1032 1032 1032 1032 1032 1032 1032 
1032 1032 1032 1032 1032 1032 1032 1032 1032 
1032 1032 1032 1032 1032 1032 1032 1032 1032 
1032 1032 1032 1032 1032 1032 1032 1032 1032 
1032 1032 1032 1032 1032 1032 1032 1032 1032 
1032 1032 1032 1032 1032 1032 1032 1032 1032 
1032 1032 1032 1032 1032 1032 1032 1032 1032 
1032 1032 1032 1032 1032 1032 1032 1032 1032 
1032 1032 1032 1032 1032 1032 1032 1032 1032 
1032 1032 1032 1032 1032 1032 1032 1032 1032 
1032 1032 1032 1032 1032 1032 1032 1032 1032 
1032 1032 1032 1032 1032 1032 1032 1032 1032 
1032 1032 1032 1032 1032 1032 1032 1032 1032 
1032 1032 1032 1032 1032 1032 1032 1032 1032 
1032 1032 1032 1032 1032 1032 1032 1032 1032 
1032 1032 1032 1032 1032 1032 1032 1032 1032 
1032 1032 1032 1032 1032 1032 1032 1032 1032 
1032 1032 1032 1032 1032 1032 1032 1032 1032 
1032 1032 1032 1032 1032 1032 1032 1032 1032 
1032 1032 1032 1032 1032 1032 1032 1032 1032 
1032 1032 1032 1032 1032 1032 1032 1032 1032 
1032 1032 1032 1032 1032 1032 1032 1032 1032 
1032 1032 1032 1032 1032 1032 1032 1032 1032 
1032 1032 1032 1032 1032 1032 1032 1032 1032 
1032 1032 1032 1032 1032 1032 1032 1032 1032 
1032 1032 1032 1032 1032 1032 1032 1032 1032 
1032 1032 1032 1032 1032 1032 1032 1032 1032 
1032 1032 1032 1032 1032 1032 1032 1032 1032 
1032 1032 1032 1032 1032 1032 1032 1032 1032 
1032 1032 1032 1032 1032 1032 1032 1032 1032 
1032 1032 1032 1032 1032 1032 1032 1032 1032 
1032 1032 1032 1032 1032 1032 1032 1032 1032 
1032 1032 1032 1032 1032 1032 1032 1032 1032 
1032 1032 1032 1032 1032 1032 1032 1032 1032 
1032 1032 1032 1032 1032 1032 1032 1032 1032 
1032 1032 1032 1032 1032 1032 1032 1032 1032 
1032 1032 1032 1032 1032 1032 1032 1032 1032 
1032 1032 1032 1032 1032 1032 1032 1032 1032 
1032 1032 1032 1032 1032 1032 1032 1032 1032 
1032 1032 1032 1032 1032 1032 1032 1032 1032 
1032 1032 1032 1032 1032 1032 1032 1032 1032 
1032 1032 1032 1032 1032 1032 1032 1032 1032 
1032 1032 1032 1032 1032 1032 1032 1032 1032 
1032 1032 1032 1032 1032 1032 1032 1032 1032 
1032 1032 1032 1032 1032 1032 1032 1032 1032 
1032 1032 1032 1032 1032 1032 1032 1032 1032 
1032 1032 1032 1032 1032 1032 1032 1032 1032 
1032 1032 1032 1032 1032 1032 1032 1032 1032 
1032 1032 1032 1032 1032 1032 1032 1032 1032 
1032 1032 1032 1032 1032 1032 1032 1032 1032 
1032 1032 1032 1032 1032 1032 1032 1032 1032 
1032 1032 1032 1032 1032 1032 1032 1032 1032 
1032 1032 1032 1032 1032 1032 1032 1032 1032 
1032 1032 1032 1032 1032 1032 1032 1032 1032 
1032 1032 1032 1032 1032 1032 1032 1032 1032 
1032 1032 1032 1032 1032 1032 1032 1032 1032 
1032 1032 1032 1032 1032 1032 1032 1032 1032 
1032 1032 1032 1032 1032 1032 1032 1032 1032 
1032 1032 1032 1032 1032 1032 1032 1032 1032 
1032 1032 1032 1032 1032 1032 1032 1032 1032 
1032 1032 1032 1032 1032 1032 1032 1032 1032 
1032 1032 1032 1032 1032 1032 1032 1032 1032 
1032 1032 1032 1032 1032 1032 1032 1032 1032 
1032 1032 1032 1032 1032 1032 1032 1032 1032 
1032 1032 1032 1032 1032 1032 1032 1032 1032 
1032 1032 1032 1032 1032 1032 1032 1032 1032 
1032 1032 1032 1032 1032 1032 1032 1032 1032 
1032 1032 1032 1032 1032 1032 1032 1032 1032 
1032 1032 1032 1032 1032 1032 1032 1032 1032 
1032 1032 1032 1032 1032 1032 1032 1032 1032 
1032 1032 1032 1032 1032 1032 1032 1032 1032 
1032 1032 1032 1032 1032 1032 1032 1032 1032 
1032 1032 1032 1032 1032 1032 1032 1032 1032 
1032 1032 1032 1032 1032 1032 1032 1032 1032 
1032 1032 1032 1032 1032 1032 1032 1032 1032 
1032 1032 1032 1032 1032 1032 1032 1032 1032 
1032 1032 1032 1032 1032 1032 1032 1032 1032 
1032 1032 1032 1032 1032 1032 1032 1032 1032 
1032 1032 1032 1032 1032 1032 1032 1032 1032 
1032 1032 1032 1032 1032 1032 1032 1032 1032 
1032 1032 1032 1032 1032 1032 1032 1032 1032 
1032 1032 1032 1032 1032 1032 1032 1032 1032 
1032 1032 1032 1032 1032 1032 1032 1032 1032 
1032 1032 1032 1032 1032 1032 1032 1032 1032 
1032 1032 1032 1032 1032 1032 1032 1032 1032 
1032 1032 1032 1032 1032 1032 1032 1032 1032 
1032 1032 1032 1032 1032 1032 1032 1032 1032 
1032 1032 1032 1032 1032 1032 1032 1032 1032 
1032 1032 1032 1032 1032 1032 1032 1032 1032 
1032 1032 1032 1032 1032 1032 1032 1032 1032 
1032 1032 1032 1032 1032 1032 1032 1032 1032 
1032 1032 1032 1032 1032 1032 1032 1032 1032 
1032 1032 1032 1032 1032 1032 1032 1032 1032 
1032 1032 1032 1032 1032 1032 1032 1032 1032 
1032 1032 1032 1032 1032 1032 1032 1032 1032 
1032 1032 1032 1032 1032 1032 1032 1032 1032 
1032 1032 1032 1032 1032 1032 1032 1032 1032 
1032 1032 1032 1032 1032 1032 1032 1032 1032 
1032 1032 1032 1032 1032 1032 1032 1032 1032 
1032 1032 1032 1032 1032 1032 1032 1032 1032 
1032 1032 1032 1032 1032 1032 1032 1032 1032 
1032 1032 1032 1032 1032 1032 1032 1032 1032 
1032 1032 1032 1032 1032 1032 1032 1032 1032 
1032 1032 1032 1032 1032 1032 1032 1032 1032 
1032 1032 1032 1032 1032 1032 1032 1032 1032 
1032 1032 1032 1032 1032 1032 1032 1032 1032 
1032 1032 1032 1032 1032 1032 1032 1032 1032 
1032 1032 1032 1032 1032 1032 1032 1032 1032 
1032 1032 1032 1032 1032 1032 1032 1032 1032 
1032 1032 1032 1032 1032 1032 1032 1032 1032 
1032 1032 1032 1032 1032 1032 1032 1032 1032 
1032 1032 1032 1032 1032 1032 1032 1032 1032 
1032 1032 1032 1032 1032 1032 1032 1032 1032 
1032 1032 1032 1032 1032 1032 1032 1032 1032 
1032 1032 1032 1032 1032 1032 1032 1032 1032 
1032 1032 1032 1032 1032 1032 1032 1032 1032 
1032 1032 1032 1032 1032 1032 1032 1032 1032 
1032 1032 1032 1032 1032 1032 1032 1032 1032 
1032 1032 1032 1032 1032 1032 1032 1032 1032 
1032 1032 1032 1032 1032 1032 1032 1032 1032 
1032 1032 1032 1032 1032 1032 1032 1032 1032 
1032 1032 1032 1032 1032 1032 1032 1032 1032 
1032 1032 1032 1032 1032 1032 1032 1032 1032 
1032 1032 1032 1032 1032 1032 1032 1032 1032 
1032 1032 1032 1032 1032 1032 1032 1032 1032 
1032 1032 1032 1032 1032 1032 1032 1032 1032 
1032 1032 1032 1032 1032 1032 1032 1032 1032 
1032 1032 1032 1032 1032 1032 1032 1032 1032 
1032 1032 1032 1032 1032 1032 1032 1032 1032 
1032 1032 1032 1032 1032 1032 1032 1032 1032 
1032 1032 1032 1032 1032 1032 1032 1032 1032 
1032 1032 1032 1032 1032 1032 1032 1032 1032 
1032 1032 1032 1032 1032 1032 1032 1032 1032 
1032 1032 1032 1032 1032 1032 1032 1032 1032 
1032 1032 1032 1032 1032 1032 1032 1032 1032 
1032 1032 1032 1032 1032 1032 1032 1032 1032 
1032 1032 1032 1032 1032 1032 1032 1032 1032 
1032 1032 1032 1032 1032 1032 1032 1032 1032 
1032 1032 1032 1032 1032 1032 1032 1032 1032 
1032 1032 1032 1032 1032 1032 1032 1032 1032 
1032 1032 1032 1032 1032 1032 1032 1032 1032 

