# vtk DataFile Version 4.2
vtk output
ASCII
DATASET POLYDATA
POINTS 2832 float
28.7045 -28.7254 32.8015 28.5825 -28.3529 32.3741 28.383 -28.7798 32.6368 
28.9332 -28.5003 32.3097 28.5818 -29.2481 32.8206 28.3141 -29.615 32.2732 
29.0905 -29.1677 32.4069 28.7817 -29.7762 32.5343 28.8746 -28.0625 31.4823 
28.1752 -28.6314 31.7309 29.3206 -28.5647 31.5433 27.9622 -29.7931 31.3383 
29.7862 -29.043 31.3557 29.4939 -29.8879 31.9865 30.1629 -29.5799 31.3194 
28.878 -30.4965 32.0775 28.2952 -30.6642 31.4018 29.8388 -30.7734 31.902 
30.2453 -30.2527 31.4966 28.7573 -31.1892 31.6229 29.0227 -31.6657 31.353 
29.4533 -31.3413 31.8206 30.6091 -30.8909 31.6017 30.6982 -31.5681 31.8303 
31.9007 -31.5821 31.9132 31.4816 -31.0481 31.5551 32.5354 -31.8419 31.8333 
32.456 -31.1387 31.5656 33.0556 -31.4499 31.2134 29.7186 -31.9026 31.3639 
30.6188 -32.2226 31.465 31.14 -32.6308 31.3766 31.6577 -32.2405 31.8483 
32.3656 -32.4337 31.6774 32.8543 -32.197 31.4292 31.8959 -32.8638 31.2318 
29.6596 -25.7792 30.7242 29.7395 -25.3456 30.5507 29.3348 -25.5717 30.6269 
29.938 -25.7055 30.2351 28.9528 -26.2715 30.8191 28.8348 -26.0176 30.2041 
28.3941 -26.7372 30.5337 29.4089 -26.6501 30.7792 30.0486 -26.491 30.2802 
28.5489 -27.4331 31.0012 28.0485 -27.4549 30.396 29.3216 -27.433 30.6835 
29.7323 -26.9894 30.4576 27.7853 -28.313 30.9155 27.631 -28.1046 30.1704 
27.3447 -28.7779 30.4889 29.6887 -28.5362 30.9145 29.5278 -28.0832 30.7136 
30.0629 -28.4617 30.5129 27.5995 -29.2353 30.953 27.3182 -29.4118 30.1568 
30.8893 -29.8673 30.9175 30.4858 -29.1108 30.7028 31.1498 -29.4044 30.1485 
27.6588 -29.9223 30.5607 27.9863 -30.4646 30.4709 30.9574 -30.5217 31.2479 
31.6497 -29.9683 30.481 31.8632 -30.4421 31.0367 32.7673 -30.6698 31.0519 
32.4331 -30.072 30.3755 33.0926 -30.412 30.4308 28.5512 -31.4535 31.0778 
28.323 -31.3326 30.263 33.2632 -31.3224 30.3792 28.9077 -31.8881 30.6847 
29.7242 -32.2512 30.6106 30.5246 -32.5195 30.9437 30.1703 -32.5514 30.4709 
32.6279 -32.6879 31.155 33.0994 -32.385 30.4831 30.8062 -32.9823 30.5057 
31.9109 -33.2861 30.5341 32.6037 -33.1328 30.5385 29.5333 -25.5206 30.2714 
28.6134 -25.9035 29.4101 28.2544 -26.5411 29.6191 29.4253 -25.7895 29.6647 
30.2043 -26.239 29.6333 28.0589 -27.5215 29.3458 30.0755 -27.5756 30.1491 
30.5639 -27.0443 29.6452 30.7384 -27.8042 29.7101 31.1108 -27.4569 29.1898 
27.7445 -28.198 29.3744 27.3442 -28.6882 29.7609 30.6437 -28.472 30.0824 
31.1214 -28.4601 29.425 27.3982 -29.3011 29.4241 31.3276 -29.67 29.1937 
32.8007 -29.6262 29.9232 32.6634 -29.2629 29.2414 32.3656 -29.7007 29.4252 
33.0181 -29.5559 29.4329 27.6445 -29.9734 29.7551 28.0721 -30.5116 29.3202 
31.8088 -30.0377 29.6455 33.3351 -30.4276 29.4799 28.3097 -31.6079 29.0928 
33.3773 -31.571 29.6603 28.8353 -32.1262 29.766 29.6639 -32.5748 29.9595 
29.1362 -32.569 29.4459 33.3301 -32.583 29.4133 29.659 -33.0656 29.4468 
30.6178 -33.4877 29.8605 30.108 -33.6358 29.319 31.4707 -33.5963 30.0324 
32.3959 -33.631 29.9442 33.0013 -33.3175 29.7053 30.7984 -33.8804 29.3997 
31.8648 -34.0812 29.2456 32.7132 -33.8265 29.2461 29.7958 -24.8324 28.7352 
29.6386 -24.3797 28.4765 29.2854 -24.6564 28.4192 29.9068 -24.5104 28.332 
28.9628 -25.3247 28.9135 28.7062 -24.8963 28.2132 28.3037 -25.5978 28.5366 
29.9339 -25.7008 29.1459 30.5185 -24.892 28.3446 30.889 -25.5399 28.8639 
31.8101 -25.7913 28.753 31.4797 -25.2935 28.4112 32.0185 -25.7737 28.4161 
28.196 -26.5264 28.4667 30.8747 -26.5366 29.1111 31.5831 -26.305 28.8444 
32.0129 -26.2963 28.5783 28.1146 -27.5298 28.3213 31.5712 -26.8729 28.5407 
31.3159 -27.6593 28.4723 27.699 -28.8644 28.981 27.9971 -28.4675 28.5775 
31.2055 -28.6167 28.5105 25.8397 -29.8511 28.7913 25.4944 -29.2241 28.4337 
25.0709 -29.6523 28.6036 26.1357 -29.3543 28.3984 27.764 -29.6237 29.0411 
28.0097 -29.6703 28.4874 31.1183 -29.4665 28.431 32.6828 -29.2142 28.4418 
32.3567 -29.4925 28.6136 33.1925 -29.5284 28.3643 24.9925 -30.4807 28.8721 
24.4715 -30.0682 28.4748 24.1938 -30.8548 28.5155 25.8625 -30.7198 29.0365 
26.5955 -29.9451 28.5352 26.6152 -30.6293 28.799 27.1346 -30.4635 28.3754 
28.1036 -30.8575 28.4932 31.6147 -30.5128 28.8961 31.3471 -30.3281 28.4011 
31.9696 -30.271 28.5913 33.5936 -30.1514 28.5892 33.6994 -30.867 28.955 
33.9219 -30.476 28.2555 24.6363 -31.3125 28.7833 24.2888 -31.6652 28.4615 
25.4227 -31.4081 28.9097 26.4024 -31.4438 28.8156 27.2081 -31.2301 28.4438 
28.0563 -31.7141 28.3812 31.6634 -30.7761 28.4432 33.8539 -31.852 29.0168 
34.2613 -31.1848 28.3229 24.9767 -32.0292 28.5437 25.956 -32.1193 28.5036 
26.8381 -31.936 28.3816 28.7302 -32.4785 29.0513 28.2574 -32.2772 28.5353 
33.6645 -32.6667 28.9346 34.7836 -31.9116 28.3669 34.3696 -32.4726 28.7521 
35.1656 -32.4357 28.4152 28.6547 -33.0218 28.4304 29.5026 -33.4931 28.8727 
29.141 -33.5344 28.429 33.2438 -33.3837 28.8324 34.0076 -33.093 28.34 
34.9484 -32.8265 28.2801 29.7747 -33.9685 28.4882 30.938 -34.2589 28.8073 
31.5572 -34.4899 28.7781 31.1874 -34.5576 28.5384 32.0611 -34.5959 28.4117 
32.7506 -34.0297 28.3305 31.5026 -34.9215 28.2204 28.774 -24.5583 27.6786 
28.5534 -24.3274 27.2018 28.3225 -24.7497 27.642 29.6421 -24.4419 28.2168 
29.0763 -24.4947 27.0834 28.1749 -25.5155 27.4839 29.7031 -24.7517 27.7013 
30.9595 -25.1324 27.6679 31.6838 -25.5341 27.9585 31.3104 -25.6677 27.3139 
28.0655 -26.5962 27.5363 31.8245 -26.2044 28.041 31.2633 -26.6939 27.5096 
25.8979 -27.7671 27.8299 25.6296 -27.192 27.1862 25.1026 -27.6155 27.5854 
27.0183 -27.6807 27.8381 26.5522 -27.2157 27.5052 27.7727 -27.4763 27.8662 
27.4159 -27.0006 27.3114 31.0709 -27.8303 27.6339 23.9614 -28.6096 27.7702 
23.6401 -28.2529 27.2479 23.3716 -28.8006 27.4827 24.8594 -28.2755 27.885 
24.3328 -27.8951 27.3276 25.7551 -28.7703 28.0982 26.7758 -28.546 27.9533 
27.6489 -28.2546 28.0666 30.9464 -28.7678 27.7829 23.6477 -29.3345 27.8503 
23.1135 -29.6501 27.4091 24.5817 -29.2612 28.1696 26.8705 -29.5707 28.1125 
27.6304 -29.2482 28.0502 30.8729 -29.6536 27.831 30.3974 -29.6825 27.177 
30.5629 -28.9811 27.3504 32.8023 -29.163 27.2891 32.15 -29.6949 27.7495 
33.3442 -29.3211 27.3723 23.7667 -30.2411 28.0268 23.1111 -30.8177 27.5221 
27.6836 -30.4466 28.138 30.8952 -30.0828 27.249 31.4815 -30.0257 27.4801 
31.7171 -30.4728 28.0367 33.6716 -29.8687 27.8121 34.1814 -30.4437 27.3284 
23.7441 -31.4946 28.0312 23.1342 -31.8671 27.3356 27.5824 -31.6348 28.1475 
34.6356 -31.17 27.5694 34.7467 -31.5072 27.9844 35.1283 -31.5997 27.3446 
23.7867 -32.5287 27.8242 23.3891 -32.6 27.268 24.5633 -32.5384 28.1606 
25.5051 -32.6465 28.1874 26.5486 -32.6508 27.9527 27.6911 -32.4837 27.9649 
35.6544 -32.61 27.9822 35.5892 -32.1718 27.7298 36.0479 -32.6272 27.2002 
23.8222 -33.1002 27.5048 24.2342 -33.6054 27.2118 24.4625 -33.3354 27.8402 
25.4567 -33.3638 27.8396 26.2463 -33.4208 27.5186 27.0026 -33.1309 27.4382 
27.8602 -33.165 27.5823 28.6759 -33.5446 27.9186 28.2074 -33.6922 27.3448 
33.4955 -33.5916 28.0587 34.1839 -33.6124 27.3673 34.7929 -33.2136 27.6278 
35.6437 -33.0256 27.526 25.0275 -33.8845 27.3533 25.8953 -33.8688 27.2308 
28.9123 -34.0971 27.613 29.5948 -34.4549 27.7794 29.1452 -34.5129 27.4119 
30.5353 -34.6053 28.122 32.4446 -34.5414 27.7504 32.9033 -34.2529 27.4815 
33.4885 -33.9938 27.4389 29.7212 -34.9403 27.3164 30.9155 -35.1981 27.7113 
31.5864 -35.4735 27.7565 31.3209 -35.7452 27.4639 32.1987 -35.3926 27.4586 
31.799 -35.9848 27.333 29.7345 -23.5091 26.6592 29.7457 -23.315 26.4736 
29.3586 -23.296 26.3669 30.0264 -23.6376 26.192 28.7029 -24.1867 26.665 
28.1999 -24.6122 26.6242 29.1866 -24.367 26.449 29.5688 -23.7538 26.4446 
28.01 -25.7304 26.6898 29.6912 -24.7553 26.6774 30.5442 -25.0313 26.691 
31.036 -25.5371 26.4282 27.8311 -26.4167 26.8368 27.7579 -26.0795 26.4152 
27.3839 -26.485 26.5098 30.7669 -26.4178 26.8045 30.3971 -26.7226 26.4556 
30.6955 -26.0782 26.157 24.8356 -27.4057 27.0851 24.6244 -27.1951 26.3369 
24.2635 -27.5383 26.6591 25.4709 -26.915 26.2794 26.5426 -26.8847 26.7259 
30.6765 -27.2389 26.9582 30.268 -27.4921 26.3401 23.7837 -27.8999 26.7296 
23.1275 -28.5514 26.7343 30.6205 -28.178 27.0477 30.2425 -28.5623 26.501 
22.6734 -29.4455 26.838 22.5506 -28.9316 26.336 22.3077 -29.6249 26.3806 
30.1833 -29.3861 26.3194 32.9452 -29.1369 26.1896 32.1952 -29.5002 26.7584 
33.7692 -29.5841 27.0512 33.6058 -29.116 26.4508 34.2237 -29.7121 26.3013 
22.6107 -30.2961 27.016 22.2267 -30.5669 26.3807 30.6458 -30.6339 26.9936 
30.3069 -30.4658 26.5515 31.0503 -30.5497 26.6472 31.6755 -30.0004 26.3347 
34.3461 -30.7101 26.2278 22.6049 -31.271 26.9409 22.2817 -31.6324 26.1487 
30.6276 -31.3473 26.7428 30.3637 -31.529 26.379 30.9984 -31.4137 26.3451 
34.6938 -31.1025 26.7837 35.1126 -31.498 26.5687 22.6762 -32.0168 26.6533 
23.0293 -32.442 26.7414 30.7629 -32.015 26.3891 35.5596 -32.0414 26.5722 
36.0953 -32.8004 26.2528 23.4537 -33.0917 26.6055 24.0351 -33.6041 26.6 
26.7167 -33.7202 27.0864 27.551 -33.6506 27.1083 34.7849 -33.513 27.0862 
35.4154 -33.524 26.9444 36.132 -33.4281 26.5296 24.603 -34.0523 26.4731 
25.77 -34.1723 26.4724 26.6079 -34.0983 26.6002 27.2454 -34.6834 26.1093 
27.4177 -34.2217 26.7413 28.4415 -34.3965 27.0254 32.6895 -34.7359 27.2428 
33.3277 -34.663 26.8998 34.1739 -34.5036 26.4804 34.9588 -34.0434 26.5925 
35.7722 -34.0598 26.3356 27.9854 -34.9242 26.4513 28.8726 -35.159 26.6408 
29.7753 -35.6109 26.8139 29.2597 -35.7322 26.3973 30.6496 -35.6849 27.1976 
32.8238 -35.275 26.9066 33.3171 -35.5997 26.2925 33.7468 -35.0921 26.3054 
29.862 -36.1309 26.5304 30.2341 -36.5501 26.4904 30.5206 -36.29 26.7913 
31.3989 -36.4141 26.9419 32.233 -36.5929 26.4989 32.7251 -36.053 26.4746 
30.7673 -36.9877 26.3591 31.7189 -37.115 26.3685 28.8964 -22.7324 25.7585 
28.687 -22.3235 25.3914 28.5035 -22.7411 25.4054 28.9063 -22.4817 25.3393 
28.7388 -23.7299 26.0958 28.0729 -23.4777 25.4021 29.507 -23.0349 25.6719 
30.2172 -23.5397 25.2077 27.8578 -24.3289 25.7966 27.5822 -23.9281 25.2566 
27.3979 -24.6396 25.289 29.9236 -24.3347 26.1766 30.5999 -24.0927 25.5818 
30.7645 -24.6962 25.9642 31.0666 -24.6603 25.3999 27.5846 -25.5045 26.0189 
[...]
CELL_DATA 5672
SCALARS scalars float
LOOKUP_TABLE default
1033 1033 1033 1033 1033 1033 1033 1033 1033 
1033 1033 1033 1033 1033 1033 1033 1033 1033 
1033 1033 1033 1033 1033 1033 1033 1033 1033 
1033 1033 1033 1033 1033 1033 1033 1033 1033 
1033 1033 1033 1033 1033 1033 1033 1033 1033 
1033 1033 1033 1033 1033 1033 1033 1033 1033 
1033 1033 1033 1033 1033 1033 1033 1033 1033 
1033 1033 1033 1033 1033 1033 1033 1033 1033 
1033 1033 1033 1033 1033 1033 1033 1033 1033 
1033 1033 1033 1033 1033 1033 1033 1033 1033 
1033 1033 1033 1033 1033 1033 1033 1033 1033 
1033 1033 1033 1033 1033 1033 1033 1033 1033 
1033 1033 1033 1033 1033 1033 1033 1033 1033 
1033 1033 1033 1033 1033 1033 1033 1033 1033 
1033 1033 1033 1033 1033 1033 1033 1033 1033 
1033 1033 1033 1033 1033 1033 1033 1033 1033 
1033 1033 1033 1033 1033 1033 1033 1033 1033 
1033 1033 1033 1033 1033 1033 1033 1033 1033 
1033 1033 1033 1033 1033 1033 1033 1033 1033 
1033 1033 1033 1033 1033 1033 1033 1033 1033 
1033 1033 1033 1033 1033 1033 1033 1033 1033 
1033 1033 1033 1033 1033 1033 1033 1033 1033 
1033 1033 1033 1033 1033 1033 1033 1033 1033 
1033 1033 1033 1033 1033 1033 1033 1033 1033 
1033 1033 1033 1033 1033 1033 1033 1033 1033 
1033 1033 1033 1033 1033 1033 1033 1033 1033 
1033 1033 1033 1033 1033 1033 1033 1033 1033 
1033 1033 1033 1033 1033 1033 1033 1033 1033 
1033 1033 1033 1033 1033 1033 1033 1033 1033 
1033 1033 1033 1033 1033 1033 1033 1033 1033 
1033 1033 1033 1033 1033 1033 1033 1033 1033 
1033 1033 1033 1033 1033 1033 1033 1033 1033 
1033 1033 1033 1033 1033 1033 1033 1033 1033 
1033 1033 1033 1033 1033 1033 1033 1033 1033 
1033 1033 1033 1033 1033 1033 1033 1033 1033 
1033 1033 1033 1033 1033 1033 1033 1033 1033 
1033 1033 1033 1033 1033 1033 1033 1033 1033 
1033 1033 1033 1033 1033 1033 1033 1033 1033 
1033 1033 1033 1033 1033 1033 1033 1033 1033 
1033 1033 1033 1033 1033 1033 1033 1033 1033 
1033 1033 1033 1033 1033 1033 1033 1033 1033 
1033 1033 1033 1033 1033 1033 1033 1033 1033 
1033 1033 1033 1033 1033 1033 1033 1033 1033 
1033 1033 1033 1033 1033 1033 1033 1033 1033 
1033 1033 1033 1033 1033 1033 1033 1033 1033 
1033 1033 1033 1033 1033 1033 1033 1033 1033 
1033 1033 1033 1033 1033 1033 1033 1033 1033 
1033 1033 1033 1033 1033 1033 1033 1033 1033 
1033 1033 1033 1033 1033 1033 1033 1033 1033 
1033 1033 1033 1033 1033 1033 1033 1033 1033 
1033 1033 1033 1033 1033 1033 1033 1033 1033 
1033 1033 1033 1033 1033 1033 1033 1033 1033 
1033 1033 1033 1033 1033 1033 1033 1033 1033 
1033 1033 1033 1033 1033 1033 1033 1033 1033 
1033 1033 1033 1033 1033 1033 1033 1033 1033 
1033 1033 1033 1033 1033 1033 1033 1033 1033 
1033 1033 1033 1033 1033 1033 1033 1033 1033 
1033 1033 1033 1033 1033 1033 1033 1033 1033 
1033 1033 1033 1033 1033 1033 1033 1033 1033 
1033 1033 1033 1033 1033 1033 1033 1033 1033 
1033 1033 1033 1033 1033 1033 1033 1033 1033 
1033 1033 1033 1033 1033 1033 1033 1033 1033 
1033 1033 1033 1033 1033 1033 1033 1033 1033 
1033 1033 1033 1033 1033 1033 1033 1033 1033 
1033 1033 1033 1033 1033 1033 1033 1033 1033 
1033 1033 1033 1033 1033 1033 1033 1033 1033 
1033 1033 1033 1033 1033 1033 1033 1033 1033 
1033 1033 1033 1033 1033 1033 1033 1033 1033 
1033 1033 1033 1033 1033 1033 1033 1033 1033 
1033 1033 1033 1033 1033 1033 1033 1033 1033 
1033 1033 1033 1033 1033 1033 1033 1033 1033 
1033 1033 1033 1033 1033 1033 1033 1033 1033 
1033 1033 1033 1033 1033 1033 1033 1033 1033 
1033 1033 1033 1033 1033 1033 1033 1033 1033 
1033 1033 1033 1033 1033 1033 1033 1033 1033 
1033 1033 1033 1033 1033 1033 1033 1033 1033 
1033 1033 1033 1033 1033 1033 1033 1033 1033 
1033 1033 1033 1033 1033 1033 1033 1033 1033 
1033 1033 1033 1033 1033 1033 1033 1033 1033 
1033 1033 1033 1033 1033 1033 1033 1033 1033 
1033 1033 1033 1033 1033 1033 1033 1033 1033 
1033 1033 1033 1033 1033 1033 1033 1033 1033 
1033 1033 1033 1033 1033 1033 1033 1033 1033 
1033 1033 1033 1033 1033 1033 1033 1033 1033 
1033 1033 1033 1033 1033 1033 1033 1033 1033 
1033 1033 1033 1033 1033 1033 1033 1033 1033 
1033 1033 1033 1033 1033 1033 1033 1033 1033 
1033 1033 1033 1033 1033 1033 1033 1033 1033 
1033 1033 1033 1033 1033 1033 1033 1033 1033 
1033 1033 1033 1033 1033 1033 1033 1033 1033 
1033 1033 1033 1033 1033 1033 1033 1033 1033 
1033 1033 1033 1033 1033 1033 1033 1033 1033 
1033 1033 1033 1033 1033 1033 1033 1033 1033 
1033 1033 1033 1033 1033 1033 1033 1033 1033 
1033 1033 1033 1033 1033 1033 1033 1033 1033 
1033 1033 1033 1033 1033 1033 1033 1033 1033 
1033 1033 1033 1033 1033 1033 1033 1033 1033 
1033 1033 1033 1033 1033 1033 1033 1033 1033 
1033 1033 1033 1033 1033 1033 1033 1033 1033 
1033 1033 1033 1033 1033 1033 1033 1033 1033 
1033 1033 1033 1033 1033 1033 1033 1033 1033 
1033 1033 1033 1033 1033 1033 1033 1033 1033 
1033 1033 1033 1033 1033 1033 1033 1033 1033 
1033 1033 1033 1033 1033 1033 1033 1033 1033 
1033 1033 1033 1033 1033 1033 1033 1033 1033 
1033 1033 1033 1033 1033 1033 1033 1033 1033 
1033 1033 1033 1033 1033 1033 1033 1033 1033 
1033 1033 1033 1033 1033 1033 1033 1033 1033 
1033 1033 1033 1033 1033 1033 1033 1033 1033 
1033 1033 1033 1033 1033 1033 1033 1033 1033 
1033 1033 1033 1033 1033 1033 1033 1033 1033 
1033 1033 1033 1033 1033 1033 1033 1033 1033 
1033 1033 1033 1033 1033 1033 1033 1033 1033 
1033 1033 1033 1033 1033 1033 1033 1033 1033 
1033 1033 1033 1033 1033 1033 1033 1033 1033 
1033 1033 1033 1033 1033 1033 1033 1033 1033 
1033 1033 1033 1033 1033 1033 1033 1033 1033 
1033 1033 1033 1033 1033 1033 1033 1033 1033 
1033 1033 1033 1033 1033 1033 1033 1033 1033 
1033 1033 1033 1033 1033 1033 1033 1033 1033 
1033 1033 1033 1033 1033 1033 1033 1033 1033 
1033 1033 1033 1033 1033 1033 1033 1033 1033 
1033 1033 1033 1033 1033 1033 1033 1033 1033 
1033 1033 1033 1033 1033 1033 1033 1033 1033 
1033 1033 1033 1033 1033 1033 1033 1033 1033 
1033 1033 1033 1033 1033 1033 1033 1033 1033 
1033 1033 1033 1033 1033 1033 1033 1033 1033 
1033 1033 1033 1033 1033 1033 1033 1033 1033 
1033 1033 1033 1033 1033 1033 1033 1033 1033 
1033 1033 1033 1033 1033 1033 1033 1033 1033 
1033 1033 1033 1033 1033 1033 1033 1033 1033 
1033 1033 1033 1033 1033 1033 1033 1033 1033 
1033 1033 1033 1033 1033 1033 1033 1033 1033 
1033 1033 1033 1033 1033 1033 1033 1033 1033 
1033 1033 1033 1033 1033 1033 1033 1033 1033 
1033 1033 1033 1033 1033 1033 1033 1033 1033 
1033 1033 1033 1033 1033 1033 1033 1033 1033 
1033 1033 1033 1033 1033 1033 1033 1033 1033 
1033 1033 1033 1033 1033 1033 1033 1033 1033 
1033 1033 1033 1033 1033 1033 1033 1033 1033 
1033 1033 1033 1033 1033 1033 1033 1033 1033 
1033 1033 1033 1033 1033 1033 1033 1033 1033 
1033 1033 1033 1033 1033 1033 1033 1033 1033 
1033 1033 1033 1033 1033 1033 1033 1033 1033 
1033 1033 1033 1033 1033 1033 1033 1033 1033 
1033 1033 1033 1033 1033 1033 1033 1033 1033 
1033 1033 1033 1033 1033 1033 1033 1033 1033 
1033 1033 1033 1033 1033 1033 1033 1033 1033 
1033 1033 1033 1033 1033 1033 1033 1033 1033 
1033 1033 1033 1033 1033 1033 1033 1033 1033 
1033 1033 1033 1033 1033 1033 1033 1033 1033 
1033 1033 1033 1033 1033 1033 1033 1033 1033 
1033 1033 1033 1033 1033 1033 1033 1033 1033 
1033 1033 1033 1033 1033 1033 1033 1033 1033 
1033 1033 1033 1033 1033 1033 1033 1033 1033 
1033 1033 1033 1033 1033 1033 1033 1033 1033 
1033 1033 1033 1033 1033 1033 1033 1033 1033 
1033 1033 1033 1033 1033 1033 1033 1033 1033 
1033 1033 1033 1033 1033 1033 1033 1033 1033 
1033 1033 1033 1033 1033 1033 1033 1033 1033 
1033 1033 1033 1033 1033 1033 1033 1033 1033 
1033 1033 1033 1033 1033 1033 1033 1033 1033 
1033 1033 1033 1033 1033 1033 1033 1033 1033 
1033 1033 1033 1033 1033 1033 1033 1033 1033 
1033 1033 1033 1033 1033 1033 1033 1033 1033 
1033 1033 1033 1033 1033 1033 1033 1033 1033 
1033 1033 1033 1033 1033 1033 1033 1033 1033 
1033 1033 1033 1033 1033 1033 1033 1033 1033 
1033 1033 1033 1033 1033 1033 1033 1033 1033 
1033 1033 1033 1033 1033 1033 1033 1033 1033 
1033 1033 1033 1033 1033 1033 1033 1033 1033 
1033 1033 1033 1033 1033 1033 1033 1033 1033 
1033 1033 1033 1033 1033 1033 1033 1033 1033 
1033 1033 1033 1033 1033 1033 1033 1033 1033 
1033 1033 1033 1033 1033 1033 1033 1033 1033 
1033 1033 1033 1033 1033 1033 1033 1033 1033 
1033 1033 1033 1033 1033 1033 1033 1033 1033 
1033 1033 1033 1033 1033 1033 1033 1033 1033 
1033 1033 1033 1033 1033 1033 1033 1033 1033 
1033 1033 1033 1033 1033 1033 1033 1033 1033 
1033 1033 1033 1033 1033 1033 1033 1033 1033 
1033 1033 1033 1033 1033 1033 1033 1033 1033 
1033 1033 1033 1033 1033 1033 1033 1033 1033 
1033 1033 1033 1033 1033 1033 1033 1033 1033 
1033 1033 1033 1033 1033 1033 1033 1033 1033 
1033 1033 1033 1033 1033 1033 1033 1033 1033 
1033 1033 1033 1033 1033 1033 1033 1033 1033 
1033 1033 1033 1033 1033 1033 1033 1033 1033 
1033 1033 1033 1033 1033 1033 1033 1033 1033 
1033 1033 1033 1033 1033 1033 1033 1033 1033 
1033 1033 1033 1033 1033 1033 1033 1033 1033 
1033 1033 1033 1033 1033 1033 1033 1033 1033 
1033 1033 1033 1033 1033 1033 1033 1033 1033 
1033 1033 1033 1033 1033 1033 1033 1033 1033 
1033 1033 1033 1033 1033 1033 1033 1033 1033 
1033 1033 1033 1033 1033 1033 1033 1033 1033 
1033 1033 1033 1033 1033 1033 1033 1033 1033 
1033 1033 1033 1033 1033 1033 1033 1033 1033 
1033 1033 1033 1033 1033 1033 1033 1033 1033 
1033 1033 1033 1033 1033 1033 1033 1033 1033 
1033 1033 1033 1033 1033 1033 1033 1033 1033 
1033 1033 1033 1033 1033 1033 1033 1033 1033 
1033 1033 1033 1033 1033 1033 1033 1033 1033 
1033 1033 1033 1033 1033 1033 1033 1033 1033 
1033 1033 1033 1033 1033 1033 1033 1033 1033 
1033 1033 1033 1033 1033 1033 1033 1033 1033 
1033 1033 1033 1033 1033 1033 1033 1033 1033 
1033 1033 1033 1033 1033 1033 1033 1033 1033 
1033 1033 1033 1033 1033 1033 1033 1033 1033 
1033 1033 1033 1033 1033 1033 1033 1033 1033 
1033 1033 1033 1033 1033 1033 1033 1033 1033 
1033 1033 1033 1033 1033 1033 1033 1033 1033 
1033 1033 1033 1033 1033 1033 1033 1033 1033 
1033 1033 1033 1033 1033 1033 1033 1033 1033 
1033 1033 1033 1033 1033 1033 1033 1033 1033 
1033 1033 1033 1033 1033 1033 1033 1033 1033 
1033 1033 1033 1033 1033 1033 1033 1033 1033 
1033 1033 1033 1033 1033 1033 1033 1033 1033 
1033 1033 1033 1033 1033 1033 1033 1033 1033 
1033 1033 1033 1033 1033 1033 1033 1033 1033 
1033 1033 1033 1033 1033 1033 1033 1033 1033 
1033 1033 1033 1033 1033 1033 1033 1033 1033 
1033 1033 1033 1033 1033 1033 1033 1033 1033 
1033 1033 1033 1033 1033 1033 1033 1033 1033 
1033 1033 1033 1033 1033 1033 1033 1033 1033 
1033 1033 1033 1033 1033 1033 1033 1033 1033 
1033 1033 1033 1033 1033 1033 1033 1033 1033 
1033 1033 1033 1033 1033 1033 1033 1033 1033 
1033 1033 1033 1033 1033 1033 1033 1033 1033 
1033 1033 1033 1033 1033 1033 1033 1033 1033 
1033 1033 1033 1033 1033 1033 1033 1033 1033 
1033 1033 1033 1033 1033 1033 1033 1033 1033 
1033 1033 1033 1033 1033 1033 1033 1033 1033 
1033 1033 1033 1033 1033 1033 1033 1033 1033 
1033 1033 1033 1033 1033 1033 1033 1033 1033 
1033 1033 1033 1033 1033 1033 1033 1033 1033 
1033 1033 1033 1033 1033 1033 1033 1033 1033 
1033 1033 1033 1033 1033 1033 1033 1033 1033 
1033 1033 1033 1033 1033 1033 1033 1033 1033 
1033 1033 1033 1033 1033 1033 1033 1033 1033 
1033 1033 1033 1033 1033 1033 1033 1033 1033 
1033 1033 1033 1033 1033 1033 1033 1033 1033 
1033 1033 1033 1033 1033 1033 1033 1033 1033 
1033 1033 1033 1033 1033 1033 1033 1033 1033 
1033 1033 1033 1033 1033 1033 1033 1033 1033 
1033 1033 1033 1033 1033 1033 1033 1033 1033 
1033 1033 1033 1033 1033 1033 1033 1033 1033 
1033 1033 1033 1033 1033 1033 1033 1033 1033 
1033 1033 1033 1033 1033 1033 1033 1033 1033 
1033 1033 1033 1033 1033 1033 1033 1033 1033 
1033 1033 1033 1033 1033 1033 1033 1033 1033 
1033 1033 1033 1033 1033 1033 1033 1033 1033 
1033 1033 1033 1033 1033 1033 1033 1033 1033 
1033 1033 1033 1033 1033 1033 1033 1033 1033 
1033 1033 1033 1033 1033 1033 1033 1033 1033 
1033 1033 1033 1033 1033 1033 1033 1033 1033 
1033 1033 1033 1033 1033 1033 1033 1033 1033 
1033 1033 1033 1033 1033 1033 1033 1033 1033 
1033 1033 1033 1033 1033 1033 1033 1033 1033 
1033 1033 1033 1033 1033 1033 1033 1033 1033 
1033 1033 1033 1033 1033 1033 1033 1033 1033 
1033 1033 1033 1033 1033 1033 1033 1033 1033 
1033 1033 1033 1033 1033 1033 1033 1033 1033 
1033 1033 1033 1033 1033 1033 1033 1033 1033 
1033 1033 1033 1033 1033 1033 1033 1033 1033 
1033 1033 1033 1033 1033 1033 1033 1033 1033 
1033 1033 1033 1033 1033 1033 1033 1033 1033 
1033 1033 1033 1033 1033 1033 1033 1033 1033 
1033 1033 1033 1033 1033 1033 1033 1033 1033 
1033 1033 1033 1033 1033 1033 1033 1033 1033 
1033 1033 1033 1033 1033 1033 1033 1033 1033 
1033 1033 1033 1033 1033 1033 1033 1033 1033 
1033 1033 1033 1033 1033 1033 1033 1033 1033 
1033 1033 1033 1033 1033 1033 1033 1033 1033 
1033 1033 1033 1033 1033 1033 1033 1033 1033 
1033 1033 1033 1033 1033 1033 1033 1033 1033 
1033 1033 1033 1033 1033 1033 1033 1033 1033 
1033 1033 1033 1033 1033 1033 1033 1033 1033 
1033 1033 1033 1033 1033 1033 1033 1033 1033 
1033 1033 1033 1033 1033 1033 1033 1033 1033 
1033 1033 1033 1033 1033 1033 1033 1033 1033 
1033 1033 1033 1033 1033 1033 1033 1033 1033 
1033 1033 1033 1033 1033 1033 1033 1033 1033 
1033 1033 1033 1033 1033 1033 1033 1033 1033 
1033 1033 1033 1033 1033 1033 1033 1033 1033 
1033 1033 1033 1033 1033 1033 1033 1033 1033 
1033 1033 1033 1033 1033 1033 1033 1033 1033 
1033 1033 1033 1033 1033 1033 1033 1033 1033 
1033 1033 1033 1033 1033 1033 1033 1033 1033 
1033 1033 1033 1033 1033 1033 1033 1033 1033 
1033 1033 1033 1033 1033 1033 1033 1033 1033 
1033 1033 1033 1033 1033 1033 1033 1033 1033 
1033 1033 1033 1033 1033 1033 1033 1033 1033 
1033 1033 1033 1033 1033 1033 1033 1033 1033 
1033 1033 1033 1033 1033 1033 1033 1033 1033 
1033 1033 1033 1033 1033 1033 1033 1033 1033 
1033 1033 1033 1033 1033 1033 1033 1033 1033 
1033 1033 1033 1033 1033 1033 1033 1033 1033 
1033 1033 1033 1033 1033 1033 1033 1033 1033 
1033 1033 1033 1033 1033 1033 1033 1033 1033 
1033 1033 1033 1033 1033 1033 1033 1033 1033 
1033 1033 1033 1033 1033 1033 1033 1033 1033 
1033 1033 1033 1033 1033 1033 1033 1033 1033 
1033 1033 1033 1033 1033 1033 1033 1033 1033 
1033 1033 1033 1033 1033 1033 1033 1033 1033 
1033 1033 1033 1033 1033 1033 1033 1033 1033 
1033 1033 1033 1033 1033 1033 1033 1033 1033 
1033 1033 1033 1033 1033 1033 1033 1033 1033 
1033 1033 1033 1033 1033 1033 1033 1033 1033 
1033 1033 1033 1033 1033 1033 1033 1033 1033 
1033 1033 1033 1033 1033 1033 1033 1033 1033 
1033 1033 1033 1033 1033 1033 1033 1033 1033 
1033 1033 1033 1033 1033 1033 1033 1033 1033 
1033 1033 1033 1033 1033 1033 1033 1033 1033 
1033 1033 1033 1033 1033 1033 1033 1033 1033 
1033 1033 1033 1033 1033 1033 1033 1033 1033 
1033 1033 1033 1033 1033 1033 1033 1033 1033 
1033 1033 1033 1033 1033 1033 1033 1033 1033 
1033 1033 1033 1033 1033 1033 1033 1033 1033 
1033 1033 1033 1033 1033 1033 1033 1033 1033 
1033 1033 1033 1033 1033 1033 1033 1033 1033 
1033 1033 1033 1033 1033 1033 1033 1033 1033 
1033 1033 1033 1033 1033 1033 1033 1033 1033 
1033 1033 1033 1033 1033 1033 1033 1033 1033 
1033 1033 1033 1033 1033 1033 1033 1033 1033 
1033 1033 1033 1033 1033 1033 1033 1033 1033 
1033 1033 1033 1033 1033 1033 1033 1033 1033 
1033 1033 1033 1033 1033 1033 1033 1033 1033 
1033 1033 1033 1033 1033 1033 1033 1033 1033 
1033 1033 1033 1033 1033 1033 1033 1033 1033 
1033 1033 1033 1033 1033 1033 1033 1033 1033 
1033 1033 1033 1033 1033 1033 1033 1033 1033 
1033 1033 1033 1033 1033 1033 1033 1033 1033 
1033 1033 1033 1033 1033 1033 1033 1033 1033 
1033 1033 1033 1033 1033 1033 1033 1033 1033 
1033 1033 1033 1033 1033 1033 1033 1033 1033 
1033 1033 1033 1033 1033 1033 1033 1033 1033 
1033 1033 1033 1033 1033 1033 1033 1033 1033 
1033 1033 1033 1033 1033 1033 1033 1033 1033 
1033 1033 1033 1033 1033 1033 1033 1033 1033 
1033 1033 1033 1033 1033 1033 1033 1033 1033 
1033 1033 1033 1033 1033 1033 1033 1033 1033 
1033 1033 1033 1033 1033 1033 1033 1033 1033 
1033 1033 1033 1033 1033 1033 1033 1033 1033 
1033 1033 1033 1033 1033 1033 1033 1033 1033 
1033 1033 1033 1033 1033 1033 1033 1033 1033 
1033 1033 1033 1033 1033 1033 1033 1033 1033 
1033 1033 1033 1033 1033 1033 1033 1033 1033 
1033 1033 1033 1033 1033 1033 1033 1033 1033 
1033 1033 1033 1033 1033 1033 1033 1033 1033 
1033 1033 1033 1033 1033 1033 1033 1033 1033 
1033 1033 1033 1033 1033 1033 1033 1033 1033 
1033 1033 1033 1033 1033 1033 1033 1033 1033 
1033 1033 1033 1033 1033 1033 1033 1033 1033 
1033 1033 1033 1033 1033 1033 1033 1033 1033 
1033 1033 1033 1033 1033 1033 1033 1033 1033 
1033 1033 1033 1033 1033 1033 1033 1033 1033 
1033 1033 1033 1033 1033 1033 1033 1033 1033 
1033 1033 1033 1033 1033 1033 1033 1033 1033 
1033 1033 1033 1033 1033 1033 1033 1033 1033 
1033 1033 1033 1033 1033 1033 1033 1033 1033 
1033 1033 1033 1033 1033 1033 1033 1033 1033 
1033 1033 1033 1033 1033 1033 1033 1033 1033 
1033 1033 1033 1033 1033 1033 1033 1033 1033 
1033 1033 1033 1033 1033 1033 1033 1033 1033 
1033 1033 1033 1033 1033 1033 1033 1033 1033 
1033 1033 1033 1033 1033 1033 1033 1033 1033 
1033 1033 1033 1033 1033 1033 1033 1033 1033 
1033 1033 1033 1033 1033 1033 1033 1033 1033 
1033 1033 1033 1033 1033 1033 1033 1033 1033 
1033 1033 1033 1033 1033 1033 1033 1033 1033 
1033 1033 1033 1033 1033 1033 1033 1033 1033 
1033 1033 1033 1033 1033 1033 1033 1033 1033 
1033 1033 1033 1033 1033 1033 1033 1033 1033 
1033 1033 1033 1033 1033 1033 1033 1033 1033 
1033 1033 1033 1033 1033 1033 1033 1033 1033 
1033 1033 1033 1033 1033 1033 1033 1033 1033 
1033 1033 1033 1033 1033 1033 1033 1033 1033 
1033 1033 1033 1033 1033 1033 1033 1033 1033 
1033 1033 1033 1033 1033 1033 1033 1033 1033 
1033 1033 1033 1033 1033 1033 1033 1033 1033 
1033 1033 1033 1033 1033 1033 1033 1033 1033 
1033 1033 1033 1033 1033 1033 1033 1033 1033 
1033 1033 1033 1033 1033 1033 1033 1033 1033 
1033 1033 1033 1033 1033 1033 1033 1033 1033 
1033 1033 1033 1033 1033 1033 1033 1033 1033 
1033 1033 1033 1033 1033 1033 1033 1033 1033 
1033 1033 1033 1033 1033 1033 1033 1033 1033 
1033 1033 1033 1033 1033 1033 1033 1033 1033 
1033 1033 1033 1033 1033 1033 1033 1033 1033 
1033 1033 1033 1033 1033 1033 1033 1033 1033 
1033 1033 1033 1033 1033 1033 1033 1033 1033 
1033 1033 1033 1033 1033 1033 1033 1033 1033 
1033 1033 1033 1033 1033 1033 1033 1033 1033 
1033 1033 1033 1033 1033 1033 1033 1033 1033 
1033 1033 1033 1033 1033 1033 1033 1033 1033 
1033 1033 1033 1033 1033 1033 1033 1033 1033 
1033 1033 1033 1033 1033 1033 1033 1033 1033 
1033 1033 1033 1033 1033 1033 1033 1033 1033 
1033 1033 1033 1033 1033 1033 1033 1033 1033 
1033 1033 1033 1033 1033 1033 1033 1033 1033 
1033 1033 1033 1033 1033 1033 1033 1033 1033 
1033 1033 1033 1033 1033 1033 1033 1033 1033 
1033 1033 1033 1033 1033 1033 1033 1033 1033 
1033 1033 1033 1033 1033 1033 1033 1033 1033 
1033 1033 1033 1033 1033 1033 1033 1033 1033 
1033 1033 1033 1033 1033 1033 1033 1033 1033 
1033 1033 1033 1033 1033 1033 1033 1033 1033 
1033 1033 1033 1033 1033 1033 1033 1033 1033 
1033 1033 1033 1033 1033 1033 1033 1033 1033 
1033 1033 1033 1033 1033 1033 1033 1033 1033 
1033 1033 1033 1033 1033 1033 1033 1033 1033 
1033 1033 1033 1033 1033 1033 1033 1033 1033 
1033 1033 1033 1033 1033 1033 1033 1033 1033 
1033 1033 1033 1033 1033 1033 1033 1033 1033 
1033 1033 1033 1033 1033 1033 1033 1033 1033 
1033 1033 1033 1033 1033 1033 1033 1033 1033 
1033 1033 1033 1033 1033 1033 1033 1033 1033 
1033 1033 1033 1033 1033 1033 1033 1033 1033 
1033 1033 1033 1033 1033 1033 1033 1033 1033 
1033 1033 1033 1033 1033 1033 1033 1033 1033 
1033 1033 1033 1033 1033 1033 1033 1033 1033 
1033 1033 1033 1033 1033 1033 1033 1033 1033 
1033 1033 1033 1033 1033 1033 1033 1033 1033 
1033 1033 1033 1033 1033 1033 1033 1033 1033 
1033 1033 1033 1033 1033 1033 1033 1033 1033 
1033 1033 1033 1033 1033 1033 1033 1033 1033 
1033 1033 1033 1033 1033 1033 1033 1033 1033 
1033 1033 1033 1033 1033 1033 1033 1033 1033 
1033 1033 1033 1033 1033 1033 1033 1033 1033 
1033 1033 1033 1033 1033 1033 1033 1033 1033 
1033 1033 1033 1033 1033 1033 1033 1033 1033 
1033 1033 1033 1033 1033 1033 1033 1033 1033 