# vtk DataFile Version 4.2
vtk output
ASCII
DATASET POLYDATA
POINTS 5116 float
48.0407 0.331838 60.8016 47.6423 0.825046 60.4275 47.2466 0.167824 60.522 
48.7461 0.274403 60.7796 48.6208 0.981475 60.3106 49.2461 0.447887 60.3719 
47.7144 -0.631676 60.9117 46.9835 -0.578598 60.5693 48.5807 -0.484869 60.9137 
49.2405 -0.280979 60.5465 47.0472 -1.48213 60.8422 46.4977 -1.09497 60.4094 
46.2419 -1.88901 60.5014 47.8954 -1.71514 61.0407 48.5748 -1.53287 60.9115 
49.2219 -1.27757 60.5487 46.8105 -2.56672 60.8852 46.1452 -2.84563 60.5176 
47.6985 -2.56689 61.0356 48.5846 -2.57091 60.9054 49.2466 -2.3187 60.5143 
46.682 -3.34694 60.7815 46.3185 -3.65698 60.4363 47.4226 -3.43507 60.8993 
48.3739 -3.44891 60.8245 49.1667 -3.27253 60.4932 47.0095 -4.02377 60.5203 
48.0012 -4.11394 60.5302 48.8431 -3.94993 60.4388 48.0775 4.31034 59.8277 
47.6581 4.83718 59.4575 47.2828 4.15885 59.5171 48.7387 4.25973 59.7859 
48.3946 4.92795 59.5373 49.0474 4.70879 59.2612 47.7525 3.34004 59.8891 
47.0192 3.39388 59.5717 48.6174 3.47797 59.8878 49.2482 3.74024 59.3602 
47.0397 2.49648 59.8132 46.5316 2.89548 59.4047 46.2469 2.12783 59.4714 
47.8855 2.30846 59.9981 48.5863 2.47412 59.8864 49.2448 2.68305 59.514 
46.5745 1.44641 59.8562 45.9952 1.35428 59.5474 47.5866 1.49258 60.107 
48.4717 1.70569 60.003 49.2455 1.66719 59.6283 46.0158 0.515268 59.7925 
45.6249 1.02787 59.2992 45.3921 0.343342 59.3264 46.876 0.683454 60.1359 
49.7265 0.113311 59.9315 49.5569 0.871076 59.7571 50.0306 0.646465 59.2068 
45.5742 -0.539877 59.8279 45.0323 -0.510438 59.435 46.4328 -0.34401 60.1624 
49.7332 -0.827792 60.001 50.0952 -0.277159 59.3173 45.0025 -1.47649 59.8162 
44.6648 -1.06424 59.5102 44.2855 -1.71756 59.4329 45.8343 -1.3411 60.1215 
49.7493 -1.83995 59.9951 50.2261 -1.28319 59.3082 44.8081 -2.47689 59.7745 
44.2976 -2.62201 59.4065 45.53 -2.2904 60.1338 49.7477 -2.84025 59.9963 
50.2483 -2.32545 59.4799 44.8165 -3.14364 59.5513 45.1262 -3.90629 59.4795 
45.5883 -3.42289 59.9846 49.5999 -3.87656 59.9967 50.2423 -3.31963 59.4983 
45.6966 -4.3503 59.7175 45.3963 -4.68237 59.3832 46.4149 -4.39853 59.9852 
47.6189 -4.71193 60.01 48.8578 -4.63254 60.1103 49.7501 -4.75091 59.8467 
50.2591 -4.32324 59.4988 46.0209 -4.99637 59.4501 46.9377 -5.09288 59.4766 
47.7861 -5.24213 59.5495 48.2177 -5.56376 59.4657 48.5213 -5.31978 59.7828 
49.4359 -5.43412 59.7921 50.2015 -5.2693 59.5171 48.7757 -5.96361 59.3341 
49.8325 -5.92522 59.4526 44.6645 8.44216 58.6524 44.724 8.86164 58.2634 
44.4021 8.31243 58.4763 45.0969 8.52642 58.3686 44.8169 8.16947 58.4722 
46.0169 6.36141 58.7711 45.6187 6.80737 58.394 45.2607 6.12046 58.4691 
46.9665 6.37885 58.893 46.5891 6.98938 58.4001 47.9338 6.23005 58.8189 
47.4752 6.75217 58.5197 48.1965 6.51034 58.1694 45.828 5.47353 58.8419 
45.1933 5.15776 58.4827 46.543 5.71257 59.0117 47.5866 5.5254 59.1614 
48.7772 6.01033 58.3717 48.5984 5.51224 59.0282 49.2758 5.361 58.505 
45.8307 4.4641 58.8503 45.224 4.15939 58.4539 46.7322 4.80406 59.1246 
49.4879 4.54543 58.6415 45.7181 3.60478 58.8003 45.2414 3.14318 58.2897 
46.4524 3.67822 59.1599 49.6793 3.85528 58.6726 49.722 3.07799 58.9215 
50.0247 3.65429 58.2203 45.8772 2.74522 58.9575 45.3913 2.27912 58.4806 
49.7672 2.13186 58.9961 50.0932 2.69405 58.3193 45.6918 1.77709 59.0435 
45.207 1.30568 58.5308 49.833 1.34522 59.146 50.2407 1.58182 58.4225 
44.9821 0.247754 58.7629 50.3595 0.445314 58.5842 44.5428 -0.660205 59.0179 
44.619 0.0463413 58.3406 44.2094 -0.515876 58.3236 50.4337 -0.478755 58.6216 
43.8822 -1.35325 58.8537 43.7286 -1.08172 58.1534 43.4071 -1.76158 58.4907 
50.6565 -1.14996 58.6307 50.7224 -1.89486 58.9065 51.0256 -1.38874 58.2207 
43.6539 -2.52949 58.9933 42.996 -2.47267 58.4396 50.7332 -2.83997 59.0025 
51.0888 -2.3386 58.3585 43.0075 -3.43783 58.7543 42.6252 -3.03109 58.4615 
42.4154 -3.54827 58.3672 43.8307 -3.68735 58.9975 44.4004 -3.37492 59.2031 
50.7397 -3.8263 58.9946 51.0929 -3.30006 58.3622 42.8208 -4.18002 58.5935 
43.0984 -4.93892 58.5342 43.6507 -4.55079 58.8799 44.6697 -4.4802 59.1112 
50.756 -4.8266 59.0261 51.244 -4.28302 58.3439 43.7099 -5.39209 58.7578 
43.3262 -5.51913 58.4951 44.4453 -5.44418 58.8598 45.4477 -5.42089 58.9828 
46.4542 -5.56174 58.9462 47.5633 -5.63967 59.0794 50.5768 -5.86276 59.036 
51.2622 -5.34832 58.5321 43.763 -5.98108 58.3292 44.957 -6.10065 58.4899 
45.9498 -6.06508 58.4442 46.9352 -6.05669 58.4416 47.8994 -6.19351 58.6541 
48.6381 -6.4704 58.809 48.1656 -6.54387 58.4473 49.6301 -6.46213 59.0021 
50.4991 -6.5799 58.7683 51.2487 -6.46776 58.325 48.7668 -6.95149 58.3394 
50.0093 -7.0711 58.5249 50.7534 -7.04496 58.3584 42.8466 9.28666 57.8539 
42.651 9.83823 57.1732 42.0532 9.38541 57.6081 43.836 9.52924 57.8873 
43.733 9.88282 57.3672 44.4484 9.37035 57.9654 44.6682 9.82125 57.3865 
45.232 9.50226 57.4991 40.9624 8.36802 57.8093 40.5167 8.84991 57.4409 
40.1995 8.15698 57.5007 41.9306 8.54733 57.9157 41.3077 9.10976 57.542 
42.823 8.30353 58.0113 43.8025 8.62252 58.139 45.7111 8.11356 57.9702 
45.7511 8.99479 57.4833 46.338 8.51618 57.356 40.7784 7.5443 57.798 
40.3084 7.37601 57.443 41.6432 7.49754 57.9965 42.6491 7.41726 57.9942 
43.6537 7.45878 57.9987 44.6258 7.7365 58.151 45.6833 7.33532 58.1237 
46.606 8.01689 57.5427 46.6513 7.52246 57.8686 47.1792 7.65017 57.1207 
40.8105 6.88748 57.5638 41.2765 6.28898 57.4153 41.4681 6.73315 57.7929 
42.5581 6.44083 57.8605 43.6694 6.44648 57.9494 44.7286 6.73915 58.0941 
47.6486 6.98754 57.6418 48.4448 6.56424 57.3836 42.0404 5.997 57.4784 
42.8298 5.7569 57.5276 43.3287 5.26432 57.3754 43.6686 5.55769 57.7656 
44.5591 5.72856 58.0975 48.9348 6.2261 57.5392 49.8104 5.16084 57.9142 
49.5213 5.8138 57.679 50.0472 5.4944 57.2113 43.9041 4.83987 57.513 
44.2062 4.1057 57.474 44.5595 4.71682 57.9688 49.8583 4.4006 58.1515 
50.1791 4.60662 57.4517 44.7553 3.72973 57.8873 44.3876 3.51945 57.4524 
50.2513 3.52518 57.4553 44.5889 3.06995 57.4149 44.9957 2.32146 57.7913 
50.4122 2.59636 57.4211 44.8086 1.58459 57.7768 44.6609 2.06124 57.2621 
44.4718 1.43295 57.2698 50.6664 1.87867 57.6395 50.7254 1.11002 57.9097 
51.0438 1.67385 57.2038 44.7368 0.81218 58.0173 44.3735 0.446384 57.5064 
50.751 0.144941 57.993 51.1129 0.728572 57.324 44.0532 -0.383564 57.5201 
50.8054 -0.659715 58.1425 51.1216 -0.444641 57.4708 43.7296 -0.909618 57.5773 
43.2012 -1.58186 57.7238 51.2191 -1.56408 57.4866 42.5283 -2.64952 57.981 
42.6787 -2.02208 57.4759 42.163 -2.52691 57.4567 51.2259 -2.5573 57.4934 
41.9171 -3.49792 57.8595 41.6502 -3.05766 57.4773 41.2665 -3.70543 57.4221 
51.4034 -3.42892 57.437 41.7563 -4.46486 57.758 41.228 -4.46053 57.4626 
42.3809 -4.38281 58.1989 51.6776 -4.13033 57.6577 51.7416 -4.87881 57.9646 
52.0374 -4.35585 57.2349 40.9328 -5.79541 57.7609 40.6379 -5.22086 57.5172 
40.2501 -5.72295 57.3223 41.6561 -5.0399 57.4449 41.0881 -5.33331 57.4505 
42.1911 -5.553 57.4313 42.613 -5.33165 57.9637 51.7523 -5.83548 58.024 
52.1085 -5.29814 57.3748 40.8538 -6.52815 57.8573 40.4304 -6.55543 57.3151 
41.5477 -5.93318 57.5596 41.5846 -6.59598 57.8207 42.8291 -6.07815 57.5405 
42.0759 -6.45941 57.4175 43.6364 -6.49399 57.7724 43.3211 -6.69927 57.3484 
44.4607 -6.57671 57.9747 45.456 -6.57207 57.9661 46.4376 -6.52964 57.9143 
47.5244 -6.58933 58.0516 51.7502 -6.49337 57.8949 52.0607 -6.38735 57.2813 
40.8874 -7.07134 57.5672 41.2056 -7.51572 57.3306 41.4746 -7.28324 57.7851 
42.169 -7.23692 57.4992 44.0449 -6.97314 57.4415 44.963 -7.04915 57.4627 
45.935 -7.01672 57.4216 46.9234 -7.01854 57.4273 47.8973 -7.15767 57.6377 
48.7934 -7.61098 57.8427 48.1885 -7.54419 57.4483 49.743 -7.70136 58.1554 
50.6274 -7.70361 58.0518 51.2621 -7.45516 57.7801 51.7352 -7.07154 57.5187 
41.6767 -7.92027 57.3073 48.5979 -8.04758 57.3561 49.2505 -8.55223 57.504 
49.5407 -8.30298 57.8204 50.4195 -8.4452 57.8321 51.2572 -8.49897 57.3195 
49.7809 -8.9591 57.3717 50.743 -9.07974 57.3555 39.8638 9.5342 56.778 
39.7648 9.83422 56.1805 39.339 9.30081 56.5417 40.7351 9.44279 57.0415 
40.6654 9.9017 56.3795 41.714 9.61608 57.2062 41.8356 9.89586 56.5027 
42.9141 9.97225 56.3171 43.7419 9.99225 56.4785 44.7412 10.0047 56.4883 
45.8038 9.53368 56.9534 45.6451 9.852 56.5158 46.2734 9.50513 56.4393 
39.6639 8.66702 57.0325 39.0222 8.60198 56.4104 46.822 8.31598 57.0428 
46.5881 8.91689 56.7118 47.064 8.52984 56.3132 38.9679 7.5418 56.8648 
38.5915 7.94496 56.1996 38.3701 7.20819 56.5491 39.7736 7.47085 57.1705 
47.345 7.60735 56.1601 38.7851 6.47642 56.8595 38.2626 6.36894 56.2174 
39.6402 6.44649 57.035 40.5498 6.47492 57.1855 47.7076 7.10968 56.6395 
48.9586 6.41149 56.8587 48.4201 6.72167 56.5757 49.0673 6.45778 56.3956 
38.7538 5.79585 56.6406 39.0702 5.28716 56.3926 39.4451 5.64644 56.8271 
40.4132 5.56605 56.8602 41.5843 5.47307 56.9721 42.6815 5.3094 57.1661 
49.4923 6.00753 56.562 50.1322 5.15382 56.4012 39.8625 5.06419 56.244 
40.8875 5.06999 56.4645 41.6908 4.80011 56.4017 42.2591 4.43513 56.4377 
42.674 4.56532 56.7905 43.4932 4.60739 57.1541 50.298 4.29651 56.64 
42.6492 3.94731 56.346 43.2706 3.43121 56.473 43.7162 3.67197 56.956 
50.3986 3.4758 56.3376 43.7541 2.96258 56.4519 44.5677 2.54636 57.0377 
44.2225 2.12731 56.4118 50.6782 2.82083 56.54 50.8079 2.31676 57.0526 
51.0541 2.35965 56.3906 44.2993 1.27062 56.5878 47.8517 1.25916 56.7365 
47.3216 1.14604 56.5583 47.5954 1.77818 56.4902 48.0843 1.69657 56.2734 
51.277 1.529 56.4352 44.1812 0.410157 56.5022 47.7691 0.45047 56.7954 
47.2076 0.203951 56.5523 48.197 0.794345 56.395 51.2833 0.510662 56.4656 
43.6603 -0.610329 56.9571 43.6418 -0.0831257 56.0618 43.2117 -0.650594 56.5056 
47.6474 -0.688658 56.8557 47.0482 -0.61822 56.6199 48.1564 -0.245127 56.4017 
51.2513 -0.543964 56.4759 42.7342 -1.49645 56.9596 42.7701 -0.978497 56.4639 
42.2296 -1.49878 56.4547 47.0371 -1.52133 56.891 46.3945 -1.62133 56.3781 
46.6352 -0.951302 56.3523 47.7447 -1.73883 56.9263 48.1373 -1.33665 56.4435 
51.2278 -1.57172 56.4866 41.6679 -2.52884 56.9727 41.6878 -2.0411 56.4694 
41.1667 -2.51386 56.4831 46.7135 -2.30651 56.8186 46.3075 -2.4875 56.3367 
[...]
CELL_DATA 10244
SCALARS scalars float
LOOKUP_TABLE default
1020 1020 1020 1020 1020 1020 1020 1020 1020 
1020 1020 1020 1020 1020 1020 1020 1020 1020 
1020 1020 1020 1020 1020 1020 1020 1020 1020 
1020 1020 1020 1020 1020 1020 1020 1020 1020 
1020 1020 1020 1020 1020 1020 1020 1020 1020 
1020 1020 1020 1020 1020 1020 1020 1020 1020 
1020 1020 1020 1020 1020 1020 1020 1020 1020 
1020 1020 1020 1020 1020 1020 1020 1020 1020 
1020 1020 1020 1020 1020 1020 1020 1020 1020 
1020 1020 1020 1020 1020 1020 1020 1020 1020 
1020 1020 1020 1020 1020 1020 1020 1020 1020 
1020 1020 1020 1020 1020 1020 1020 1020 1020 
1020 1020 1020 1020 1020 1020 1020 1020 1020 
1020 1020 1020 1020 1020 1020 1020 1020 1020 
1020 1020 1020 1020 1020 1020 1020 1020 1020 
1020 1020 1020 1020 1020 1020 1020 1020 1020 
1020 1020 1020 1020 1020 1020 1020 1020 1020 
1020 1020 1020 1020 1020 1020 1020 1020 1020 
1020 1020 1020 1020 1020 1020 1020 1020 1020 
1020 1020 1020 1020 1020 1020 1020 1020 1020 
1020 1020 1020 1020 1020 1020 1020 1020 1020 
1020 1020 1020 1020 1020 1020 1020 1020 1020 
1020 1020 1020 1020 1020 1020 1020 1020 1020 
1020 1020 1020 1020 1020 1020 1020 1020 1020 
1020 1020 1020 1020 1020 1020 1020 1020 1020 
1020 1020 1020 1020 1020 1020 1020 1020 1020 
1020 1020 1020 1020 1020 1020 1020 1020 1020 
1020 1020 1020 1020 1020 1020 1020 1020 1020 
1020 1020 1020 1020 1020 1020 1020 1020 1020 
1020 1020 1020 1020 1020 1020 1020 1020 1020 
1020 1020 1020 1020 1020 1020 1020 1020 1020 
1020 1020 1020 1020 1020 1020 1020 1020 1020 
1020 1020 1020 1020 1020 1020 1020 1020 1020 
1020 1020 1020 1020 1020 1020 1020 1020 1020 
1020 1020 1020 1020 1020 1020 1020 1020 1020 
1020 1020 1020 1020 1020 1020 1020 1020 1020 
1020 1020 1020 1020 1020 1020 1020 1020 1020 
1020 1020 1020 1020 1020 1020 1020 1020 1020 
1020 1020 1020 1020 1020 1020 1020 1020 1020 
1020 1020 1020 1020 1020 1020 1020 1020 1020 
1020 1020 1020 1020 1020 1020 1020 1020 1020 
1020 1020 1020 1020 1020 1020 1020 1020 1020 
1020 1020 1020 1020 1020 1020 1020 1020 1020 
1020 1020 1020 1020 1020 1020 1020 1020 1020 
1020 1020 1020 1020 1020 1020 1020 1020 1020 
1020 1020 1020 1020 1020 1020 1020 1020 1020 
1020 1020 1020 1020 1020 1020 1020 1020 1020 
1020 1020 1020 1020 1020 1020 1020 1020 1020 
1020 1020 1020 1020 1020 1020 1020 1020 1020 
1020 1020 1020 1020 1020 1020 1020 1020 1020 
1020 1020 1020 1020 1020 1020 1020 1020 1020 
1020 1020 1020 1020 1020 1020 1020 1020 1020 
1020 1020 1020 1020 1020 1020 1020 1020 1020 
1020 1020 1020 1020 1020 1020 1020 1020 1020 
1020 1020 1020 1020 1020 1020 1020 1020 1020 
1020 1020 1020 1020 1020 1020 1020 1020 1020 
1020 1020 1020 1020 1020 1020 1020 1020 1020 
1020 1020 1020 1020 1020 1020 1020 1020 1020 
1020 1020 1020 1020 1020 1020 1020 1020 1020 
1020 1020 1020 1020 1020 1020 1020 1020 1020 
1020 1020 1020 1020 1020 1020 1020 1020 1020 
1020 1020 1020 1020 1020 1020 1020 1020 1020 
1020 1020 1020 1020 1020 1020 1020 1020 1020 
1020 1020 1020 1020 1020 1020 1020 1020 1020 
1020 1020 1020 1020 1020 1020 1020 1020 1020 
1020 1020 1020 1020 1020 1020 1020 1020 1020 
1020 1020 1020 1020 1020 1020 1020 1020 1020 
1020 1020 1020 1020 1020 1020 1020 1020 1020 
1020 1020 1020 1020 1020 1020 1020 1020 1020 
1020 1020 1020 1020 1020 1020 1020 1020 1020 
1020 1020 1020 1020 1020 1020 1020 1020 1020 
1020 1020 1020 1020 1020 1020 1020 1020 1020 
1020 1020 1020 1020 1020 1020 1020 1020 1020 
1020 1020 1020 1020 1020 1020 1020 1020 1020 
1020 1020 1020 1020 1020 1020 1020 1020 1020 
1020 1020 1020 1020 1020 1020 1020 1020 1020 
1020 1020 1020 1020 1020 1020 1020 1020 1020 
1020 1020 1020 1020 1020 1020 1020 1020 1020 
1020 1020 1020 1020 1020 1020 1020 1020 1020 
1020 1020 1020 1020 1020 1020 1020 1020 1020 
1020 1020 1020 1020 1020 1020 1020 1020 1020 
1020 1020 1020 1020 1020 1020 1020 1020 1020 
1020 1020 1020 1020 1020 1020 1020 1020 1020 
1020 1020 1020 1020 1020 1020 1020 1020 1020 
1020 1020 1020 1020 1020 1020 1020 1020 1020 
1020 1020 1020 1020 1020 1020 1020 1020 1020 
1020 1020 1020 1020 1020 1020 1020 1020 1020 
1020 1020 1020 1020 1020 1020 1020 1020 1020 
1020 1020 1020 1020 1020 1020 1020 1020 1020 
1020 1020 1020 1020 1020 1020 1020 1020 1020 
1020 1020 1020 1020 1020 1020 1020 1020 1020 
1020 1020 1020 1020 1020 1020 1020 1020 1020 
1020 1020 1020 1020 1020 1020 1020 1020 1020 
1020 1020 1020 1020 1020 1020 1020 1020 1020 
1020 1020 1020 1020 1020 1020 1020 1020 1020 
1020 1020 1020 1020 1020 1020 1020 1020 1020 
1020 1020 1020 1020 1020 1020 1020 1020 1020 
1020 1020 1020 1020 1020 1020 1020 1020 1020 
1020 1020 1020 1020 1020 1020 1020 1020 1020 
1020 1020 1020 1020 1020 1020 1020 1020 1020 
1020 1020 1020 1020 1020 1020 1020 1020 1020 
1020 1020 1020 1020 1020 1020 1020 1020 1020 
1020 1020 1020 1020 1020 1020 1020 1020 1020 
1020 1020 1020 1020 1020 1020 1020 1020 1020 
1020 1020 1020 1020 1020 1020 1020 1020 1020 
1020 1020 1020 1020 1020 1020 1020 1020 1020 
1020 1020 1020 1020 1020 1020 1020 1020 1020 
1020 1020 1020 1020 1020 1020 1020 1020 1020 
1020 1020 1020 1020 1020 1020 1020 1020 1020 
1020 1020 1020 1020 1020 1020 1020 1020 1020 
1020 1020 1020 1020 1020 1020 1020 1020 1020 
1020 1020 1020 1020 1020 1020 1020 1020 1020 
1020 1020 1020 1020 1020 1020 1020 1020 1020 
1020 1020 1020 1020 1020 1020 1020 1020 1020 
1020 1020 1020 1020 1020 1020 1020 1020 1020 
1020 1020 1020 1020 1020 1020 1020 1020 1020 
1020 1020 1020 1020 1020 1020 1020 1020 1020 
1020 1020 1020 1020 1020 1020 1020 1020 1020 
1020 1020 1020 1020 1020 1020 1020 1020 1020 
1020 1020 1020 1020 1020 1020 1020 1020 1020 
1020 1020 1020 1020 1020 1020 1020 1020 1020 
1020 1020 1020 1020 1020 1020 1020 1020 1020 
1020 1020 1020 1020 1020 1020 1020 1020 1020 
1020 1020 1020 1020 1020 1020 1020 1020 1020 
1020 1020 1020 1020 1020 1020 1020 1020 1020 
1020 1020 1020 1020 1020 1020 1020 1020 1020 
1020 1020 1020 1020 1020 1020 1020 1020 1020 
1020 1020 1020 1020 1020 1020 1020 1020 1020 
1020 1020 1020 1020 1020 1020 1020 1020 1020 
1020 1020 1020 1020 1020 1020 1020 1020 1020 
1020 1020 1020 1020 1020 1020 1020 1020 1020 
1020 1020 1020 1020 1020 1020 1020 1020 1020 
1020 1020 1020 1020 1020 1020 1020 1020 1020 
1020 1020 1020 1020 1020 1020 1020 1020 1020 
1020 1020 1020 1020 1020 1020 1020 1020 1020 
1020 1020 1020 1020 1020 1020 1020 1020 1020 
1020 1020 1020 1020 1020 1020 1020 1020 1020 
1020 1020 1020 1020 1020 1020 1020 1020 1020 
1020 1020 1020 1020 1020 1020 1020 1020 1020 
1020 1020 1020 1020 1020 1020 1020 1020 1020 
1020 1020 1020 1020 1020 1020 1020 1020 1020 
1020 1020 1020 1020 1020 1020 1020 1020 1020 
1020 1020 1020 1020 1020 1020 1020 1020 1020 
1020 1020 1020 1020 1020 1020 1020 1020 1020 
1020 1020 1020 1020 1020 1020 1020 1020 1020 
1020 1020 1020 1020 1020 1020 1020 1020 1020 
1020 1020 1020 1020 1020 1020 1020 1020 1020 
1020 1020 1020 1020 1020 1020 1020 1020 1020 
1020 1020 1020 1020 1020 1020 1020 1020 1020 
1020 1020 1020 1020 1020 1020 1020 1020 1020 
1020 1020 1020 1020 1020 1020 1020 1020 1020 
1020 1020 1020 1020 1020 1020 1020 1020 1020 
1020 1020 1020 1020 1020 1020 1020 1020 1020 
1020 1020 1020 1020 1020 1020 1020 1020 1020 
1020 1020 1020 1020 1020 1020 1020 1020 1020 
1020 1020 1020 1020 1020 1020 1020 1020 1020 
1020 1020 1020 1020 1020 1020 1020 1020 1020 
1020 1020 1020 1020 1020 1020 1020 1020 1020 
1020 1020 1020 1020 1020 1020 1020 1020 1020 
1020 1020 1020 1020 1020 1020 1020 1020 1020 
1020 1020 1020 1020 1020 1020 1020 1020 1020 
1020 1020 1020 1020 1020 1020 1020 1020 1020 
1020 1020 1020 1020 1020 1020 1020 1020 1020 
1020 1020 1020 1020 1020 1020 1020 1020 1020 
1020 1020 1020 1020 1020 1020 1020 1020 1020 
1020 1020 1020 1020 1020 1020 1020 1020 1020 
1020 1020 1020 1020 1020 1020 1020 1020 1020 
1020 1020 1020 1020 1020 1020 1020 1020 1020 
1020 1020 1020 1020 1020 1020 1020 1020 1020 
1020 1020 1020 1020 1020 1020 1020 1020 1020 
1020 1020 1020 1020 1020 1020 1020 1020 1020 
1020 1020 1020 1020 1020 1020 1020 1020 1020 
1020 1020 1020 1020 1020 1020 1020 1020 1020 
1020 1020 1020 1020 1020 1020 1020 1020 1020 
1020 1020 1020 1020 1020 1020 1020 1020 1020 
1020 1020 1020 1020 1020 1020 1020 1020 1020 
1020 1020 1020 1020 1020 1020 1020 1020 1020 
1020 1020 1020 1020 1020 1020 1020 1020 1020 
1020 1020 1020 1020 1020 1020 1020 1020 1020 
1020 1020 1020 1020 1020 1020 1020 1020 1020 
1020 1020 1020 1020 1020 1020 1020 1020 1020 
1020 1020 1020 1020 1020 1020 1020 1020 1020 
1020 1020 1020 1020 1020 1020 1020 1020 1020 
1020 1020 1020 1020 1020 1020 1020 1020 1020 
1020 1020 1020 1020 1020 1020 1020 1020 1020 
1020 1020 1020 1020 1020 1020 1020 1020 1020 
1020 1020 1020 1020 1020 1020 1020 1020 1020 
1020 1020 1020 1020 1020 1020 1020 1020 1020 
1020 1020 1020 1020 1020 1020 1020 1020 1020 
1020 1020 1020 1020 1020 1020 1020 1020 1020 
1020 1020 1020 1020 1020 1020 1020 1020 1020 
1020 1020 1020 1020 1020 1020 1020 1020 1020 
1020 1020 1020 1020 1020 1020 1020 1020 1020 
1020 1020 1020 1020 1020 1020 1020 1020 1020 
1020 1020 1020 1020 1020 1020 1020 1020 1020 
1020 1020 1020 1020 1020 1020 1020 1020 1020 
1020 1020 1020 1020 1020 1020 1020 1020 1020 
1020 1020 1020 1020 1020 1020 1020 1020 1020 
1020 1020 1020 1020 1020 1020 1020 1020 1020 
1020 1020 1020 1020 1020 1020 1020 1020 1020 
1020 1020 1020 1020 1020 1020 1020 1020 1020 
1020 1020 1020 1020 1020 1020 1020 1020 1020 
1020 1020 1020 1020 1020 1020 1020 1020 1020 
1020 1020 1020 1020 1020 1020 1020 1020 1020 
1020 1020 1020 1020 1020 1020 1020 1020 1020 
1020 1020 1020 1020 1020 1020 1020 1020 1020 
1020 1020 1020 1020 1020 1020 1020 1020 1020 
1020 1020 1020 1020 1020 1020 1020 1020 1020 
1020 1020 1020 1020 1020 1020 1020 1020 1020 
1020 1020 1020 1020 1020 1020 1020 1020 1020 
1020 1020 1020 1020 1020 1020 1020 1020 1020 
1020 1020 1020 1020 1020 1020 1020 1020 1020 
1020 1020 1020 1020 1020 1020 1020 1020 1020 
1020 1020 1020 1020 1020 1020 1020 1020 1020 
1020 1020 1020 1020 1020 1020 1020 1020 1020 
1020 1020 1020 1020 1020 1020 1020 1020 1020 
1020 1020 1020 1020 1020 1020 1020 1020 1020 
1020 1020 1020 1020 1020 1020 1020 1020 1020 
1020 1020 1020 1020 1020 1020 1020 1020 1020 
1020 1020 1020 1020 1020 1020 1020 1020 1020 
1020 1020 1020 1020 1020 1020 1020 1020 1020 
1020 1020 1020 1020 1020 1020 1020 1020 1020 
1020 1020 1020 1020 1020 1020 1020 1020 1020 
1020 1020 1020 1020 1020 1020 1020 1020 1020 
1020 1020 1020 1020 1020 1020 1020 1020 1020 
1020 1020 1020 1020 1020 1020 1020 1020 1020 
1020 1020 1020 1020 1020 1020 1020 1020 1020 
1020 1020 1020 1020 1020 1020 1020 1020 1020 
1020 1020 1020 1020 1020 1020 1020 1020 1020 
1020 1020 1020 1020 1020 1020 1020 1020 1020 
1020 1020 1020 1020 1020 1020 1020 1020 1020 
1020 1020 1020 1020 1020 1020 1020 1020 1020 
1020 1020 1020 1020 1020 1020 1020 1020 1020 
1020 1020 1020 1020 1020 1020 1020 1020 1020 
1020 1020 1020 1020 1020 1020 1020 1020 1020 
1020 1020 1020 1020 1020 1020 1020 1020 1020 
1020 1020 1020 1020 1020 1020 1020 1020 1020 
1020 1020 1020 1020 1020 1020 1020 1020 1020 
1020 1020 1020 1020 1020 1020 1020 1020 1020 
1020 1020 1020 1020 1020 1020 1020 1020 1020 
1020 1020 1020 1020 1020 1020 1020 1020 1020 
1020 1020 1020 1020 1020 1020 1020 1020 1020 
1020 1020 1020 1020 1020 1020 1020 1020 1020 
1020 1020 1020 1020 1020 1020 1020 1020 1020 
1020 1020 1020 1020 1020 1020 1020 1020 1020 
1020 1020 1020 1020 1020 1020 1020 1020 1020 
1020 1020 1020 1020 1020 1020 1020 1020 1020 
1020 1020 1020 1020 1020 1020 1020 1020 1020 
1020 1020 1020 1020 1020 1020 1020 1020 1020 
1020 1020 1020 1020 1020 1020 1020 1020 1020 
1020 1020 1020 1020 1020 1020 1020 1020 1020 
1020 1020 1020 1020 1020 1020 1020 1020 1020 
1020 1020 1020 1020 1020 1020 1020 1020 1020 
1020 1020 1020 1020 1020 1020 1020 1020 1020 
1020 1020 1020 1020 1020 1020 1020 1020 1020 
1020 1020 1020 1020 1020 1020 1020 1020 1020 
1020 1020 1020 1020 1020 1020 1020 1020 1020 
1020 1020 1020 1020 1020 1020 1020 1020 1020 
1020 1020 1020 1020 1020 1020 1020 1020 1020 
1020 1020 1020 1020 1020 1020 1020 1020 1020 
1020 1020 1020 1020 1020 1020 1020 1020 1020 
1020 1020 1020 1020 1020 1020 1020 1020 1020 
1020 1020 1020 1020 1020 1020 1020 1020 1020 
1020 1020 1020 1020 1020 1020 1020 1020 1020 
1020 1020 1020 1020 1020 1020 1020 1020 1020 
1020 1020 1020 1020 1020 1020 1020 1020 1020 
1020 1020 1020 1020 1020 1020 1020 1020 1020 
1020 1020 1020 1020 1020 1020 1020 1020 1020 
1020 1020 1020 1020 1020 1020 1020 1020 1020 
1020 1020 1020 1020 1020 1020 1020 1020 1020 
1020 1020 1020 1020 1020 1020 1020 1020 1020 
1020 1020 1020 1020 1020 1020 1020 1020 1020 
1020 1020 1020 1020 1020 1020 1020 1020 1020 
1020 1020 1020 1020 1020 1020 1020 1020 1020 
1020 1020 1020 1020 1020 1020 1020 1020 1020 
1020 1020 1020 1020 1020 1020 1020 1020 1020 
1020 1020 1020 1020 1020 1020 1020 1020 1020 
1020 1020 1020 1020 1020 1020 1020 1020 1020 
1020 1020 1020 1020 1020 1020 1020 1020 1020 
1020 1020 1020 1020 1020 1020 1020 1020 1020 
1020 1020 1020 1020 1020 1020 1020 1020 1020 
1020 1020 1020 1020 1020 1020 1020 1020 1020 
1020 1020 1020 1020 1020 1020 1020 1020 1020 
1020 1020 1020 1020 1020 1020 1020 1020 1020 
1020 1020 1020 1020 1020 1020 1020 1020 1020 
1020 1020 1020 1020 1020 1020 1020 1020 1020 
1020 1020 1020 1020 1020 1020 1020 1020 1020 
1020 1020 1020 1020 1020 1020 1020 1020 1020 
1020 1020 1020 1020 1020 1020 1020 1020 1020 
1020 1020 1020 1020 1020 1020 1020 1020 1020 
1020 1020 1020 1020 1020 1020 1020 1020 1020 
1020 1020 1020 1020 1020 1020 1020 1020 1020 
1020 1020 1020 1020 1020 1020 1020 1020 1020 
1020 1020 1020 1020 1020 1020 1020 1020 1020 
1020 1020 1020 1020 1020 1020 1020 1020 1020 
1020 1020 1020 1020 1020 1020 1020 1020 1020 
1020 1020 1020 1020 1020 1020 1020 1020 1020 
1020 1020 1020 1020 1020 1020 1020 1020 1020 
1020 1020 1020 1020 1020 1020 1020 1020 1020 
1020 1020 1020 1020 1020 1020 1020 1020 1020 
1020 1020 1020 1020 1020 1020 1020 1020 1020 
1020 1020 1020 1020 1020 1020 1020 1020 1020 
1020 1020 1020 1020 1020 1020 1020 1020 1020 
1020 1020 1020 1020 1020 1020 1020 1020 1020 
1020 1020 1020 1020 1020 1020 1020 1020 1020 
1020 1020 1020 1020 1020 1020 1020 1020 1020 
1020 1020 1020 1020 1020 1020 1020 1020 1020 
1020 1020 1020 1020 1020 1020 1020 1020 1020 
1020 1020 1020 1020 1020 1020 1020 1020 1020 
1020 1020 1020 1020 1020 1020 1020 1020 1020 
1020 1020 1020 1020 1020 1020 1020 1020 1020 
1020 1020 1020 1020 1020 1020 1020 1020 1020 
1020 1020 1020 1020 1020 1020 1020 1020 1020 
1020 1020 1020 1020 1020 1020 1020 1020 1020 
1020 1020 1020 1020 1020 1020 1020 1020 1020 
1020 1020 1020 1020 1020 1020 1020 1020 1020 
1020 1020 1020 1020 1020 1020 1020 1020 1020 
1020 1020 1020 1020 1020 1020 1020 1020 1020 
1020 1020 1020 1020 1020 1020 1020 1020 1020 
1020 1020 1020 1020 1020 1020 1020 1020 1020 
1020 1020 1020 1020 1020 1020 1020 1020 1020 
1020 1020 1020 1020 1020 1020 1020 1020 1020 
1020 1020 1020 1020 1020 1020 1020 1020 1020 
1020 1020 1020 1020 1020 1020 1020 1020 1020 
1020 1020 1020 1020 1020 1020 1020 1020 1020 
1020 1020 1020 1020 1020 1020 1020 1020 1020 
1020 1020 1020 1020 1020 1020 1020 1020 1020 
1020 1020 1020 1020 1020 1020 1020 1020 1020 
1020 1020 1020 1020 1020 1020 1020 1020 1020 
1020 1020 1020 1020 1020 1020 1020 1020 1020 
1020 1020 1020 1020 1020 1020 1020 1020 1020 
1020 1020 1020 1020 1020 1020 1020 1020 1020 
1020 1020 1020 1020 1020 1020 1020 1020 1020 
1020 1020 1020 1020 1020 1020 1020 1020 1020 
1020 1020 1020 1020 1020 1020 1020 1020 1020 
1020 1020 1020 1020 1020 1020 1020 1020 1020 
1020 1020 1020 1020 1020 1020 1020 1020 1020 
1020 1020 1020 1020 1020 1020 1020 1020 1020 
1020 1020 1020 1020 1020 1020 1020 1020 1020 
1020 1020 1020 1020 1020 1020 1020 1020 1020 
1020 1020 1020 1020 1020 1020 1020 1020 1020 
1020 1020 1020 1020 1020 1020 1020 1020 1020 
1020 1020 1020 1020 1020 1020 1020 1020 1020 
1020 1020 1020 1020 1020 1020 1020 1020 1020 
1020 1020 1020 1020 1020 1020 1020 1020 1020 
1020 1020 1020 1020 1020 1020 1020 1020 1020 
1020 1020 1020 1020 1020 1020 1020 1020 1020 
1020 1020 1020 1020 1020 1020 1020 1020 1020 
1020 1020 1020 1020 1020 1020 1020 1020 1020 
1020 1020 1020 1020 1020 1020 1020 1020 1020 
1020 1020 1020 1020 1020 1020 1020 1020 1020 
1020 1020 1020 1020 1020 1020 1020 1020 1020 
1020 1020 1020 1020 1020 1020 1020 1020 1020 
1020 1020 1020 1020 1020 1020 1020 1020 1020 
1020 1020 1020 1020 1020 1020 1020 1020 1020 
1020 1020 1020 1020 1020 1020 1020 1020 1020 
1020 1020 1020 1020 1020 1020 1020 1020 1020 
1020 1020 1020 1020 1020 1020 1020 1020 1020 
1020 1020 1020 1020 1020 1020 1020 1020 1020 
1020 1020 1020 1020 1020 1020 1020 1020 1020 
1020 1020 1020 1020 1020 1020 1020 1020 1020 
1020 1020 1020 1020 1020 1020 1020 1020 1020 
1020 1020 1020 1020 1020 1020 1020 1020 1020 
1020 1020 1020 1020 1020 1020 1020 1020 1020 
1020 1020 1020 1020 1020 1020 1020 1020 1020 
1020 1020 1020 1020 1020 1020 1020 1020 1020 
1020 1020 1020 1020 1020 1020 1020 1020 1020 
1020 1020 1020 1020 1020 1020 1020 1020 1020 
1020 1020 1020 1020 1020 1020 1020 1020 1020 
1020 1020 1020 1020 1020 1020 1020 1020 1020 
1020 1020 1020 1020 1020 1020 1020 1020 1020 
1020 1020 1020 1020 1020 1020 1020 1020 1020 
1020 1020 1020 1020 1020 1020 1020 1020 1020 
1020 1020 1020 1020 1020 1020 1020 1020 1020 
1020 1020 1020 1020 1020 1020 1020 1020 1020 
1020 1020 1020 1020 1020 1020 1020 1020 1020 
1020 1020 1020 1020 1020 1020 1020 1020 1020 
1020 1020 1020 1020 1020 1020 1020 1020 1020 
1020 1020 1020 1020 1020 1020 1020 1020 1020 
1020 1020 1020 1020 1020 1020 1020 1020 1020 
1020 1020 1020 1020 1020 1020 1020 1020 1020 
1020 1020 1020 1020 1020 1020 1020 1020 1020 
1020 1020 1020 1020 1020 1020 1020 1020 1020 
1020 1020 1020 1020 1020 1020 1020 1020 1020 
1020 1020 1020 1020 1020 1020 1020 1020 1020 
1020 1020 1020 1020 1020 1020 1020 1020 1020 
1020 1020 1020 1020 1020 1020 1020 1020 1020 
1020 1020 1020 1020 1020 1020 1020 1020 1020 
1020 1020 1020 1020 1020 1020 1020 1020 1020 
1020 1020 1020 1020 1020 1020 1020 1020 1020 
1020 1020 1020 1020 1020 1020 1020 1020 1020 
1020 1020 1020 1020 1020 1020 1020 1020 1020 
1020 1020 1020 1020 1020 1020 1020 1020 1020 
1020 1020 1020 1020 1020 1020 1020 1020 1020 
1020 1020 1020 1020 1020 1020 1020 1020 1020 
1020 1020 1020 1020 1020 1020 1020 1020 1020 
1020 1020 1020 1020 1020 1020 1020 1020 1020 
1020 1020 1020 1020 1020 1020 1020 1020 1020 
1020 1020 1020 1020 1020 1020 1020 1020 1020 
1020 1020 1020 1020 1020 1020 1020 1020 1020 
1020 1020 1020 1020 1020 1020 1020 1020 1020 
1020 1020 1020 1020 1020 1020 1020 1020 1020 
1020 1020 1020 1020 1020 1020 1020 1020 1020 
1020 1020 1020 1020 1020 1020 1020 1020 1020 
1020 1020 1020 1020 1020 1020 1020 1020 1020 
1020 1020 1020 1020 1020 1020 1020 1020 1020 
1020 1020 1020 1020 1020 1020 1020 1020 1020 
1020 1020 1020 1020 1020 1020 1020 1020 1020 
1020 1020 1020 1020 1020 1020 1020 1020 1020 
1020 1020 1020 1020 1020 1020 1020 1020 1020 
1020 1020 1020 1020 1020 1020 1020 1020 1020 
1020 1020 1020 1020 1020 1020 1020 1020 1020 
1020 1020 1020 1020 1020 1020 1020 1020 1020 
1020 1020 1020 1020 1020 1020 1020 1020 1020 
1020 1020 1020 1020 1020 1020 1020 1020 1020 
1020 1020 1020 1020 1020 1020 1020 1020 1020 
1020 1020 1020 1020 1020 1020 1020 1020 1020 
1020 1020 1020 1020 1020 1020 1020 1020 1020 
1020 1020 1020 1020 1020 1020 1020 1020 1020 
1020 1020 1020 1020 1020 1020 1020 1020 1020 
1020 1020 1020 1020 1020 1020 1020 1020 1020 
1020 1020 1020 1020 1020 1020 1020 1020 1020 
1020 1020 1020 1020 1020 1020 1020 1020 1020 
1020 1020 1020 1020 1020 1020 1020 1020 1020 
1020 1020 1020 1020 1020 1020 1020 1020 1020 
1020 1020 1020 1020 1020 1020 1020 1020 1020 
1020 1020 1020 1020 1020 1020 1020 1020 1020 
1020 1020 1020 1020 1020 1020 1020 1020 1020 
1020 1020 1020 1020 1020 1020 1020 1020 1020 
1020 1020 1020 1020 1020 1020 1020 1020 1020 
1020 1020 1020 1020 1020 1020 1020 1020 1020 
1020 1020 1020 1020 1020 1020 1020 1020 1020 
1020 1020 1020 1020 1020 1020 1020 1020 1020 