# vtk DataFile Version 4.2
vtk output
ASCII
DATASET POLYDATA
POINTS 5390 float
6.85399 70.3056 15.8575 6.79097 70.9616 15.5422 6.19922 70.5478 15.516 
7.66078 70.3094 15.7813 7.39059 70.9683 15.5336 8.05131 70.6174 15.4574 
5.8564 69.4702 15.8684 5.46716 69.9517 15.4543 5.03579 69.3599 15.5926 
6.84408 69.3453 16.0214 7.57285 69.5211 15.8782 8.20269 69.7841 15.5157 
4.97654 68.5561 15.8348 4.61668 68.9886 15.5312 4.23733 68.3157 15.4727 
5.82319 68.359 16.0092 6.69897 68.4851 16.0368 7.76153 68.4286 15.9071 
8.294 68.8197 15.5205 4.79377 67.4468 15.8942 4.11664 67.1472 15.5702 
5.69663 67.4717 16.0286 6.71261 67.463 16.0564 7.73916 67.4307 16.0344 
8.59629 68.028 15.5712 8.62494 67.3598 15.8206 9.12951 67.4818 15.4423 
4.76865 66.3966 15.9208 4.22199 66.2371 15.6288 5.6763 66.4317 16.0449 
6.73095 66.4459 16.0535 7.61091 66.5869 16.0552 8.4797 66.3497 15.858 
9.24676 66.7077 15.5181 4.6566 65.6592 15.8116 4.33377 65.6472 15.3641 
5.39557 65.5487 15.9069 6.47591 65.5367 15.9086 7.65186 65.6262 15.8654 
8.35478 65.3866 15.3887 8.98849 65.951 15.1828 4.89806 65.2144 15.5974 
5.74945 64.884 15.3898 7.04981 64.8647 15.5253 7.85506 64.8779 15.3514 
6.8022 71.3512 15.0345 6.78971 71.8979 14.5015 6.19661 71.5011 14.483 
7.97959 71.3513 15.0176 7.47689 72.0168 14.5105 8.73175 71.2929 14.7465 
8.59914 72.0245 14.3104 9.18292 71.5225 14.3233 4.9224 70.4632 14.7302 
4.6904 70.6941 14.2539 4.42711 70.1969 14.502 5.66373 70.6347 15.0015 
5.3472 71.0423 14.2994 8.77006 70.3566 15.0088 9.30188 70.8261 14.4989 
4.6495 69.5657 15.1099 4.01718 69.5315 14.453 8.87885 69.1834 15.1217 
9.55666 70.0851 14.5757 9.57434 69.3912 14.766 10.0693 69.5491 14.4082 
3.81751 68.6669 14.8862 3.56802 69.0343 14.3192 3.33452 68.3905 14.3778 
9.02429 68.2093 15.198 9.64966 68.4126 14.8522 10.2468 68.7208 14.4699 
3.62365 67.696 15.0487 3.2738 67.4373 14.4038 9.68484 67.3104 15.0183 
10.2725 67.7096 14.5015 3.77199 66.5045 15.0009 3.34474 66.541 14.1918 
9.6555 66.4403 15.0302 10.0443 66.7943 14.3886 3.85588 66.0706 14.3007 
4.34605 65.7834 14.644 4.82343 65.2257 15.0086 5.02987 65.5893 14.2949 
8.40712 65.4129 14.7436 8.56214 65.9025 14.2044 9.51526 66.2115 14.5135 
5.37305 64.7182 14.5774 5.88963 64.2382 14.9017 6.57295 64.3274 15.1532 
7.45291 64.1628 14.9193 8.03037 64.7048 14.6592 5.81311 63.931 14.5106 
6.2728 63.4821 14.3428 6.56939 63.6507 14.7201 7.19486 63.4637 14.4953 
7.62557 63.9004 14.3584 6.74127 63.231 14.4161 6.79704 72.3177 13.9985 
6.76377 72.8989 13.5089 6.201 72.4837 13.4852 7.94362 72.5256 14.0009 
7.46186 73.0225 13.5219 8.62841 72.5246 13.8899 8.61105 73.0405 13.323 
9.18765 72.5174 13.5153 5.87206 71.735 13.9034 5.69931 71.9803 13.4774 
5.31381 71.5388 13.5615 9.87997 71.1746 13.9199 9.49501 71.9546 13.7491 
10.1309 71.6739 13.4286 4.81524 71.0222 13.7527 4.16515 70.4366 13.7501 
10.0035 70.2687 14.1822 10.5453 71.0863 13.5249 10.6174 70.393 13.7662 
11.0666 70.5904 13.4108 3.68418 69.6405 13.9006 3.58185 70.0997 13.3231 
3.30577 69.3502 13.5225 10.6575 69.3562 13.9985 11.2599 69.7424 13.4903 
3.14261 68.447 13.5024 10.7863 68.1863 14.0207 11.3088 68.6866 13.532 
3.13022 67.4268 13.5311 6.77113 67.2147 13.7565 6.16145 67.3187 13.3578 
6.58552 67.757 13.295 7.1605 67.741 13.3318 10.5841 67.303 13.9064 
11.3056 67.5042 13.3148 3.05432 66.5473 13.3537 5.8102 66.4375 13.8327 
5.38622 66.5035 13.5033 5.76012 66.8241 13.328 6.87903 66.356 13.9918 
7.70735 67.1979 13.345 7.61724 66.5028 13.9028 8.20947 66.4405 13.4702 
9.7737 66.4824 14.0209 9.31077 66.1335 13.8013 9.79851 66.7209 13.3687 
10.7558 66.938 13.3154 3.53864 66.0463 13.5255 4.64843 66.0086 13.6492 
5.77342 65.2019 14.0468 6.69998 65.4631 13.9348 7.73467 65.5221 14.1658 
8.46889 65.4649 13.5802 8.85003 65.4746 13.9426 9.42029 65.2783 13.7007 
9.41559 65.9352 13.1577 10.0667 65.5878 13.1694 5.93265 64.1637 14.1343 
6.53445 64.5277 13.908 7.41804 64.4891 14.0465 8.72581 64.7049 13.7247 
8.45988 64.5519 13.4184 9.10031 64.5911 13.3846 9.81173 65.015 13.2293 
6.861 63.652 14.129 8.61667 64.2167 13.4919 6.7815 73.3274 13.0228 
6.63772 73.8703 12.188 6.10164 73.3955 12.5948 7.96394 73.54 13.0244 
7.72745 73.9026 12.3927 8.62696 73.5394 12.9153 8.65833 73.8327 12.4006 
9.19921 73.5057 12.5029 5.6825 72.489 12.9899 5.61997 73.1055 12.3605 
5.18884 72.4645 12.3435 10.0449 72.337 13.0643 9.7115 73.0113 12.6034 
10.9238 72.232 12.782 10.6356 72.7888 12.3446 11.2847 72.5763 12.306 
4.71127 71.4725 12.9983 4.71292 71.8728 12.136 4.22083 71.2189 12.3421 
10.8316 71.4439 13.1641 11.7949 72.1292 12.3292 11.613 71.4334 12.8213 
12.266 71.476 12.3925 3.86832 70.7497 12.9155 3.76891 70.7451 12.3193 
3.3935 70.1568 12.5793 11.638 70.3778 13.037 12.2514 70.7115 12.5481 
3.16042 69.3294 12.6529 11.7862 69.166 13.0427 12.0494 69.6019 12.4153 
3.1322 68.4865 12.5211 7.56443 68.1897 12.8215 7.25036 68.3326 12.3056 
7.71638 68.734 12.1995 8.16969 68.4986 12.3573 11.8116 68.137 13.0462 
12.022 68.3588 12.3693 3.0003 67.3857 12.5688 6.40879 67.5616 12.7727 
6.88884 67.911 12.6521 7.65525 67.6936 13.135 8.18247 67.7602 12.6417 
11.8186 67.4889 12.9202 12.0643 67.6108 12.5329 2.69515 66.5665 12.7702 
2.62503 66.8576 12.1425 2.45556 66.3753 12.2265 5.53005 66.1831 13.0596 
6.19576 66.8065 12.674 8.62633 66.9777 12.8167 8.85104 66.2602 13.2139 
10.0154 66.262 12.998 9.34281 66.5303 12.5852 10.5573 66.5052 12.9795 
11.1474 66.6139 12.6675 11.7556 66.9991 12.3025 2.9812 66.0875 12.5445 
3.89443 65.8069 12.6854 4.78749 65.6322 12.8418 4.22868 65.5079 12.2201 
5.51216 65.4649 12.7533 6.16508 65.7745 12.5086 8.86389 65.1679 13.0648 
9.39122 65.6853 12.4695 10.6633 66.0104 12.4727 10.146 65.4717 12.4389 
4.822 65.0081 12.3323 5.82604 65.0956 12.4375 8.6325 64.3741 13.2901 
9.54927 65.0546 12.7168 5.83156 73.61 12.1008 5.75422 73.8599 11.2989 
5.23035 73.1939 11.6874 6.87747 73.9919 11.3388 7.74222 74.0086 11.4966 
8.73935 73.9984 11.5038 9.87879 73.4402 11.9095 9.61882 73.8123 11.5366 
10.3117 73.5473 11.289 4.94224 72.478 11.7163 10.644 73.1667 11.5728 
11.7452 72.5277 11.9725 11.5706 72.8349 11.537 12.2615 72.4756 11.5084 
4.62573 72.1549 11.3856 4.365 71.5696 11.4648 12.788 71.1101 11.9853 
12.6141 71.8875 11.7767 13.1419 71.6398 11.238 3.61646 70.3214 11.8733 
4.03425 70.7677 11.5342 12.5901 70.3107 11.9857 13.101 70.7413 11.3835 
3.69303 70.0309 11.1306 3.29439 69.5353 11.7378 11.7329 69.3858 11.9618 
11.4119 69.2145 11.4753 12.0899 69.7424 11.472 12.7478 70.1753 11.3142 
3.1857 68.5015 11.4911 7.27485 68.647 11.5403 7.66634 69.1003 11.4786 
8.52783 69.0339 11.4647 8.84961 68.1909 11.9128 9.24741 68.6007 11.3221 
11.6755 68.8198 11.947 11.1579 68.6469 11.3486 3.23863 67.449 11.2774 
6.70212 67.2084 12.0842 7.06116 67.7978 11.5623 8.96063 67.2794 12.1452 
9.51796 68.0732 11.4888 9.55241 67.3893 11.6923 10.0273 67.5446 11.3156 
11.4905 68.0606 11.2717 12.1516 67.5744 11.5126 2.71617 66.7845 11.3809 
2.42525 66.5294 11.6601 6.73225 66.2233 11.9817 7.21733 66.7466 11.3069 
9.73727 66.2752 11.9327 10.2702 66.7278 11.3728 11.2165 66.4729 11.5353 
11.8734 66.8927 11.2512 2.71142 66.2168 11.5324 3.50509 65.819 11.6397 
3.99219 65.2506 11.7095 6.57197 65.166 12.0064 7.28642 65.708 11.5013 
9.73396 65.4769 12.2139 10.5607 66.0582 11.6653 3.97904 64.6164 11.8044 
3.54041 64.869 11.4105 3.43716 64.2989 11.4213 4.55904 64.371 11.9417 
5.60522 64.5079 12.0184 6.50134 64.4287 11.7541 7.20393 64.7721 11.5157 
3.98661 63.9963 11.5131 4.92719 63.9128 11.5237 5.99986 63.9246 11.5024 
6.843 64.1113 11.4339 4.82212 73.509 10.9678 4.88258 73.8364 10.2557 
4.41419 73.2857 10.4503 5.80721 73.9991 10.3197 6.69574 73.9721 10.5092 
7.72082 73.9603 10.5005 8.73024 73.9739 10.4824 9.72007 73.9693 10.4744 
10.8795 73.4204 10.8446 10.6285 73.791 10.478 11.3649 73.5619 10.2577 
4.66107 72.8317 11.0558 4.30908 72.4112 10.5189 11.5439 73.2029 10.7075 
12.8745 72.3302 11.0586 12.4601 72.9407 10.6281 13.1842 72.5723 10.3272 
4.10487 71.3249 10.4977 13.3255 71.4742 10.4916 3.96788 70.4401 10.7076 
13.0676 70.5732 10.5976 3.64298 70.0905 10.3722 3.3376 69.491 10.5347 
7.97485 69.5179 10.956 7.3269 69.4189 10.5984 7.79316 70.0218 10.2702 
8.60098 69.8098 10.3672 8.56246 69.51 10.9094 9.16392 69.519 10.4894 
11.8959 69.1842 10.917 12.3125 69.3929 10.2441 12.5773 70.0831 10.5671 
3.40089 68.6114 10.4245 7.15126 68.524 10.5002 9.55351 69.0512 10.7508 
10.0111 68.3041 11.0258 10.7411 68.9405 10.7272 10.766 68.2599 11.0437 
11.2042 68.5621 10.3122 11.8677 68.41 10.9091 12.633 68.8986 10.4938 
12.5828 68.6433 10.7056 12.9162 68.4788 10.4423 3.67189 67.9049 10.6692 
3.74626 67.4598 10.8076 4.04534 67.6168 10.1662 7.31111 67.5012 10.3564 
10.8099 67.2809 10.998 11.3787 67.6557 10.2652 12.6282 68.0575 10.645 
12.2481 67.4112 10.5564 2.62869 66.4734 11.1666 3.12772 66.3379 10.8488 
3.75175 66.9713 10.4905 7.64315 66.7916 10.5729 7.76793 66.1509 10.9183 
7.97325 66.4424 10.268 10.7591 66.4567 11.2082 11.5822 67.0155 10.6336 
1.997 65.4579 10.695 1.78386 65.8418 10.1561 1.35899 65.2855 10.2554 
2.7374 66.0034 10.3061 2.77145 65.5956 10.8114 3.39195 65.4545 11.1184 
7.96143 65.1796 11.0373 8.28066 65.6996 10.2843 1.77985 64.8862 10.6198 
2.06862 64.1227 10.5379 2.74313 64.6368 10.9928 7.57035 64.2357 11.1619 
8.62365 64.9527 10.5487 8.43746 64.3161 10.8006 9.00126 64.4252 10.204 
2.63307 63.6678 10.7556 2.26424 63.5189 10.4699 3.36786 63.6263 10.9903 
4.3913 63.4516 10.9849 5.57281 63.3328 10.975 6.72521 63.5647 11.1298 
7.61012 63.4203 10.837 8.33321 63.6195 10.589 8.83356 63.9012 10.3655 
2.74585 63.0628 10.3393 3.92198 62.9667 10.4676 4.93172 62.9486 10.4588 
5.7434 62.7813 10.5113 6.24099 62.314 10.3553 6.56383 62.7908 10.7272 
7.27555 62.6397 10.5401 7.87274 63.0261 10.4512 6.82934 62.2169 10.3763 
2.67917 60.4221 10.6816 2.69602 60.7069 10.6097 2.31172 60.5114 10.4027 
3.02112 60.6437 10.3118 2.59882 60.2308 10.2033 4.65998 73.8719 9.27422 
4.303 73.336 9.69861 5.39182 74.135 9.40298 6.41464 74.119 9.64161 
7.42588 74.0786 9.63888 8.44537 74.0754 9.60247 9.47009 74.1037 9.59455 
[...]
CELL_DATA 10804
SCALARS scalars float
LOOKUP_TABLE default
1017 1017 1017 1017 1017 1017 1017 1017 1017 
1017 1017 1017 1017 1017 1017 1017 1017 1017 
1017 1017 1017 1017 1017 1017 1017 1017 1017 
1017 1017 1017 1017 1017 1017 1017 1017 1017 
1017 1017 1017 1017 1017 1017 1017 1017 1017 
1017 1017 1017 1017 1017 1017 1017 1017 1017 
1017 1017 1017 1017 1017 1017 1017 1017 1017 
1017 1017 1017 1017 1017 1017 1017 1017 1017 
1017 1017 1017 1017 1017 1017 1017 1017 1017 
1017 1017 1017 1017 1017 1017 1017 1017 1017 
1017 1017 1017 1017 1017 1017 1017 1017 1017 
1017 1017 1017 1017 1017 1017 1017 1017 1017 
1017 1017 1017 1017 1017 1017 1017 1017 1017 
1017 1017 1017 1017 1017 1017 1017 1017 1017 
1017 1017 1017 1017 1017 1017 1017 1017 1017 
1017 1017 1017 1017 1017 1017 1017 1017 1017 
1017 1017 1017 1017 1017 1017 1017 1017 1017 
1017 1017 1017 1017 1017 1017 1017 1017 1017 
1017 1017 1017 1017 1017 1017 1017 1017 1017 
1017 1017 1017 1017 1017 1017 1017 1017 1017 
1017 1017 1017 1017 1017 1017 1017 1017 1017 
1017 1017 1017 1017 1017 1017 1017 1017 1017 
1017 1017 1017 1017 1017 1017 1017 1017 1017 
1017 1017 1017 1017 1017 1017 1017 1017 1017 
1017 1017 1017 1017 1017 1017 1017 1017 1017 
1017 1017 1017 1017 1017 1017 1017 1017 1017 
1017 1017 1017 1017 1017 1017 1017 1017 1017 
1017 1017 1017 1017 1017 1017 1017 1017 1017 
1017 1017 1017 1017 1017 1017 1017 1017 1017 
1017 1017 1017 1017 1017 1017 1017 1017 1017 
1017 1017 1017 1017 1017 1017 1017 1017 1017 
1017 1017 1017 1017 1017 1017 1017 1017 1017 
1017 1017 1017 1017 1017 1017 1017 1017 1017 
1017 1017 1017 1017 1017 1017 1017 1017 1017 
1017 1017 1017 1017 1017 1017 1017 1017 1017 
1017 1017 1017 1017 1017 1017 1017 1017 1017 
1017 1017 1017 1017 1017 1017 1017 1017 1017 
1017 1017 1017 1017 1017 1017 1017 1017 1017 
1017 1017 1017 1017 1017 1017 1017 1017 1017 
1017 1017 1017 1017 1017 1017 1017 1017 1017 
1017 1017 1017 1017 1017 1017 1017 1017 1017 
1017 1017 1017 1017 1017 1017 1017 1017 1017 
1017 1017 1017 1017 1017 1017 1017 1017 1017 
1017 1017 1017 1017 1017 1017 1017 1017 1017 
1017 1017 1017 1017 1017 1017 1017 1017 1017 
1017 1017 1017 1017 1017 1017 1017 1017 1017 
1017 1017 1017 1017 1017 1017 1017 1017 1017 
1017 1017 1017 1017 1017 1017 1017 1017 1017 
1017 1017 1017 1017 1017 1017 1017 1017 1017 
1017 1017 1017 1017 1017 1017 1017 1017 1017 
1017 1017 1017 1017 1017 1017 1017 1017 1017 
1017 1017 1017 1017 1017 1017 1017 1017 1017 
1017 1017 1017 1017 1017 1017 1017 1017 1017 
1017 1017 1017 1017 1017 1017 1017 1017 1017 
1017 1017 1017 1017 1017 1017 1017 1017 1017 
1017 1017 1017 1017 1017 1017 1017 1017 1017 
1017 1017 1017 1017 1017 1017 1017 1017 1017 
1017 1017 1017 1017 1017 1017 1017 1017 1017 
1017 1017 1017 1017 1017 1017 1017 1017 1017 
1017 1017 1017 1017 1017 1017 1017 1017 1017 
1017 1017 1017 1017 1017 1017 1017 1017 1017 
1017 1017 1017 1017 1017 1017 1017 1017 1017 
1017 1017 1017 1017 1017 1017 1017 1017 1017 
1017 1017 1017 1017 1017 1017 1017 1017 1017 
1017 1017 1017 1017 1017 1017 1017 1017 1017 
1017 1017 1017 1017 1017 1017 1017 1017 1017 
1017 1017 1017 1017 1017 1017 1017 1017 1017 
1017 1017 1017 1017 1017 1017 1017 1017 1017 
1017 1017 1017 1017 1017 1017 1017 1017 1017 
1017 1017 1017 1017 1017 1017 1017 1017 1017 
1017 1017 1017 1017 1017 1017 1017 1017 1017 
1017 1017 1017 1017 1017 1017 1017 1017 1017 
1017 1017 1017 1017 1017 1017 1017 1017 1017 
1017 1017 1017 1017 1017 1017 1017 1017 1017 
1017 1017 1017 1017 1017 1017 1017 1017 1017 
1017 1017 1017 1017 1017 1017 1017 1017 1017 
1017 1017 1017 1017 1017 1017 1017 1017 1017 
1017 1017 1017 1017 1017 1017 1017 1017 1017 
1017 1017 1017 1017 1017 1017 1017 1017 1017 
1017 1017 1017 1017 1017 1017 1017 1017 1017 
1017 1017 1017 1017 1017 1017 1017 1017 1017 
1017 1017 1017 1017 1017 1017 1017 1017 1017 
1017 1017 1017 1017 1017 1017 1017 1017 1017 
1017 1017 1017 1017 1017 1017 1017 1017 1017 
1017 1017 1017 1017 1017 1017 1017 1017 1017 
1017 1017 1017 1017 1017 1017 1017 1017 1017 
1017 1017 1017 1017 1017 1017 1017 1017 1017 
1017 1017 1017 1017 1017 1017 1017 1017 1017 
1017 1017 1017 1017 1017 1017 1017 1017 1017 
1017 1017 1017 1017 1017 1017 1017 1017 1017 
1017 1017 1017 1017 1017 1017 1017 1017 1017 
1017 1017 1017 1017 1017 1017 1017 1017 1017 
1017 1017 1017 1017 1017 1017 1017 1017 1017 
1017 1017 1017 1017 1017 1017 1017 1017 1017 
1017 1017 1017 1017 1017 1017 1017 1017 1017 
1017 1017 1017 1017 1017 1017 1017 1017 1017 
1017 1017 1017 1017 1017 1017 1017 1017 1017 
1017 1017 1017 1017 1017 1017 1017 1017 1017 
1017 1017 1017 1017 1017 1017 1017 1017 1017 
1017 1017 1017 1017 1017 1017 1017 1017 1017 
1017 1017 1017 1017 1017 1017 1017 1017 1017 
1017 1017 1017 1017 1017 1017 1017 1017 1017 
1017 1017 1017 1017 1017 1017 1017 1017 1017 
1017 1017 1017 1017 1017 1017 1017 1017 1017 
1017 1017 1017 1017 1017 1017 1017 1017 1017 
1017 1017 1017 1017 1017 1017 1017 1017 1017 
1017 1017 1017 1017 1017 1017 1017 1017 1017 
1017 1017 1017 1017 1017 1017 1017 1017 1017 
1017 1017 1017 1017 1017 1017 1017 1017 1017 
1017 1017 1017 1017 1017 1017 1017 1017 1017 
1017 1017 1017 1017 1017 1017 1017 1017 1017 
1017 1017 1017 1017 1017 1017 1017 1017 1017 
1017 1017 1017 1017 1017 1017 1017 1017 1017 
1017 1017 1017 1017 1017 1017 1017 1017 1017 
1017 1017 1017 1017 1017 1017 1017 1017 1017 
1017 1017 1017 1017 1017 1017 1017 1017 1017 
1017 1017 1017 1017 1017 1017 1017 1017 1017 
1017 1017 1017 1017 1017 1017 1017 1017 1017 
1017 1017 1017 1017 1017 1017 1017 1017 1017 
1017 1017 1017 1017 1017 1017 1017 1017 1017 
1017 1017 1017 1017 1017 1017 1017 1017 1017 
1017 1017 1017 1017 1017 1017 1017 1017 1017 
1017 1017 1017 1017 1017 1017 1017 1017 1017 
1017 1017 1017 1017 1017 1017 1017 1017 1017 
1017 1017 1017 1017 1017 1017 1017 1017 1017 
1017 1017 1017 1017 1017 1017 1017 1017 1017 
1017 1017 1017 1017 1017 1017 1017 1017 1017 
1017 1017 1017 1017 1017 1017 1017 1017 1017 
1017 1017 1017 1017 1017 1017 1017 1017 1017 
1017 1017 1017 1017 1017 1017 1017 1017 1017 
1017 1017 1017 1017 1017 1017 1017 1017 1017 
1017 1017 1017 1017 1017 1017 1017 1017 1017 
1017 1017 1017 1017 1017 1017 1017 1017 1017 
1017 1017 1017 1017 1017 1017 1017 1017 1017 
1017 1017 1017 1017 1017 1017 1017 1017 1017 
1017 1017 1017 1017 1017 1017 1017 1017 1017 
1017 1017 1017 1017 1017 1017 1017 1017 1017 
1017 1017 1017 1017 1017 1017 1017 1017 1017 
1017 1017 1017 1017 1017 1017 1017 1017 1017 
1017 1017 1017 1017 1017 1017 1017 1017 1017 
1017 1017 1017 1017 1017 1017 1017 1017 1017 
1017 1017 1017 1017 1017 1017 1017 1017 1017 
1017 1017 1017 1017 1017 1017 1017 1017 1017 
1017 1017 1017 1017 1017 1017 1017 1017 1017 
1017 1017 1017 1017 1017 1017 1017 1017 1017 
1017 1017 1017 1017 1017 1017 1017 1017 1017 
1017 1017 1017 1017 1017 1017 1017 1017 1017 
1017 1017 1017 1017 1017 1017 1017 1017 1017 
1017 1017 1017 1017 1017 1017 1017 1017 1017 
1017 1017 1017 1017 1017 1017 1017 1017 1017 
1017 1017 1017 1017 1017 1017 1017 1017 1017 
1017 1017 1017 1017 1017 1017 1017 1017 1017 
1017 1017 1017 1017 1017 1017 1017 1017 1017 
1017 1017 1017 1017 1017 1017 1017 1017 1017 
1017 1017 1017 1017 1017 1017 1017 1017 1017 
1017 1017 1017 1017 1017 1017 1017 1017 1017 
1017 1017 1017 1017 1017 1017 1017 1017 1017 
1017 1017 1017 1017 1017 1017 1017 1017 1017 
1017 1017 1017 1017 1017 1017 1017 1017 1017 
1017 1017 1017 1017 1017 1017 1017 1017 1017 
1017 1017 1017 1017 1017 1017 1017 1017 1017 
1017 1017 1017 1017 1017 1017 1017 1017 1017 
1017 1017 1017 1017 1017 1017 1017 1017 1017 
1017 1017 1017 1017 1017 1017 1017 1017 1017 
1017 1017 1017 1017 1017 1017 1017 1017 1017 
1017 1017 1017 1017 1017 1017 1017 1017 1017 
1017 1017 1017 1017 1017 1017 1017 1017 1017 
1017 1017 1017 1017 1017 1017 1017 1017 1017 
1017 1017 1017 1017 1017 1017 1017 1017 1017 
1017 1017 1017 1017 1017 1017 1017 1017 1017 
1017 1017 1017 1017 1017 1017 1017 1017 1017 
1017 1017 1017 1017 1017 1017 1017 1017 1017 
1017 1017 1017 1017 1017 1017 1017 1017 1017 
1017 1017 1017 1017 1017 1017 1017 1017 1017 
1017 1017 1017 1017 1017 1017 1017 1017 1017 
1017 1017 1017 1017 1017 1017 1017 1017 1017 
1017 1017 1017 1017 1017 1017 1017 1017 1017 
1017 1017 1017 1017 1017 1017 1017 1017 1017 
1017 1017 1017 1017 1017 1017 1017 1017 1017 
1017 1017 1017 1017 1017 1017 1017 1017 1017 
1017 1017 1017 1017 1017 1017 1017 1017 1017 
1017 1017 1017 1017 1017 1017 1017 1017 1017 
1017 1017 1017 1017 1017 1017 1017 1017 1017 
1017 1017 1017 1017 1017 1017 1017 1017 1017 
1017 1017 1017 1017 1017 1017 1017 1017 1017 
1017 1017 1017 1017 1017 1017 1017 1017 1017 
1017 1017 1017 1017 1017 1017 1017 1017 1017 
1017 1017 1017 1017 1017 1017 1017 1017 1017 
1017 1017 1017 1017 1017 1017 1017 1017 1017 
1017 1017 1017 1017 1017 1017 1017 1017 1017 
1017 1017 1017 1017 1017 1017 1017 1017 1017 
1017 1017 1017 1017 1017 1017 1017 1017 1017 
1017 1017 1017 1017 1017 1017 1017 1017 1017 
1017 1017 1017 1017 1017 1017 1017 1017 1017 
1017 1017 1017 1017 1017 1017 1017 1017 1017 
1017 1017 1017 1017 1017 1017 1017 1017 1017 
1017 1017 1017 1017 1017 1017 1017 1017 1017 
1017 1017 1017 1017 1017 1017 1017 1017 1017 
1017 1017 1017 1017 1017 1017 1017 1017 1017 
1017 1017 1017 1017 1017 1017 1017 1017 1017 
1017 1017 1017 1017 1017 1017 1017 1017 1017 
1017 1017 1017 1017 1017 1017 1017 1017 1017 
1017 1017 1017 1017 1017 1017 1017 1017 1017 
1017 1017 1017 1017 1017 1017 1017 1017 1017 
1017 1017 1017 1017 1017 1017 1017 1017 1017 
1017 1017 1017 1017 1017 1017 1017 1017 1017 
1017 1017 1017 1017 1017 1017 1017 1017 1017 
1017 1017 1017 1017 1017 1017 1017 1017 1017 
1017 1017 1017 1017 1017 1017 1017 1017 1017 
1017 1017 1017 1017 1017 1017 1017 1017 1017 
1017 1017 1017 1017 1017 1017 1017 1017 1017 
1017 1017 1017 1017 1017 1017 1017 1017 1017 
1017 1017 1017 1017 1017 1017 1017 1017 1017 
1017 1017 1017 1017 1017 1017 1017 1017 1017 
1017 1017 1017 1017 1017 1017 1017 1017 1017 
1017 1017 1017 1017 1017 1017 1017 1017 1017 
1017 1017 1017 1017 1017 1017 1017 1017 1017 
1017 1017 1017 1017 1017 1017 1017 1017 1017 
1017 1017 1017 1017 1017 1017 1017 1017 1017 
1017 1017 1017 1017 1017 1017 1017 1017 1017 
1017 1017 1017 1017 1017 1017 1017 1017 1017 
1017 1017 1017 1017 1017 1017 1017 1017 1017 
1017 1017 1017 1017 1017 1017 1017 1017 1017 
1017 1017 1017 1017 1017 1017 1017 1017 1017 
1017 1017 1017 1017 1017 1017 1017 1017 1017 
1017 1017 1017 1017 1017 1017 1017 1017 1017 
1017 1017 1017 1017 1017 1017 1017 1017 1017 
1017 1017 1017 1017 1017 1017 1017 1017 1017 
1017 1017 1017 1017 1017 1017 1017 1017 1017 
1017 1017 1017 1017 1017 1017 1017 1017 1017 
1017 1017 1017 1017 1017 1017 1017 1017 1017 
1017 1017 1017 1017 1017 1017 1017 1017 1017 
1017 1017 1017 1017 1017 1017 1017 1017 1017 
1017 1017 1017 1017 1017 1017 1017 1017 1017 
1017 1017 1017 1017 1017 1017 1017 1017 1017 
1017 1017 1017 1017 1017 1017 1017 1017 1017 
1017 1017 1017 1017 1017 1017 1017 1017 1017 
1017 1017 1017 1017 1017 1017 1017 1017 1017 
1017 1017 1017 1017 1017 1017 1017 1017 1017 
1017 1017 1017 1017 1017 1017 1017 1017 1017 
1017 1017 1017 1017 1017 1017 1017 1017 1017 
1017 1017 1017 1017 1017 1017 1017 1017 1017 
1017 1017 1017 1017 1017 1017 1017 1017 1017 
1017 1017 1017 1017 1017 1017 1017 1017 1017 
1017 1017 1017 1017 1017 1017 1017 1017 1017 
1017 1017 1017 1017 1017 1017 1017 1017 1017 
1017 1017 1017 1017 1017 1017 1017 1017 1017 
1017 1017 1017 1017 1017 1017 1017 1017 1017 
1017 1017 1017 1017 1017 1017 1017 1017 1017 
1017 1017 1017 1017 1017 1017 1017 1017 1017 
1017 1017 1017 1017 1017 1017 1017 1017 1017 
1017 1017 1017 1017 1017 1017 1017 1017 1017 
1017 1017 1017 1017 1017 1017 1017 1017 1017 
1017 1017 1017 1017 1017 1017 1017 1017 1017 
1017 1017 1017 1017 1017 1017 1017 1017 1017 
1017 1017 1017 1017 1017 1017 1017 1017 1017 
1017 1017 1017 1017 1017 1017 1017 1017 1017 
1017 1017 1017 1017 1017 1017 1017 1017 1017 
1017 1017 1017 1017 1017 1017 1017 1017 1017 
1017 1017 1017 1017 1017 1017 1017 1017 1017 
1017 1017 1017 1017 1017 1017 1017 1017 1017 
1017 1017 1017 1017 1017 1017 1017 1017 1017 
1017 1017 1017 1017 1017 1017 1017 1017 1017 
1017 1017 1017 1017 1017 1017 1017 1017 1017 
1017 1017 1017 1017 1017 1017 1017 1017 1017 
1017 1017 1017 1017 1017 1017 1017 1017 1017 
1017 1017 1017 1017 1017 1017 1017 1017 1017 
1017 1017 1017 1017 1017 1017 1017 1017 1017 
1017 1017 1017 1017 1017 1017 1017 1017 1017 
1017 1017 1017 1017 1017 1017 1017 1017 1017 
1017 1017 1017 1017 1017 1017 1017 1017 1017 
1017 1017 1017 1017 1017 1017 1017 1017 1017 
1017 1017 1017 1017 1017 1017 1017 1017 1017 
1017 1017 1017 1017 1017 1017 1017 1017 1017 
1017 1017 1017 1017 1017 1017 1017 1017 1017 
1017 1017 1017 1017 1017 1017 1017 1017 1017 
1017 1017 1017 1017 1017 1017 1017 1017 1017 
1017 1017 1017 1017 1017 1017 1017 1017 1017 
1017 1017 1017 1017 1017 1017 1017 1017 1017 
1017 1017 1017 1017 1017 1017 1017 1017 1017 
1017 1017 1017 1017 1017 1017 1017 1017 1017 
1017 1017 1017 1017 1017 1017 1017 1017 1017 
1017 1017 1017 1017 1017 1017 1017 1017 1017 
1017 1017 1017 1017 1017 1017 1017 1017 1017 
1017 1017 1017 1017 1017 1017 1017 1017 1017 
1017 1017 1017 1017 1017 1017 1017 1017 1017 
1017 1017 1017 1017 1017 1017 1017 1017 1017 
1017 1017 1017 1017 1017 1017 1017 1017 1017 
1017 1017 1017 1017 1017 1017 1017 1017 1017 
1017 1017 1017 1017 1017 1017 1017 1017 1017 
1017 1017 1017 1017 1017 1017 1017 1017 1017 
1017 1017 1017 1017 1017 1017 1017 1017 1017 
1017 1017 1017 1017 1017 1017 1017 1017 1017 
1017 1017 1017 1017 1017 1017 1017 1017 1017 
1017 1017 1017 1017 1017 1017 1017 1017 1017 
1017 1017 1017 1017 1017 1017 1017 1017 1017 
1017 1017 1017 1017 1017 1017 1017 1017 1017 
1017 1017 1017 1017 1017 1017 1017 1017 1017 
1017 1017 1017 1017 1017 1017 1017 1017 1017 
1017 1017 1017 1017 1017 1017 1017 1017 1017 
1017 1017 1017 1017 1017 1017 1017 1017 1017 
1017 1017 1017 1017 1017 1017 1017 1017 1017 
1017 1017 1017 1017 1017 1017 1017 1017 1017 
1017 1017 1017 1017 1017 1017 1017 1017 1017 
1017 1017 1017 1017 1017 1017 1017 1017 1017 
1017 1017 1017 1017 1017 1017 1017 1017 1017 
1017 1017 1017 1017 1017 1017 1017 1017 1017 
1017 1017 1017 1017 1017 1017 1017 1017 1017 
1017 1017 1017 1017 1017 1017 1017 1017 1017 
1017 1017 1017 1017 1017 1017 1017 1017 1017 
1017 1017 1017 1017 1017 1017 1017 1017 1017 
1017 1017 1017 1017 1017 1017 1017 1017 1017 
1017 1017 1017 1017 1017 1017 1017 1017 1017 
1017 1017 1017 1017 1017 1017 1017 1017 1017 
1017 1017 1017 1017 1017 1017 1017 1017 1017 
1017 1017 1017 1017 1017 1017 1017 1017 1017 
1017 1017 1017 1017 1017 1017 1017 1017 1017 
1017 1017 1017 1017 1017 1017 1017 1017 1017 
1017 1017 1017 1017 1017 1017 1017 1017 1017 
1017 1017 1017 1017 1017 1017 1017 1017 1017 
1017 1017 1017 1017 1017 1017 1017 1017 1017 
1017 1017 1017 1017 1017 1017 1017 1017 1017 
1017 1017 1017 1017 1017 1017 1017 1017 1017 
1017 1017 1017 1017 1017 1017 1017 1017 1017 
1017 1017 1017 1017 1017 1017 1017 1017 1017 
1017 1017 1017 1017 1017 1017 1017 1017 1017 
1017 1017 1017 1017 1017 1017 1017 1017 1017 
1017 1017 1017 1017 1017 1017 1017 1017 1017 
1017 1017 1017 1017 1017 1017 1017 1017 1017 
1017 1017 1017 1017 1017 1017 1017 1017 1017 
1017 1017 1017 1017 1017 1017 1017 1017 1017 
1017 1017 1017 1017 1017 1017 1017 1017 1017 
1017 1017 1017 1017 1017 1017 1017 1017 1017 
1017 1017 1017 1017 1017 1017 1017 1017 1017 
1017 1017 1017 1017 1017 1017 1017 1017 1017 
1017 1017 1017 1017 1017 1017 1017 1017 1017 
1017 1017 1017 1017 1017 1017 1017 1017 1017 
1017 1017 1017 1017 1017 1017 1017 1017 1017 
1017 1017 1017 1017 1017 1017 1017 1017 1017 
1017 1017 1017 1017 1017 1017 1017 1017 1017 
1017 1017 1017 1017 1017 1017 1017 1017 1017 
1017 1017 1017 1017 1017 1017 1017 1017 1017 
1017 1017 1017 1017 1017 1017 1017 1017 1017 
1017 1017 1017 1017 1017 1017 1017 1017 1017 
1017 1017 1017 1017 1017 1017 1017 1017 1017 
1017 1017 1017 1017 1017 1017 1017 1017 1017 
1017 1017 1017 1017 1017 1017 1017 1017 1017 
1017 1017 1017 1017 1017 1017 1017 1017 1017 
1017 1017 1017 1017 1017 1017 1017 1017 1017 
1017 1017 1017 1017 1017 1017 1017 1017 1017 
1017 1017 1017 1017 1017 1017 1017 1017 1017 
1017 1017 1017 1017 1017 1017 1017 1017 1017 
1017 1017 1017 1017 1017 1017 1017 1017 1017 
1017 1017 1017 1017 1017 1017 1017 1017 1017 
1017 1017 1017 1017 1017 1017 1017 1017 1017 
1017 1017 1017 1017 1017 1017 1017 1017 1017 
1017 1017 1017 1017 1017 1017 1017 1017 1017 
1017 1017 1017 1017 1017 1017 1017 1017 1017 
1017 1017 1017 1017 1017 1017 1017 1017 1017 
1017 1017 1017 1017 1017 1017 1017 1017 1017 
1017 1017 1017 1017 1017 1017 1017 1017 1017 
1017 1017 1017 1017 1017 1017 1017 1017 1017 
1017 1017 1017 1017 1017 1017 1017 1017 1017 
1017 1017 1017 1017 1017 1017 1017 1017 1017 
1017 1017 1017 1017 1017 1017 1017 1017 1017 
1017 1017 1017 1017 1017 1017 1017 1017 1017 
1017 1017 1017 1017 1017 1017 1017 1017 1017 
1017 1017 1017 1017 1017 1017 1017 1017 1017 
1017 1017 1017 1017 1017 1017 1017 1017 1017 
1017 1017 1017 1017 1017 1017 1017 1017 1017 
1017 1017 1017 1017 1017 1017 1017 1017 1017 
1017 1017 1017 1017 1017 1017 1017 1017 1017 
1017 1017 1017 1017 1017 1017 1017 1017 1017 
1017 1017 1017 1017 1017 1017 1017 1017 1017 
1017 1017 1017 1017 1017 1017 1017 1017 1017 
1017 1017 1017 1017 1017 1017 1017 1017 1017 
1017 1017 1017 1017 1017 1017 1017 1017 1017 
1017 1017 1017 1017 1017 1017 1017 1017 1017 
1017 1017 1017 1017 1017 1017 1017 1017 1017 
1017 1017 1017 1017 1017 1017 1017 1017 1017 
1017 1017 1017 1017 1017 1017 1017 1017 1017 
1017 1017 1017 1017 1017 1017 1017 1017 1017 
1017 1017 1017 1017 1017 1017 1017 1017 1017 
1017 1017 1017 1017 1017 1017 1017 1017 1017 
1017 1017 1017 1017 1017 1017 1017 1017 1017 
1017 1017 1017 1017 1017 1017 1017 1017 1017 
1017 1017 1017 1017 1017 1017 1017 1017 1017 
1017 1017 1017 1017 1017 1017 1017 1017 1017 
1017 1017 1017 1017 1017 1017 1017 1017 1017 
1017 1017 1017 1017 1017 1017 1017 1017 1017 
1017 1017 1017 1017 1017 1017 1017 1017 1017 
1017 1017 1017 1017 1017 1017 1017 1017 1017 
1017 1017 1017 1017 1017 1017 1017 1017 1017 
1017 1017 1017 1017 1017 1017 1017 1017 1017 
1017 1017 1017 1017 1017 1017 1017 1017 1017 
1017 1017 1017 1017 1017 1017 1017 1017 1017 
1017 1017 1017 1017 1017 1017 1017 1017 1017 
1017 1017 1017 1017 1017 1017 1017 1017 1017 
1017 1017 1017 1017 1017 1017 1017 1017 1017 
1017 1017 1017 1017 1017 1017 1017 1017 1017 
1017 1017 1017 1017 1017 1017 1017 1017 1017 
1017 1017 1017 1017 1017 1017 1017 1017 1017 
1017 1017 1017 1017 1017 1017 1017 1017 1017 
1017 1017 1017 1017 1017 1017 1017 1017 1017 
1017 1017 1017 1017 1017 1017 1017 1017 1017 
1017 1017 1017 1017 1017 1017 1017 1017 1017 
1017 1017 1017 1017 1017 1017 1017 1017 1017 
1017 1017 1017 1017 1017 1017 1017 1017 1017 
1017 1017 1017 1017 1017 1017 1017 1017 1017 
1017 1017 1017 1017 1017 1017 1017 1017 1017 
1017 1017 1017 1017 1017 1017 1017 1017 1017 
1017 1017 1017 1017 1017 1017 1017 1017 1017 
1017 1017 1017 1017 1017 1017 1017 1017 1017 
1017 1017 1017 1017 1017 1017 1017 1017 1017 
1017 1017 1017 1017 1017 1017 1017 1017 1017 
1017 1017 1017 1017 1017 1017 1017 1017 1017 
1017 1017 1017 1017 1017 1017 1017 1017 1017 
1017 1017 1017 1017 1017 1017 1017 1017 1017 
1017 1017 1017 1017 1017 1017 1017 1017 1017 
1017 1017 1017 1017 1017 1017 1017 1017 1017 
1017 1017 1017 1017 1017 1017 1017 1017 1017 
1017 1017 1017 1017 1017 1017 1017 1017 1017 
1017 1017 1017 1017 1017 1017 1017 1017 1017 
1017 1017 1017 1017 1017 1017 1017 1017 1017 
1017 1017 1017 1017 1017 1017 1017 1017 1017 
1017 1017 1017 1017 1017 1017 1017 1017 1017 
1017 1017 1017 1017 1017 1017 1017 1017 1017 
1017 1017 1017 1017 1017 1017 1017 1017 1017 
1017 1017 1017 1017 1017 1017 1017 1017 1017 
1017 1017 1017 1017 1017 1017 1017 1017 1017 
1017 1017 1017 1017 1017 1017 1017 1017 1017 
1017 1017 1017 1017 1017 1017 1017 1017 1017 
1017 1017 1017 1017 1017 1017 1017 1017 1017 