# vtk DataFile Version 4.2
vtk output
ASCII
DATASET POLYDATA
POINTS 24100 float
-21.2377 8.22098 87.8583 -21.2462 8.76168 87.2028 -21.8668 8.40898 87.5611 
-20.7351 8.62437 87.4093 -22.0382 7.61017 87.8961 -22.509 8.02231 87.1996 
-22.8314 7.2485 87.5423 -21.169 7.37238 88.0874 -20.3971 8.22469 87.6645 
-20.2178 7.49358 87.9647 -19.2698 7.26808 87.7953 -19.3822 8.03619 87.3501 
-18.7687 7.49029 87.3729 -22.2201 6.53288 87.9109 -22.8875 6.26454 87.5347 
-21.3229 6.53824 88.0695 -20.3107 6.47272 88.0737 -19.4029 6.48405 87.9237 
-18.7466 6.72389 87.5253 -22.1963 5.4983 87.8834 -22.8562 5.22992 87.5193 
-21.2972 5.50586 88.036 -20.2744 5.44124 88.0417 -19.3837 5.45368 87.9011 
-18.7518 5.71753 87.5287 -22.1711 4.47439 87.8914 -22.8557 4.21247 87.5322 
-21.2695 4.49152 88.0347 -20.263 4.42204 88.0242 -19.3648 4.43448 87.8744 
-18.7225 4.70205 87.5092 -22.1741 3.451 87.9109 -22.8391 3.20958 87.5247 
-21.2614 3.4582 88.0537 -20.4196 3.57055 88.0325 -19.5584 3.36203 87.8315 
-18.7912 3.75685 87.4921 -22.1769 2.52627 87.8416 -22.6565 2.37067 87.4754 
-21.3143 2.4401 88.0508 -20.2846 2.50129 87.9396 -19.5503 2.46958 87.6075 
-19.047 2.98784 87.4405 -22.1424 1.8622 87.6287 -21.7206 1.24592 87.4948 
-21.4863 1.67335 87.8558 -20.6169 1.53151 87.8467 -19.8151 1.71737 87.5537 
-20.9434 0.928068 87.3745 -20.0695 1.08192 87.2588 -17.3608 -3.51611 87.7078 
-17.317 -3.23604 87.5829 -17.5348 -3.51372 87.4926 -17.0565 -3.46336 87.2881 
-17.3482 -3.80829 87.5831 -16.4082 -4.41089 87.4364 -16.5498 -4.56177 87.598 
-16.2618 -4.54835 87.6761 -16.073 -4.47264 87.2914 -17.0586 -5.77755 87.821 
-17.4884 -5.27582 87.4907 -17.7824 -5.86408 87.4102 -16.3163 -4.68145 87.2968 
-16.8674 -5.47101 87.3172 -17.2533 -6.25986 87.8645 -17.6117 -6.72448 87.3363 
-16.4417 -6.03355 87.5697 -16.5644 -6.4309 87.8491 -16.0381 -6.60131 87.2101 
-16.9499 -6.95218 87.6271 -16.2639 -7.06752 87.4199 -15.0905 11.4885 86.8615 
-15.2625 12.0094 86.4255 -15.5928 11.397 86.4026 -14.5445 11.1917 86.8356 
-14.6044 11.939 86.5868 -13.9941 11.589 86.2135 -15.2061 10.8222 86.8158 
-15.6011 10.3962 86.1635 -14.6836 10.5777 86.705 -14.1683 10.8185 86.4252 
-15.0988 10.223 86.515 -21.1186 8.84762 86.2133 -21.8078 8.54972 86.7716 
-19.9564 8.54243 87.1068 -20.3187 8.89101 86.5314 -19.335 8.51127 86.8773 
-19.3255 8.79889 86.3508 -18.7585 8.50964 86.4776 -23.1939 7.54917 87.0159 
-22.9562 7.78315 86.3382 -23.5516 7.18672 86.432 -22.2848 8.18191 86.3285 
-18.2843 7.18704 86.928 -18.4535 7.95187 86.7528 -17.9315 7.60071 86.3905 
-15.2008 7.23754 86.7784 -15.0527 7.89725 86.3087 -15.6453 7.32529 86.5106 
-14.748 7.32466 86.3134 -23.3831 6.80867 87.0449 -23.6975 6.37315 86.4879 
-18.2664 6.22103 86.9808 -17.7965 6.75861 86.4329 -15.3382 6.67354 86.807 
-15.5971 6.36494 86.5109 -14.9742 6.53762 86.4656 -23.3795 5.79655 87.0081 
-23.7184 5.49119 86.348 -18.2563 5.19464 86.9801 -17.7709 5.73656 86.4452 
-15.2053 6.01737 86.4297 -23.3604 4.76682 86.9997 -23.7198 4.49219 86.3407 
-18.241 4.18947 86.9909 -17.7603 4.72202 86.4738 -23.3607 3.74386 87.0176 
-23.7164 3.49447 86.3504 -18.4099 3.1473 87.0095 -17.7558 3.5846 86.3997 
-23.224 2.5667 87.0415 -23.704 2.44217 86.3921 -19.094 2.31179 87.2364 
-18.5305 2.21757 86.8078 -18.005 2.69142 86.4776 -23.2326 1.40449 86.9539 
-23.7346 1.39094 86.4386 -22.4571 1.45968 87.2475 -19.2704 1.54372 87.031 
-18.7754 1.59014 86.5104 -18.2361 2.00744 86.167 -23.3621 0.60021 86.8539 
-23.6842 0.496809 86.2633 -22.6317 0.513181 86.9636 -21.6417 0.552968 87.0063 
-20.8446 0.448222 86.7022 -20.1497 0.712597 86.4548 -19.3875 1.11463 86.4519 
-23.0306 0.05073 86.4654 -22.0554 -0.00536466 86.4152 -21.0987 0.095299 86.2557 
-17.1417 -2.73949 87.0167 -17.2756 -2.17236 86.3189 -17.8429 -2.57127 86.5396 
-16.2994 -2.4534 86.7474 -16.5219 -2.21019 86.4419 -16.0994 -2.41039 86.5294 
-18.0741 -3.42955 86.942 -18.3985 -2.98791 86.1957 -18.6884 -3.72735 86.5249 
-16.4606 -2.79693 86.575 -16.6863 -3.56386 86.3099 -18.3939 -4.32297 86.9032 
-18.7672 -4.49876 86.4059 -17.1659 -4.46772 87.1678 -16.2381 -4.17981 86.5693 
-15.8517 -4.55489 86.5477 -18.2148 -5.1753 87.009 -18.6768 -5.56544 86.1675 
-16.2484 -4.99423 86.5651 -16.6096 -5.37897 86.6932 -18.2858 -5.94626 86.706 
-18.0257 -6.66141 86.4967 -16.2667 -5.97268 86.8356 -15.8103 -6.44013 86.273 
-17.3106 -7.4896 87.1868 -17.7205 -7.55274 86.6752 -16.6009 -7.77062 87.0265 
-15.8963 -7.39003 86.4263 -17.2511 -8.25768 86.7914 -17.5875 -8.44127 86.1791 
-16.6911 -8.51716 86.6042 -16.2024 -8.22761 86.379 -17.0121 -8.85706 86.2714 
-19.0341 14.2184 85.7519 -19.4659 14.7712 85.4461 -19.7549 14.16 85.5193 
-18.836 14.6572 85.465 -19.2806 13.6815 85.7739 -19.6664 13.3951 85.4537 
-18.4119 14.0732 85.6053 -18.599 13.5476 85.7487 -18.0238 13.6092 85.4405 
-14.2721 13.2031 85.7567 -14.3762 13.7889 85.1766 -14.8273 13.3642 85.5556 
-13.7271 13.3918 85.2678 -18.9681 13.0373 85.5077 -18.2035 13.0883 85.4108 
-14.9132 12.6863 85.9951 -15.4018 12.95 85.4249 -15.7184 12.1626 85.663 
-14.2423 12.4554 86.1524 -13.8564 12.5341 85.6664 -15.9342 11.1656 85.5946 
-13.7349 11.7056 85.3735 -15.9336 10.2493 85.4261 -14.4164 10.1081 86.1494 
-13.8382 10.75 85.5608 -15.1366 9.61914 86.0972 -15.7488 9.30551 85.5778 
-14.5481 9.25347 85.8093 -13.9772 9.77772 85.3913 -21.3156 8.8736 85.4408 
-21.802 8.48555 85.7908 -20.5067 9.11069 85.5719 -19.5055 9.11511 85.5925 
-17.9147 8.31211 86.0063 -18.5134 8.97947 85.6105 -17.0389 8.17634 85.7023 
-17.5496 8.85948 85.3995 -16.817 8.56741 85.3164 -15.3641 8.50437 85.9627 
-15.9312 8.36193 85.5529 -14.6664 8.3377 85.4614 -14.302 9.04994 85.1308 
-25.2667 7.46026 85.6452 -25.4517 7.70312 85.4796 -25.5326 7.29423 85.4765 
-25.0449 7.60436 85.4662 -23.3628 7.30845 85.8709 -22.9981 7.54344 85.5931 
-22.4979 7.9805 85.5898 -17.2443 7.38177 86.0508 -16.4005 8.16788 85.4912 
-16.2754 7.73481 85.9223 -14.3235 7.29951 85.7636 -14.4419 7.7633 85.7979 
-14.1518 7.46277 85.4916 -25.1258 7.19547 85.4631 -23.4446 7.06289 85.3656 
-23.8151 6.39484 85.5534 -17.1434 6.23764 86.0949 -16.2762 6.57238 86.1373 
-14.6311 6.75904 85.5712 -14.313 7.23638 85.2987 -23.8467 5.32727 85.6394 
-17.1475 5.21676 86.1009 -16.4556 5.59733 85.9854 -15.6 5.4327 85.9762 
-14.9026 5.61335 85.4956 -23.8426 4.50307 85.4699 -17.2669 4.32235 86.1469 
-16.4769 4.5004 85.8479 -15.6653 4.55297 85.5839 -15.181 4.79778 85.3934 
-23.8541 3.49179 85.4655 -17.196 3.50769 85.8673 -16.7868 3.44875 85.367 
-16.0881 3.9793 85.1767 -23.8824 2.45333 85.5116 -17.6474 2.45447 85.5582 
-17.1944 2.84547 85.3602 -23.9101 1.40278 85.5271 -18.688 1.43389 85.8108 
-18.1541 1.76907 85.4242 -23.781 0.52375 85.2879 -20.4513 0.319777 86.091 
-19.9504 0.489743 85.5753 -19.2131 0.937983 85.313 -23.2535 -0.0105978 85.587 
-22.3282 -0.155425 85.5648 -21.2669 -0.104639 85.4734 -20.4076 0.13016 85.4179 
-17.0375 -2.12335 85.458 -17.8462 -2.38439 85.7558 -16.3776 -2.36268 86.1246 
-16.6054 -2.63316 85.5853 -18.3484 -2.93032 85.2263 -18.7473 -3.6168 85.7748 
-16.5662 -3.26368 85.4224 -18.8612 -4.54912 85.5471 -16.315 -3.76739 85.6625 
-15.427 -4.88443 85.849 -15.6349 -4.08947 85.6185 -14.9187 -4.42395 85.3545 
-18.9629 -5.60712 85.2309 -15.9158 -5.62022 86.1087 -15.3319 -5.43144 85.688 
-14.8112 -5.1747 85.4164 -18.4006 -6.36575 86.082 -18.6043 -6.42736 85.4023 
-15.2921 -5.97789 85.5494 -15.5726 -6.79052 85.6908 -18.2455 -6.86758 85.6003 
-17.9459 -7.5832 85.6228 -15.5831 -7.37808 85.4838 -17.6857 -8.66588 85.2575 
-16.4198 -8.71869 86.116 -15.985 -8.23333 85.5292 -17.1245 -9.04972 85.5383 
-16.5561 -8.89747 85.703 -20.1821 16.2957 84.8492 -20.2285 16.9568 84.539 
-20.8283 16.5279 84.5331 -19.1488 16.2605 84.8229 -19.3937 17.0531 84.3251 
-18.7181 16.6226 84.388 -21.1654 15.4662 84.8695 -21.3758 16.0121 84.5265 
-21.8522 15.5221 84.4974 -20.3613 15.552 85.0209 -19.3745 15.3856 85.1274 
-18.3786 16.1925 84.6154 -18.1885 15.4939 84.9281 -17.0861 15.2202 84.8078 
-17.3751 16.0159 84.3392 -16.7048 15.5694 84.4041 -22.0214 14.5279 84.8459 
-22.4104 15.0771 84.3443 -22.6555 14.3982 84.4031 -21.1997 14.3494 85.0238 
-20.3196 14.7975 85.1455 -18.1632 14.4439 85.2096 -17.2738 14.4443 85.0009 
-16.2418 15.0849 84.3425 -16.2493 14.3667 84.8462 -15.7185 14.5647 84.3831 
-22.2374 13.4862 84.8899 -22.8416 13.384 84.3902 -21.3705 13.4536 85.0347 
-20.3661 13.5848 85.1493 -17.4023 13.2963 85.0628 -16.4551 13.6426 84.9742 
-15.2141 14.1347 84.7112 -15.4613 13.5695 85.1036 -14.2487 14.1535 84.424 
-13.2777 13.3834 84.7832 -13.5049 13.835 84.7129 -12.9766 13.4859 84.1842 
-22.347 12.7159 84.7622 -22.6583 12.4284 84.4111 -21.4624 12.4749 84.8854 
-20.3616 12.4729 85.003 -19.3624 12.5055 85.1172 -18.1455 12.4011 85.0638 
-17.0964 12.282 84.9004 -16.2259 12.7596 85.0515 -13.5338 12.5803 84.8632 
-13.1307 12.9324 84.3387 -21.9686 12.0386 84.4998 -21.1988 11.7995 84.544 
-20.7461 11.4566 84.4338 -20.3512 11.574 84.7593 -19.2947 11.4456 84.9383 
-18.2766 11.4158 84.9251 -17.2586 11.4397 84.8812 -16.4036 11.7249 85.0549 
-13.5897 11.4595 84.6527 -23.1068 10.2615 84.7894 -23.382 10.8457 84.4038 
-23.8943 10.3694 84.5633 -22.0073 10.3401 84.8082 -22.5746 11.0047 84.4573 
-21.0048 10.1986 84.7021 -21.5996 10.9168 84.4342 -20.2522 10.9397 84.4182 
-20.8271 10.6185 84.3417 -19.9658 10.2901 84.4921 -19.3559 10.3891 84.8051 
-18.2244 10.4097 84.9069 -17.2322 10.4265 84.8836 -16.4182 10.7194 85.0332 
-13.6459 10.3509 84.5316 -25.1534 9.26888 84.8182 -25.2792 9.88262 84.4976 
-25.8513 9.49245 84.5112 -24.0203 9.5298 84.8454 -24.6571 10.0832 84.5009 
-23.1086 9.33022 84.949 -22.4042 9.62825 84.967 -21.3328 9.46341 85.0516 
-20.3596 10.1901 84.4787 -20.0585 9.68849 84.9257 -19.0414 9.48055 85.0919 
-18.2299 9.56393 85.0539 -17.1657 9.37655 85.0174 -16.3554 9.68384 85.0516 
-13.938 9.49753 84.6386 -26.0724 8.68173 84.83 -26.3952 8.99062 84.5335 
-26.7677 8.30145 84.4915 -25.2567 8.1738 85.1454 -24.2719 8.43581 84.9774 
-23.3964 8.63116 84.9453 -22.3197 8.65343 85.1093 -16.2954 8.73728 85.2009 
-14.6165 8.49844 84.6001 -14.3023 8.99146 84.183 -26.0861 7.57214 85.0552 
[...]
CELL_DATA 48408
SCALARS scalars float
LOOKUP_TABLE default
2027 2027 2027 2027 2027 2027 2027 2027 2027 
2027 2027 2027 2027 2027 2027 2027 2027 2027 
2027 2027 2027 2027 2027 2027 2027 2027 2027 
2027 2027 2027 2027 2027 2027 2027 2027 2027 
2027 2027 2027 2027 2027 2027 2027 2027 2027 
2027 2027 2027 2027 2027 2027 2027 2027 2027 
2027 2027 2027 2027 2027 2027 2027 2027 2027 
2027 2027 2027 2027 2027 2027 2027 2027 2027 
2027 2027 2027 2027 2027 2027 2027 2027 2027 
2027 2027 2027 2027 2027 2027 2027 2027 2027 
2027 2027 2027 2027 2027 2027 2027 2027 2027 
2027 2027 2027 2027 2027 2027 2027 2027 2027 
2027 2027 2027 2027 2027 2027 2027 2027 2027 
2027 2027 2027 2027 2027 2027 2027 2027 2027 
2027 2027 2027 2027 2027 2027 2027 2027 2027 
2027 2027 2027 2027 2027 2027 2027 2027 2027 
2027 2027 2027 2027 2027 2027 2027 2027 2027 
2027 2027 2027 2027 2027 2027 2027 2027 2027 
2027 2027 2027 2027 2027 2027 2027 2027 2027 
2027 2027 2027 2027 2027 2027 2027 2027 2027 
2027 2027 2027 2027 2027 2027 2027 2027 2027 
2027 2027 2027 2027 2027 2027 2027 2027 2027 
2027 2027 2027 2027 2027 2027 2027 2027 2027 
2027 2027 2027 2027 2027 2027 2027 2027 2027 
2027 2027 2027 2027 2027 2027 2027 2027 2027 
2027 2027 2027 2027 2027 2027 2027 2027 2027 
2027 2027 2027 2027 2027 2027 2027 2027 2027 
2027 2027 2027 2027 2027 2027 2027 2027 2027 
2027 2027 2027 2027 2027 2027 2027 2027 2027 
2027 2027 2027 2027 2027 2027 2027 2027 2027 
2027 2027 2027 2027 2027 2027 2027 2027 2027 
2027 2027 2027 2027 2027 2027 2027 2027 2027 
2027 2027 2027 2027 2027 2027 2027 2027 2027 
2027 2027 2027 2027 2027 2027 2027 2027 2027 
2027 2027 2027 2027 2027 2027 2027 2027 2027 
2027 2027 2027 2027 2027 2027 2027 2027 2027 
2027 2027 2027 2027 2027 2027 2027 2027 2027 
2027 2027 2027 2027 2027 2027 2027 2027 2027 
2027 2027 2027 2027 2027 2027 2027 2027 2027 
2027 2027 2027 2027 2027 2027 2027 2027 2027 
2027 2027 2027 2027 2027 2027 2027 2027 2027 
2027 2027 2027 2027 2027 2027 2027 2027 2027 
2027 2027 2027 2027 2027 2027 2027 2027 2027 
2027 2027 2027 2027 2027 2027 2027 2027 2027 
2027 2027 2027 2027 2027 2027 2027 2027 2027 
2027 2027 2027 2027 2027 2027 2027 2027 2027 
2027 2027 2027 2027 2027 2027 2027 2027 2027 
2027 2027 2027 2027 2027 2027 2027 2027 2027 
2027 2027 2027 2027 2027 2027 2027 2027 2027 
2027 2027 2027 2027 2027 2027 2027 2027 2027 
2027 2027 2027 2027 2027 2027 2027 2027 2027 
2027 2027 2027 2027 2027 2027 2027 2027 2027 
2027 2027 2027 2027 2027 2027 2027 2027 2027 
2027 2027 2027 2027 2027 2027 2027 2027 2027 
2027 2027 2027 2027 2027 2027 2027 2027 2027 
2027 2027 2027 2027 2027 2027 2027 2027 2027 
2027 2027 2027 2027 2027 2027 2027 2027 2027 
2027 2027 2027 2027 2027 2027 2027 2027 2027 
2027 2027 2027 2027 2027 2027 2027 2027 2027 
2027 2027 2027 2027 2027 2027 2027 2027 2027 
2027 2027 2027 2027 2027 2027 2027 2027 2027 
2027 2027 2027 2027 2027 2027 2027 2027 2027 
2027 2027 2027 2027 2027 2027 2027 2027 2027 
2027 2027 2027 2027 2027 2027 2027 2027 2027 
2027 2027 2027 2027 2027 2027 2027 2027 2027 
2027 2027 2027 2027 2027 2027 2027 2027 2027 
2027 2027 2027 2027 2027 2027 2027 2027 2027 
2027 2027 2027 2027 2027 2027 2027 2027 2027 
2027 2027 2027 2027 2027 2027 2027 2027 2027 
2027 2027 2027 2027 2027 2027 2027 2027 2027 
2027 2027 2027 2027 2027 2027 2027 2027 2027 
2027 2027 2027 2027 2027 2027 2027 2027 2027 
2027 2027 2027 2027 2027 2027 2027 2027 2027 
2027 2027 2027 2027 2027 2027 2027 2027 2027 
2027 2027 2027 2027 2027 2027 2027 2027 2027 
2027 2027 2027 2027 2027 2027 2027 2027 2027 
2027 2027 2027 2027 2027 2027 2027 2027 2027 
2027 2027 2027 2027 2027 2027 2027 2027 2027 
2027 2027 2027 2027 2027 2027 2027 2027 2027 
2027 2027 2027 2027 2027 2027 2027 2027 2027 
2027 2027 2027 2027 2027 2027 2027 2027 2027 
2027 2027 2027 2027 2027 2027 2027 2027 2027 
2027 2027 2027 2027 2027 2027 2027 2027 2027 
2027 2027 2027 2027 2027 2027 2027 2027 2027 
2027 2027 2027 2027 2027 2027 2027 2027 2027 
2027 2027 2027 2027 2027 2027 2027 2027 2027 
2027 2027 2027 2027 2027 2027 2027 2027 2027 
2027 2027 2027 2027 2027 2027 2027 2027 2027 
2027 2027 2027 2027 2027 2027 2027 2027 2027 
2027 2027 2027 2027 2027 2027 2027 2027 2027 
2027 2027 2027 2027 2027 2027 2027 2027 2027 
2027 2027 2027 2027 2027 2027 2027 2027 2027 
2027 2027 2027 2027 2027 2027 2027 2027 2027 
2027 2027 2027 2027 2027 2027 2027 2027 2027 
2027 2027 2027 2027 2027 2027 2027 2027 2027 
2027 2027 2027 2027 2027 2027 2027 2027 2027 
2027 2027 2027 2027 2027 2027 2027 2027 2027 
2027 2027 2027 2027 2027 2027 2027 2027 2027 
2027 2027 2027 2027 2027 2027 2027 2027 2027 
2027 2027 2027 2027 2027 2027 2027 2027 2027 
2027 2027 2027 2027 2027 2027 2027 2027 2027 
2027 2027 2027 2027 2027 2027 2027 2027 2027 
2027 2027 2027 2027 2027 2027 2027 2027 2027 
2027 2027 2027 2027 2027 2027 2027 2027 2027 
2027 2027 2027 2027 2027 2027 2027 2027 2027 
2027 2027 2027 2027 2027 2027 2027 2027 2027 
2027 2027 2027 2027 2027 2027 2027 2027 2027 
2027 2027 2027 2027 2027 2027 2027 2027 2027 
2027 2027 2027 2027 2027 2027 2027 2027 2027 
2027 2027 2027 2027 2027 2027 2027 2027 2027 
2027 2027 2027 2027 2027 2027 2027 2027 2027 
2027 2027 2027 2027 2027 2027 2027 2027 2027 
2027 2027 2027 2027 2027 2027 2027 2027 2027 
2027 2027 2027 2027 2027 2027 2027 2027 2027 
2027 2027 2027 2027 2027 2027 2027 2027 2027 
2027 2027 2027 2027 2027 2027 2027 2027 2027 
2027 2027 2027 2027 2027 2027 2027 2027 2027 
2027 2027 2027 2027 2027 2027 2027 2027 2027 
2027 2027 2027 2027 2027 2027 2027 2027 2027 
2027 2027 2027 2027 2027 2027 2027 2027 2027 
2027 2027 2027 2027 2027 2027 2027 2027 2027 
2027 2027 2027 2027 2027 2027 2027 2027 2027 
2027 2027 2027 2027 2027 2027 2027 2027 2027 
2027 2027 2027 2027 2027 2027 2027 2027 2027 
2027 2027 2027 2027 2027 2027 2027 2027 2027 
2027 2027 2027 2027 2027 2027 2027 2027 2027 
2027 2027 2027 2027 2027 2027 2027 2027 2027 
2027 2027 2027 2027 2027 2027 2027 2027 2027 
2027 2027 2027 2027 2027 2027 2027 2027 2027 
2027 2027 2027 2027 2027 2027 2027 2027 2027 
2027 2027 2027 2027 2027 2027 2027 2027 2027 
2027 2027 2027 2027 2027 2027 2027 2027 2027 
2027 2027 2027 2027 2027 2027 2027 2027 2027 
2027 2027 2027 2027 2027 2027 2027 2027 2027 
2027 2027 2027 2027 2027 2027 2027 2027 2027 
2027 2027 2027 2027 2027 2027 2027 2027 2027 
2027 2027 2027 2027 2027 2027 2027 2027 2027 
2027 2027 2027 2027 2027 2027 2027 2027 2027 
2027 2027 2027 2027 2027 2027 2027 2027 2027 
2027 2027 2027 2027 2027 2027 2027 2027 2027 
2027 2027 2027 2027 2027 2027 2027 2027 2027 
2027 2027 2027 2027 2027 2027 2027 2027 2027 
2027 2027 2027 2027 2027 2027 2027 2027 2027 
2027 2027 2027 2027 2027 2027 2027 2027 2027 
2027 2027 2027 2027 2027 2027 2027 2027 2027 
2027 2027 2027 2027 2027 2027 2027 2027 2027 
2027 2027 2027 2027 2027 2027 2027 2027 2027 
2027 2027 2027 2027 2027 2027 2027 2027 2027 
2027 2027 2027 2027 2027 2027 2027 2027 2027 
2027 2027 2027 2027 2027 2027 2027 2027 2027 
2027 2027 2027 2027 2027 2027 2027 2027 2027 
2027 2027 2027 2027 2027 2027 2027 2027 2027 
2027 2027 2027 2027 2027 2027 2027 2027 2027 
2027 2027 2027 2027 2027 2027 2027 2027 2027 
2027 2027 2027 2027 2027 2027 2027 2027 2027 
2027 2027 2027 2027 2027 2027 2027 2027 2027 
2027 2027 2027 2027 2027 2027 2027 2027 2027 
2027 2027 2027 2027 2027 2027 2027 2027 2027 
2027 2027 2027 2027 2027 2027 2027 2027 2027 
2027 2027 2027 2027 2027 2027 2027 2027 2027 
2027 2027 2027 2027 2027 2027 2027 2027 2027 
2027 2027 2027 2027 2027 2027 2027 2027 2027 
2027 2027 2027 2027 2027 2027 2027 2027 2027 
2027 2027 2027 2027 2027 2027 2027 2027 2027 
2027 2027 2027 2027 2027 2027 2027 2027 2027 
2027 2027 2027 2027 2027 2027 2027 2027 2027 
2027 2027 2027 2027 2027 2027 2027 2027 2027 
2027 2027 2027 2027 2027 2027 2027 2027 2027 
2027 2027 2027 2027 2027 2027 2027 2027 2027 
2027 2027 2027 2027 2027 2027 2027 2027 2027 
2027 2027 2027 2027 2027 2027 2027 2027 2027 
2027 2027 2027 2027 2027 2027 2027 2027 2027 
2027 2027 2027 2027 2027 2027 2027 2027 2027 
2027 2027 2027 2027 2027 2027 2027 2027 2027 
2027 2027 2027 2027 2027 2027 2027 2027 2027 
2027 2027 2027 2027 2027 2027 2027 2027 2027 
2027 2027 2027 2027 2027 2027 2027 2027 2027 
2027 2027 2027 2027 2027 2027 2027 2027 2027 
2027 2027 2027 2027 2027 2027 2027 2027 2027 
2027 2027 2027 2027 2027 2027 2027 2027 2027 
2027 2027 2027 2027 2027 2027 2027 2027 2027 
2027 2027 2027 2027 2027 2027 2027 2027 2027 
2027 2027 2027 2027 2027 2027 2027 2027 2027 
2027 2027 2027 2027 2027 2027 2027 2027 2027 
2027 2027 2027 2027 2027 2027 2027 2027 2027 
2027 2027 2027 2027 2027 2027 2027 2027 2027 
2027 2027 2027 2027 2027 2027 2027 2027 2027 
2027 2027 2027 2027 2027 2027 2027 2027 2027 
2027 2027 2027 2027 2027 2027 2027 2027 2027 
2027 2027 2027 2027 2027 2027 2027 2027 2027 
2027 2027 2027 2027 2027 2027 2027 2027 2027 
2027 2027 2027 2027 2027 2027 2027 2027 2027 
2027 2027 2027 2027 2027 2027 2027 2027 2027 
2027 2027 2027 2027 2027 2027 2027 2027 2027 
2027 2027 2027 2027 2027 2027 2027 2027 2027 
2027 2027 2027 2027 2027 2027 2027 2027 2027 
2027 2027 2027 2027 2027 2027 2027 2027 2027 
2027 2027 2027 2027 2027 2027 2027 2027 2027 
2027 2027 2027 2027 2027 2027 2027 2027 2027 
2027 2027 2027 2027 2027 2027 2027 2027 2027 
2027 2027 2027 2027 2027 2027 2027 2027 2027 
2027 2027 2027 2027 2027 2027 2027 2027 2027 
2027 2027 2027 2027 2027 2027 2027 2027 2027 
2027 2027 2027 2027 2027 2027 2027 2027 2027 
2027 2027 2027 2027 2027 2027 2027 2027 2027 
2027 2027 2027 2027 2027 2027 2027 2027 2027 
2027 2027 2027 2027 2027 2027 2027 2027 2027 
2027 2027 2027 2027 2027 2027 2027 2027 2027 
2027 2027 2027 2027 2027 2027 2027 2027 2027 
2027 2027 2027 2027 2027 2027 2027 2027 2027 
2027 2027 2027 2027 2027 2027 2027 2027 2027 
2027 2027 2027 2027 2027 2027 2027 2027 2027 
2027 2027 2027 2027 2027 2027 2027 2027 2027 
2027 2027 2027 2027 2027 2027 2027 2027 2027 
2027 2027 2027 2027 2027 2027 2027 2027 2027 
2027 2027 2027 2027 2027 2027 2027 2027 2027 
2027 2027 2027 2027 2027 2027 2027 2027 2027 
2027 2027 2027 2027 2027 2027 2027 2027 2027 
2027 2027 2027 2027 2027 2027 2027 2027 2027 
2027 2027 2027 2027 2027 2027 2027 2027 2027 
2027 2027 2027 2027 2027 2027 2027 2027 2027 
2027 2027 2027 2027 2027 2027 2027 2027 2027 
2027 2027 2027 2027 2027 2027 2027 2027 2027 
2027 2027 2027 2027 2027 2027 2027 2027 2027 
2027 2027 2027 2027 2027 2027 2027 2027 2027 
2027 2027 2027 2027 2027 2027 2027 2027 2027 
2027 2027 2027 2027 2027 2027 2027 2027 2027 
2027 2027 2027 2027 2027 2027 2027 2027 2027 
2027 2027 2027 2027 2027 2027 2027 2027 2027 
2027 2027 2027 2027 2027 2027 2027 2027 2027 
2027 2027 2027 2027 2027 2027 2027 2027 2027 
2027 2027 2027 2027 2027 2027 2027 2027 2027 
2027 2027 2027 2027 2027 2027 2027 2027 2027 
2027 2027 2027 2027 2027 2027 2027 2027 2027 
2027 2027 2027 2027 2027 2027 2027 2027 2027 
2027 2027 2027 2027 2027 2027 2027 2027 2027 
2027 2027 2027 2027 2027 2027 2027 2027 2027 
2027 2027 2027 2027 2027 2027 2027 2027 2027 
2027 2027 2027 2027 2027 2027 2027 2027 2027 
2027 2027 2027 2027 2027 2027 2027 2027 2027 
2027 2027 2027 2027 2027 2027 2027 2027 2027 
2027 2027 2027 2027 2027 2027 2027 2027 2027 
2027 2027 2027 2027 2027 2027 2027 2027 2027 
2027 2027 2027 2027 2027 2027 2027 2027 2027 
2027 2027 2027 2027 2027 2027 2027 2027 2027 
2027 2027 2027 2027 2027 2027 2027 2027 2027 
2027 2027 2027 2027 2027 2027 2027 2027 2027 
2027 2027 2027 2027 2027 2027 2027 2027 2027 
2027 2027 2027 2027 2027 2027 2027 2027 2027 
2027 2027 2027 2027 2027 2027 2027 2027 2027 
2027 2027 2027 2027 2027 2027 2027 2027 2027 
2027 2027 2027 2027 2027 2027 2027 2027 2027 
2027 2027 2027 2027 2027 2027 2027 2027 2027 
2027 2027 2027 2027 2027 2027 2027 2027 2027 
2027 2027 2027 2027 2027 2027 2027 2027 2027 
2027 2027 2027 2027 2027 2027 2027 2027 2027 
2027 2027 2027 2027 2027 2027 2027 2027 2027 
2027 2027 2027 2027 2027 2027 2027 2027 2027 
2027 2027 2027 2027 2027 2027 2027 2027 2027 
2027 2027 2027 2027 2027 2027 2027 2027 2027 
2027 2027 2027 2027 2027 2027 2027 2027 2027 
2027 2027 2027 2027 2027 2027 2027 2027 2027 
2027 2027 2027 2027 2027 2027 2027 2027 2027 
2027 2027 2027 2027 2027 2027 2027 2027 2027 
2027 2027 2027 2027 2027 2027 2027 2027 2027 
2027 2027 2027 2027 2027 2027 2027 2027 2027 
2027 2027 2027 2027 2027 2027 2027 2027 2027 
2027 2027 2027 2027 2027 2027 2027 2027 2027 
2027 2027 2027 2027 2027 2027 2027 2027 2027 
2027 2027 2027 2027 2027 2027 2027 2027 2027 
2027 2027 2027 2027 2027 2027 2027 2027 2027 
2027 2027 2027 2027 2027 2027 2027 2027 2027 
2027 2027 2027 2027 2027 2027 2027 2027 2027 
2027 2027 2027 2027 2027 2027 2027 2027 2027 
2027 2027 2027 2027 2027 2027 2027 2027 2027 
2027 2027 2027 2027 2027 2027 2027 2027 2027 
2027 2027 2027 2027 2027 2027 2027 2027 2027 
2027 2027 2027 2027 2027 2027 2027 2027 2027 
2027 2027 2027 2027 2027 2027 2027 2027 2027 
2027 2027 2027 2027 2027 2027 2027 2027 2027 
2027 2027 2027 2027 2027 2027 2027 2027 2027 
2027 2027 2027 2027 2027 2027 2027 2027 2027 
2027 2027 2027 2027 2027 2027 2027 2027 2027 
2027 2027 2027 2027 2027 2027 2027 2027 2027 
2027 2027 2027 2027 2027 2027 2027 2027 2027 
2027 2027 2027 2027 2027 2027 2027 2027 2027 
2027 2027 2027 2027 2027 2027 2027 2027 2027 
2027 2027 2027 2027 2027 2027 2027 2027 2027 
2027 2027 2027 2027 2027 2027 2027 2027 2027 
2027 2027 2027 2027 2027 2027 2027 2027 2027 
2027 2027 2027 2027 2027 2027 2027 2027 2027 
2027 2027 2027 2027 2027 2027 2027 2027 2027 
2027 2027 2027 2027 2027 2027 2027 2027 2027 
2027 2027 2027 2027 2027 2027 2027 2027 2027 
2027 2027 2027 2027 2027 2027 2027 2027 2027 
2027 2027 2027 2027 2027 2027 2027 2027 2027 
2027 2027 2027 2027 2027 2027 2027 2027 2027 
2027 2027 2027 2027 2027 2027 2027 2027 2027 
2027 2027 2027 2027 2027 2027 2027 2027 2027 
2027 2027 2027 2027 2027 2027 2027 2027 2027 
2027 2027 2027 2027 2027 2027 2027 2027 2027 
2027 2027 2027 2027 2027 2027 2027 2027 2027 
2027 2027 2027 2027 2027 2027 2027 2027 2027 
2027 2027 2027 2027 2027 2027 2027 2027 2027 
2027 2027 2027 2027 2027 2027 2027 2027 2027 
2027 2027 2027 2027 2027 2027 2027 2027 2027 
2027 2027 2027 2027 2027 2027 2027 2027 2027 
2027 2027 2027 2027 2027 2027 2027 2027 2027 
2027 2027 2027 2027 2027 2027 2027 2027 2027 
2027 2027 2027 2027 2027 2027 2027 2027 2027 
2027 2027 2027 2027 2027 2027 2027 2027 2027 
2027 2027 2027 2027 2027 2027 2027 2027 2027 
2027 2027 2027 2027 2027 2027 2027 2027 2027 
2027 2027 2027 2027 2027 2027 2027 2027 2027 
2027 2027 2027 2027 2027 2027 2027 2027 2027 
2027 2027 2027 2027 2027 2027 2027 2027 2027 
2027 2027 2027 2027 2027 2027 2027 2027 2027 
2027 2027 2027 2027 2027 2027 2027 2027 2027 
2027 2027 2027 2027 2027 2027 2027 2027 2027 
2027 2027 2027 2027 2027 2027 2027 2027 2027 
2027 2027 2027 2027 2027 2027 2027 2027 2027 
2027 2027 2027 2027 2027 2027 2027 2027 2027 
2027 2027 2027 2027 2027 2027 2027 2027 2027 
2027 2027 2027 2027 2027 2027 2027 2027 2027 
2027 2027 2027 2027 2027 2027 2027 2027 2027 
2027 2027 2027 2027 2027 2027 2027 2027 2027 
2027 2027 2027 2027 2027 2027 2027 2027 2027 
2027 2027 2027 2027 2027 2027 2027 2027 2027 
2027 2027 2027 2027 2027 2027 2027 2027 2027 
2027 2027 2027 2027 2027 2027 2027 2027 2027 
2027 2027 2027 2027 2027 2027 2027 2027 2027 
2027 2027 2027 2027 2027 2027 2027 2027 2027 
2027 2027 2027 2027 2027 2027 2027 2027 2027 
2027 2027 2027 2027 2027 2027 2027 2027 2027 
2027 2027 2027 2027 2027 2027 2027 2027 2027 
2027 2027 2027 2027 2027 2027 2027 2027 2027 
2027 2027 2027 2027 2027 2027 2027 2027 2027 
2027 2027 2027 2027 2027 2027 2027 2027 2027 
2027 2027 2027 2027 2027 2027 2027 2027 2027 
2027 2027 2027 2027 2027 2027 2027 2027 2027 
2027 2027 2027 2027 2027 2027 2027 2027 2027 
2027 2027 2027 2027 2027 2027 2027 2027 2027 
2027 2027 2027 2027 2027 2027 2027 2027 2027 
2027 2027 2027 2027 2027 2027 2027 2027 2027 
2027 2027 2027 2027 2027 2027 2027 2027 2027 
2027 2027 2027 2027 2027 2027 2027 2027 2027 
2027 2027 2027 2027 2027 2027 2027 2027 2027 
2027 2027 2027 2027 2027 2027 2027 2027 2027 
2027 2027 2027 2027 2027 2027 2027 2027 2027 
2027 2027 2027 2027 2027 2027 2027 2027 2027 
2027 2027 2027 2027 2027 2027 2027 2027 2027 
2027 2027 2027 2027 2027 2027 2027 2027 2027 
2027 2027 2027 2027 2027 2027 2027 2027 2027 
2027 2027 2027 2027 2027 2027 2027 2027 2027 
2027 2027 2027 2027 2027 2027 2027 2027 2027 
2027 2027 2027 2027 2027 2027 2027 2027 2027 
2027 2027 2027 2027 2027 2027 2027 2027 2027 
2027 2027 2027 2027 2027 2027 2027 2027 2027 
2027 2027 2027 2027 2027 2027 2027 2027 2027 
2027 2027 2027 2027 2027 2027 2027 2027 2027 
2027 2027 2027 2027 2027 2027 2027 2027 2027 
2027 2027 2027 2027 2027 2027 2027 2027 2027 
2027 2027 2027 2027 2027 2027 2027 2027 2027 
2027 2027 2027 2027 2027 2027 2027 2027 2027 
2027 2027 2027 2027 2027 2027 2027 2027 2027 
2027 2027 2027 2027 2027 2027 2027 2027 2027 
2027 2027 2027 2027 2027 2027 2027 2027 2027 
2027 2027 2027 2027 2027 2027 2027 2027 2027 
2027 2027 2027 2027 2027 2027 2027 2027 2027 
2027 2027 2027 2027 2027 2027 2027 2027 2027 
2027 2027 2027 2027 2027 2027 2027 2027 2027 
2027 2027 2027 2027 2027 2027 2027 2027 2027 
2027 2027 2027 2027 2027 2027 2027 2027 2027 
2027 2027 2027 2027 2027 2027 2027 2027 2027 
2027 2027 2027 2027 2027 2027 2027 2027 2027 
2027 2027 2027 2027 2027 2027 2027 2027 2027 
2027 2027 2027 2027 2027 2027 2027 2027 2027 
2027 2027 2027 2027 2027 2027 2027 2027 2027 
2027 2027 2027 2027 2027 2027 2027 2027 2027 
2027 2027 2027 2027 2027 2027 2027 2027 2027 
2027 2027 2027 2027 2027 2027 2027 2027 2027 
2027 2027 2027 2027 2027 2027 2027 2027 2027 
2027 2027 2027 2027 2027 2027 2027 2027 2027 
2027 2027 2027 2027 2027 2027 2027 2027 2027 
2027 2027 2027 2027 2027 2027 2027 2027 2027 
2027 2027 2027 2027 2027 2027 2027 2027 2027 
2027 2027 2027 2027 2027 2027 2027 2027 2027 
2027 2027 2027 2027 2027 2027 2027 2027 2027 
2027 2027 2027 2027 2027 2027 2027 2027 2027 
2027 2027 2027 2027 2027 2027 2027 2027 2027 
2027 2027 2027 2027 2027 2027 2027 2027 2027 
2027 2027 2027 2027 2027 2027 2027 2027 2027 
2027 2027 2027 2027 2027 2027 2027 2027 2027 
2027 2027 2027 2027 2027 2027 2027 2027 2027 
2027 2027 2027 2027 2027 2027 2027 2027 2027 
2027 2027 2027 2027 2027 2027 2027 2027 2027 
2027 2027 2027 2027 2027 2027 2027 2027 2027 
2027 2027 2027 2027 2027 2027 2027 2027 2027 
2027 2027 2027 2027 2027 2027 2027 2027 2027 
2027 2027 2027 2027 2027 2027 2027 2027 2027 
2027 2027 2027 2027 2027 2027 2027 2027 2027 
2027 2027 2027 2027 2027 2027 2027 2027 2027 
2027 2027 2027 2027 2027 2027 2027 2027 2027 
2027 2027 2027 2027 2027 2027 2027 2027 2027 
2027 2027 2027 2027 2027 2027 2027 2027 2027 
2027 2027 2027 2027 2027 2027 2027 2027 2027 
2027 2027 2027 2027 2027 2027 2027 2027 2027 
2027 2027 2027 2027 2027 2027 2027 2027 2027 
2027 2027 2027 2027 2027 2027 2027 2027 2027 
2027 2027 2027 2027 2027 2027 2027 2027 2027 
2027 2027 2027 2027 2027 2027 2027 2027 2027 
2027 2027 2027 2027 2027 2027 2027 2027 2027 
2027 2027 2027 2027 2027 2027 2027 2027 2027 
2027 2027 2027 2027 2027 2027 2027 2027 2027 
2027 2027 2027 2027 2027 2027 2027 2027 2027 
2027 2027 2027 2027 2027 2027 2027 2027 2027 
2027 2027 2027 2027 2027 2027 2027 2027 2027 
2027 2027 2027 2027 2027 2027 2027 2027 2027 
2027 2027 2027 2027 2027 2027 2027 2027 2027 
2027 2027 2027 2027 2027 2027 2027 2027 2027 
2027 2027 2027 2027 2027 2027 2027 2027 2027 
2027 2027 2027 2027 2027 2027 2027 2027 2027 
2027 2027 2027 2027 2027 2027 2027 2027 2027 
2027 2027 2027 2027 2027 2027 2027 2027 2027 
2027 2027 2027 2027 2027 2027 2027 2027 2027 
2027 2027 2027 2027 2027 2027 2027 2027 2027 
2027 2027 2027 2027 2027 2027 2027 2027 2027 
2027 2027 2027 2027 2027 2027 2027 2027 2027 
2027 2027 2027 2027 2027 2027 2027 2027 2027 
2027 2027 2027 2027 2027 2027 2027 2027 2027 
2027 2027 2027 2027 2027 2027 2027 2027 2027 
2027 2027 2027 2027 2027 2027 2027 2027 2027 
2027 2027 2027 2027 2027 2027 2027 2027 2027 