# vtk DataFile Version 4.2
vtk output
ASCII
DATASET POLYDATA
POINTS 27858 float
-4.95081 11.3834 88.8156 -5.39495 11.8908 88.435 -5.73568 11.2109 88.508 
-4.0651 11.2577 88.811 -4.636 11.9656 88.5017 -3.85019 11.6699 88.4412 
-5.29747 10.4192 88.9166 -6.00128 10.4315 88.581 -4.25553 10.5028 89.0244 
-3.40521 11.0621 88.5782 -3.3993 10.4178 88.8186 -2.9121 10.5414 88.4418 
-13.0049 9.38195 88.8018 -13.4389 9.85064 88.4459 -13.7809 9.20001 88.5213 
-12.0538 9.38905 88.8651 -12.6132 10.0166 88.5141 -11.0499 9.37023 88.8821 
-11.6071 10.0325 88.5293 -10.0462 9.35495 88.8898 -10.5709 10.0225 88.5341 
-9.11278 9.21748 88.8181 -9.37739 9.97664 88.3213 -8.69503 9.51731 88.3854 
-6.1215 9.45436 88.8426 -6.34036 9.99786 88.4943 -6.81171 9.47615 88.4789 
-5.14617 9.36292 89.0227 -4.29654 9.48868 89.0442 -3.40619 9.48762 88.8906 
-2.74317 9.71257 88.5087 -13.207 8.51085 88.8939 -13.8738 8.25374 88.5389 
-12.3205 8.53704 89.0118 -11.3207 8.51349 89.0085 -10.3199 8.51255 89.0168 
-9.3236 8.48695 89.0173 -8.39605 9.09813 88.6004 -8.24652 8.47182 88.9004 
-7.05308 8.51895 88.8692 -7.63457 9.01705 88.511 -6.14778 8.33049 88.9865 
-5.2813 8.48348 89.0172 -4.26361 8.45338 89.0293 -3.38518 8.45242 88.873 
-2.7271 8.71349 88.5201 -13.212 7.48995 88.8969 -13.8454 7.23185 88.5185 
-12.3333 7.51607 89.0359 -11.3306 7.49629 89.0167 -10.3201 7.49639 88.9922 
-9.32495 7.50062 88.9986 -8.32227 7.48402 88.9984 -7.30122 7.46673 88.9875 
-6.28378 7.45172 88.9989 -5.27047 7.46754 89.0248 -4.26161 7.4478 89.0236 
-3.37443 7.43714 88.8768 -2.71739 7.71669 88.5063 -13.1935 6.54166 88.813 
-13.6594 6.36459 88.4666 -12.3225 6.49376 89.0141 -11.2747 6.43886 89.0333 
-10.239 6.43603 89.0067 -9.23946 6.44503 88.9914 -8.24727 6.44516 88.9955 
-7.25161 6.42677 89.0058 -6.25346 6.42377 89.0163 -5.24916 6.44071 89.0216 
-4.40279 6.5854 89.0228 -3.57328 6.36691 88.846 -2.79891 6.74929 88.5186 
-13.1487 5.85733 88.5964 -12.7055 5.25983 88.4631 -12.4644 5.71017 88.8097 
-11.3588 5.4337 88.9238 -10.254 5.41474 89.0352 -9.24404 5.39673 89.037 
-8.25066 5.40137 89.026 -7.25599 5.39012 89.0296 -6.25274 5.39195 89.0346 
-5.3932 5.55516 89.0294 -4.43658 5.44098 88.8758 -3.61725 5.34995 88.3465 
-3.06954 5.99247 88.4668 -11.9493 4.9671 88.5308 -11.1885 4.72785 88.6239 
-10.8749 4.31799 88.3951 -10.4723 4.65915 88.8429 -9.53291 4.53869 88.9211 
-8.53523 4.51447 88.9259 -7.54373 4.51203 88.9184 -6.53318 4.5 88.9205 
-5.41434 4.60795 88.8755 -4.66385 4.51084 88.6038 -4.17901 4.78255 88.3812 
-10.1234 4.07904 88.3145 -9.03449 4.02034 88.4322 -8.02736 4.01536 88.4261 
-7.02995 4.00355 88.4249 -6.00963 3.99363 88.4042 -5.06896 4.06155 88.2608 
-12.0212 1.43493 88.8623 -12.2365 1.84434 88.2386 -12.6423 1.28526 88.5704 
-11.068 1.41124 88.9515 -11.3551 1.93699 88.4296 -10.1149 1.26666 88.8609 
-10.3899 1.85461 88.415 -9.69703 1.61942 88.4057 -12.2346 0.521027 88.9298 
-12.8774 0.394776 88.4554 -11.3371 0.541155 89.0935 -10.3021 0.483801 89.0636 
-9.43569 1.1048 88.6218 -9.44039 0.429872 88.8431 -8.95572 0.581487 88.4741 
-12.2207 -0.453571 88.8435 -12.7592 -0.407524 88.5357 -11.3139 -0.515011 89.0778 
-10.2946 -0.550914 89.0791 -9.41063 -0.530279 88.8967 -8.79806 -0.279806 88.515 
-12.4352 -1.01085 88.4322 -11.8833 -1.82806 88.5037 -11.3693 -1.49117 88.9325 
-10.2691 -1.59349 89.0712 -9.38899 -1.56471 88.9046 -8.7676 -1.28681 88.5266 
-11.2764 -2.29783 88.7869 -11.5886 -2.56383 88.4319 -10.3778 -2.54903 88.9343 
-9.41208 -2.56903 88.8872 -8.77595 -2.30467 88.5246 -15.2781 -3.514 88.7163 
-15.5461 -3.29467 88.3431 -15.5559 -3.49834 88.6419 -15.1442 -3.5753 88.2891 
-10.9119 -2.96832 88.5494 -10.1495 -3.25134 88.6372 -9.67321 -3.7601 88.4461 
-9.50929 -3.33788 88.747 -8.75808 -3.44261 88.295 -15.5173 -3.78879 88.4265 
-14.1838 -4.22466 88.2597 -14.7153 -4.82957 88.5671 -14.0434 -4.53697 88.779 
-13.5417 -4.71333 88.7562 -13.5143 -4.22504 88.4997 -12.9268 -4.30692 88.3061 
-9.18847 -3.98139 88.3268 -14.157 -5.56657 88.8891 -15.0136 -5.59377 88.6682 
-13.5479 -5.32709 88.6258 -13.1138 -4.90354 88.4485 -14.9855 -6.45826 88.8349 
-15.5766 -6.04818 88.3421 -15.6249 -6.84379 88.2497 -14.1233 -6.71795 89.0583 
-13.4522 -5.93693 88.6181 -13.4407 -6.61648 88.8464 -12.9579 -6.46958 88.433 
-15.1919 -7.17706 88.6386 -14.8869 -7.59267 88.5834 -14.5171 -7.31771 88.8784 
-13.616 -7.43237 88.8531 -12.8525 -7.24365 88.5135 -14.3146 -8.0045 88.4091 
-13.1932 -7.93179 88.4763 -5.11511 14.2896 87.8175 -5.42325 14.8631 87.4405 
-5.89269 14.3525 87.5807 -4.09237 14.263 87.7795 -4.63566 14.9586 87.4775 
-3.87575 14.6835 87.4207 -5.98565 13.5546 87.8371 -6.48631 13.9196 87.464 
-6.76462 13.1709 87.4895 -5.13036 13.3883 88.0173 -4.25546 13.5047 87.9985 
-3.41515 14.0877 87.5513 -3.21235 13.378 87.8185 -2.8258 13.6381 87.4405 
-6.31268 12.6728 87.8268 -6.80139 12.1969 87.3158 -5.44889 12.5694 88.1255 
-4.25944 12.4786 88.1491 -3.26303 12.4693 88.0026 -2.39772 13.0335 87.5669 
-2.39125 12.3893 87.7843 -1.89146 12.5108 87.4315 -13.1578 11.2746 87.8817 
-13.4926 11.9434 87.3723 -13.8665 11.3548 87.5127 -12.027 11.3614 87.8909 
-12.4318 12.0221 87.4382 -11.0501 11.2593 87.8055 -11.3773 11.8082 87.39 
-10.6886 11.5773 87.3348 -6.13207 11.7956 87.9819 -6.61401 11.288 87.4675 
-3.14523 11.4168 88.1843 -2.37369 11.4453 87.8657 -1.75706 11.6721 87.4707 
-14.0516 10.7083 87.8281 -14.3238 10.9379 87.1925 -14.5962 10.2898 87.5192 
-13.3463 10.4109 88.1668 -12.3338 10.6479 88.1797 -11.2996 10.6577 88.1741 
-10.1693 11.1431 87.4557 -10.1634 10.6262 88.0309 -9.35538 10.4771 87.9055 
-9.48903 10.7569 87.5438 -8.87215 10.3784 87.3562 -6.42501 10.5379 88.0858 
-6.89504 10.4893 87.3835 -2.18759 10.2897 87.9992 -1.68595 10.7429 87.4738 
-14.1848 9.81116 88.0318 -14.8991 9.39762 87.4004 -7.97232 9.42386 88.0916 
-8.38981 9.85346 87.7148 -7.16481 9.68588 87.9723 -7.55703 9.9594 87.2999 
-2.12542 9.17411 88.1537 -1.2044 10.0727 87.3249 -1.39119 9.38346 87.7899 
-0.736277 9.43036 87.3641 -14.3884 8.77689 88.0228 -14.8801 8.20714 87.3243 
-2.23971 8.28034 88.1763 -1.59418 8.40589 87.8357 -0.741796 8.56081 87.3186 
-14.3728 7.7545 88.0322 -14.6707 7.31277 87.5164 -2.12981 7.34465 88.0126 
-1.57746 7.53994 87.5687 -1.17569 7.90556 87.3686 -14.2072 6.5866 88.0387 
-14.6788 6.45856 87.3979 -2.41703 6.13667 88.0298 -1.72982 6.52009 87.4213 
-14.1853 5.52411 87.8507 -14.7511 5.68458 87.3703 -13.4242 5.47259 88.2208 
-2.99427 5.5428 88.1011 -2.51194 5.40002 87.7672 -2.01686 5.64467 87.5168 
-14.4385 4.91585 87.4472 -13.9115 4.28234 87.4232 -13.5298 4.64762 87.8677 
-12.5807 4.57565 88.0402 -11.6028 4.38911 88.1216 -4.43617 4.29796 88.0997 
-3.92249 4.59217 87.7192 -3.10396 4.98184 87.3968 -2.28223 5.17885 87.2729 
-13.1331 4.06209 87.3171 -12.06 4.04685 87.4076 -11.029 4.02065 87.5819 
-10.1615 3.92023 87.3746 -9.3188 3.90592 87.5362 -8.30993 3.90267 87.5433 
-7.30438 3.90474 87.5255 -6.29079 3.88706 87.524 -5.274 3.901 87.4788 
-4.43998 4.10881 87.4429 -12.368 1.91746 87.2343 -12.9511 1.37031 87.8658 
-11.5174 2.05902 87.6917 -10.4641 2.15415 87.42 -8.9317 1.35338 88.0866 
-9.33215 1.95532 87.5918 -8.23244 1.3054 87.7591 -8.30309 1.84879 87.371 
-7.73679 1.55098 87.3223 -13.32 0.612086 87.8611 -13.443 1.12878 87.3698 
-13.6373 0.445657 87.3241 -8.38641 0.379342 88.0262 -7.75634 0.769703 87.4964 
-13.2022 -0.27043 88.0004 -13.6344 -0.600616 87.15 -8.12589 -0.837844 88.0087 
-7.73736 -0.221773 87.4997 -13.0458 -1.0711 87.678 -12.4581 -1.51249 88.0009 
-12.8468 -1.83972 87.4564 -8.16734 -1.82466 88.1732 -7.2644 -0.929607 87.3031 
-7.24966 -1.6692 87.8069 -6.73766 -1.46387 87.2892 -12.1504 -2.41707 87.9608 
-12.7437 -2.79405 87.3962 -8.18478 -2.78881 88.1367 -7.33659 -2.53255 88.0241 
-6.25778 -1.91063 87.2886 -6.26953 -2.62797 87.8319 -5.73543 -2.45563 87.358 
-16.0367 -3.53034 88.1098 -16.2441 -3.20613 87.4369 -16.5126 -3.62126 87.2686 
-15.502 -3.0214 87.4764 -14.8286 -3.5422 87.5772 -12.3123 -3.6631 87.8496 
-12.8378 -3.44864 87.4192 -11.3287 -3.44253 88.0995 -10.332 -3.69428 88.2311 
-8.18091 -3.43109 87.9519 -7.4098 -3.47665 87.8626 -6.31607 -3.49448 88.0126 
-5.46607 -2.97721 87.5801 -5.24694 -3.65309 87.8753 -4.87467 -3.39535 87.4773 
-16.0686 -4.02262 87.6867 -15.222 -4.36913 88.0458 -16.038 -4.6035 87.3713 
-14.3295 -3.95859 87.6561 -13.3568 -3.86644 87.7146 -12.4744 -4.71553 88.0984 
-11.612 -4.57244 87.8243 -10.5901 -4.38699 87.8247 -9.61357 -4.38721 87.9112 
-8.82286 -4.36817 87.7087 -8.04063 -4.01843 87.5536 -7.18235 -4.13098 87.4959 
-6.82986 -4.79006 87.4306 -6.33536 -4.42246 87.872 -5.27152 -4.50319 88.0526 
-4.34831 -3.8824 87.6138 -4.27793 -4.43012 87.9002 -3.5293 -4.75953 87.7614 
-3.37552 -4.02649 87.3472 -2.84077 -4.45444 87.3745 -16.0413 -5.49195 87.7884 
-16.3605 -5.08697 87.1199 -16.5749 -5.63162 87.228 -15.3492 -5.28682 88.3253 
-12.9417 -5.64007 88.2405 -12.194 -5.525 87.8156 -11.6778 -5.43322 87.4777 
-10.9946 -5.11856 87.4095 -10.0272 -5.03814 87.3832 -9.19686 -4.91531 87.3335 
-6.23649 -5.60106 87.8954 -6.9028 -5.56948 87.5064 -5.25727 -5.48406 88.0497 
-4.26203 -5.40321 87.9285 -3.58943 -5.41908 87.6308 -3.08785 -4.93743 87.4907 
-16.4165 -5.97168 87.3873 -16.0569 -6.40348 87.5334 -12.2389 -6.68734 87.96 
-11.7662 -6.19352 87.4092 -7.04422 -6.59537 87.874 -7.40141 -6.07302 87.364 
-7.81728 -6.70309 87.5469 -6.10458 -6.68837 88.0607 -5.23904 -6.51943 88.087 
-4.16478 -6.59688 87.9213 -3.59628 -6.53874 87.3055 -15.3024 -7.55054 88.1884 
-15.6705 -7.24471 87.3778 -12.2783 -7.89618 88.157 -11.4059 -6.85811 87.4919 
-11.1452 -7.56789 87.88 -9.97756 -7.69427 87.8776 -10.5567 -7.03229 87.4268 
-8.98894 -7.71567 87.9079 -9.55067 -7.05147 87.4424 -7.97109 -7.51777 87.9427 
-8.58512 -6.98796 87.479 -7.26871 -7.5548 88.0679 -6.55032 -7.62763 87.9554 
-5.36202 -7.5786 87.9563 -4.41052 -7.41436 88.0536 -3.35874 -7.18157 87.5568 
-3.52131 -7.70478 87.7744 -3.06302 -7.61348 87.4891 -15.1296 -8.02236 87.6903 
-14.4527 -8.54417 87.8417 -14.7633 -8.48567 87.1118 -13.3007 -8.63623 88.03 
-12.1346 -8.81368 88.0612 -11.2431 -8.59519 88.0531 -10.3795 -8.38333 88.0522 
[...]
CELL_DATA 55792
SCALARS scalars float
LOOKUP_TABLE default
2028 2028 2028 2028 2028 2028 2028 2028 2028 
2028 2028 2028 2028 2028 2028 2028 2028 2028 
2028 2028 2028 2028 2028 2028 2028 2028 2028 
2028 2028 2028 2028 2028 2028 2028 2028 2028 
2028 2028 2028 2028 2028 2028 2028 2028 2028 
2028 2028 2028 2028 2028 2028 2028 2028 2028 
2028 2028 2028 2028 2028 2028 2028 2028 2028 
2028 2028 2028 2028 2028 2028 2028 2028 2028 
2028 2028 2028 2028 2028 2028 2028 2028 2028 
2028 2028 2028 2028 2028 2028 2028 2028 2028 
2028 2028 2028 2028 2028 2028 2028 2028 2028 
2028 2028 2028 2028 2028 2028 2028 2028 2028 
2028 2028 2028 2028 2028 2028 2028 2028 2028 
2028 2028 2028 2028 2028 2028 2028 2028 2028 
2028 2028 2028 2028 2028 2028 2028 2028 2028 
2028 2028 2028 2028 2028 2028 2028 2028 2028 
2028 2028 2028 2028 2028 2028 2028 2028 2028 
2028 2028 2028 2028 2028 2028 2028 2028 2028 
2028 2028 2028 2028 2028 2028 2028 2028 2028 
2028 2028 2028 2028 2028 2028 2028 2028 2028 
2028 2028 2028 2028 2028 2028 2028 2028 2028 
2028 2028 2028 2028 2028 2028 2028 2028 2028 
2028 2028 2028 2028 2028 2028 2028 2028 2028 
2028 2028 2028 2028 2028 2028 2028 2028 2028 
2028 2028 2028 2028 2028 2028 2028 2028 2028 
2028 2028 2028 2028 2028 2028 2028 2028 2028 
2028 2028 2028 2028 2028 2028 2028 2028 2028 
2028 2028 2028 2028 2028 2028 2028 2028 2028 
2028 2028 2028 2028 2028 2028 2028 2028 2028 
2028 2028 2028 2028 2028 2028 2028 2028 2028 
2028 2028 2028 2028 2028 2028 2028 2028 2028 
2028 2028 2028 2028 2028 2028 2028 2028 2028 
2028 2028 2028 2028 2028 2028 2028 2028 2028 
2028 2028 2028 2028 2028 2028 2028 2028 2028 
2028 2028 2028 2028 2028 2028 2028 2028 2028 
2028 2028 2028 2028 2028 2028 2028 2028 2028 
2028 2028 2028 2028 2028 2028 2028 2028 2028 
2028 2028 2028 2028 2028 2028 2028 2028 2028 
2028 2028 2028 2028 2028 2028 2028 2028 2028 
2028 2028 2028 2028 2028 2028 2028 2028 2028 
2028 2028 2028 2028 2028 2028 2028 2028 2028 
2028 2028 2028 2028 2028 2028 2028 2028 2028 
2028 2028 2028 2028 2028 2028 2028 2028 2028 
2028 2028 2028 2028 2028 2028 2028 2028 2028 
2028 2028 2028 2028 2028 2028 2028 2028 2028 
2028 2028 2028 2028 2028 2028 2028 2028 2028 
2028 2028 2028 2028 2028 2028 2028 2028 2028 
2028 2028 2028 2028 2028 2028 2028 2028 2028 
2028 2028 2028 2028 2028 2028 2028 2028 2028 
2028 2028 2028 2028 2028 2028 2028 2028 2028 
2028 2028 2028 2028 2028 2028 2028 2028 2028 
2028 2028 2028 2028 2028 2028 2028 2028 2028 
2028 2028 2028 2028 2028 2028 2028 2028 2028 
2028 2028 2028 2028 2028 2028 2028 2028 2028 
2028 2028 2028 2028 2028 2028 2028 2028 2028 
2028 2028 2028 2028 2028 2028 2028 2028 2028 
2028 2028 2028 2028 2028 2028 2028 2028 2028 
2028 2028 2028 2028 2028 2028 2028 2028 2028 
2028 2028 2028 2028 2028 2028 2028 2028 2028 
2028 2028 2028 2028 2028 2028 2028 2028 2028 
2028 2028 2028 2028 2028 2028 2028 2028 2028 
2028 2028 2028 2028 2028 2028 2028 2028 2028 
2028 2028 2028 2028 2028 2028 2028 2028 2028 
2028 2028 2028 2028 2028 2028 2028 2028 2028 
2028 2028 2028 2028 2028 2028 2028 2028 2028 
2028 2028 2028 2028 2028 2028 2028 2028 2028 
2028 2028 2028 2028 2028 2028 2028 2028 2028 
2028 2028 2028 2028 2028 2028 2028 2028 2028 
2028 2028 2028 2028 2028 2028 2028 2028 2028 
2028 2028 2028 2028 2028 2028 2028 2028 2028 
2028 2028 2028 2028 2028 2028 2028 2028 2028 
2028 2028 2028 2028 2028 2028 2028 2028 2028 
2028 2028 2028 2028 2028 2028 2028 2028 2028 
2028 2028 2028 2028 2028 2028 2028 2028 2028 
2028 2028 2028 2028 2028 2028 2028 2028 2028 
2028 2028 2028 2028 2028 2028 2028 2028 2028 
2028 2028 2028 2028 2028 2028 2028 2028 2028 
2028 2028 2028 2028 2028 2028 2028 2028 2028 
2028 2028 2028 2028 2028 2028 2028 2028 2028 
2028 2028 2028 2028 2028 2028 2028 2028 2028 
2028 2028 2028 2028 2028 2028 2028 2028 2028 
2028 2028 2028 2028 2028 2028 2028 2028 2028 
2028 2028 2028 2028 2028 2028 2028 2028 2028 
2028 2028 2028 2028 2028 2028 2028 2028 2028 
2028 2028 2028 2028 2028 2028 2028 2028 2028 
2028 2028 2028 2028 2028 2028 2028 2028 2028 
2028 2028 2028 2028 2028 2028 2028 2028 2028 
2028 2028 2028 2028 2028 2028 2028 2028 2028 
2028 2028 2028 2028 2028 2028 2028 2028 2028 
2028 2028 2028 2028 2028 2028 2028 2028 2028 
2028 2028 2028 2028 2028 2028 2028 2028 2028 
2028 2028 2028 2028 2028 2028 2028 2028 2028 
2028 2028 2028 2028 2028 2028 2028 2028 2028 
2028 2028 2028 2028 2028 2028 2028 2028 2028 
2028 2028 2028 2028 2028 2028 2028 2028 2028 
2028 2028 2028 2028 2028 2028 2028 2028 2028 
2028 2028 2028 2028 2028 2028 2028 2028 2028 
2028 2028 2028 2028 2028 2028 2028 2028 2028 
2028 2028 2028 2028 2028 2028 2028 2028 2028 
2028 2028 2028 2028 2028 2028 2028 2028 2028 
2028 2028 2028 2028 2028 2028 2028 2028 2028 
2028 2028 2028 2028 2028 2028 2028 2028 2028 
2028 2028 2028 2028 2028 2028 2028 2028 2028 
2028 2028 2028 2028 2028 2028 2028 2028 2028 
2028 2028 2028 2028 2028 2028 2028 2028 2028 
2028 2028 2028 2028 2028 2028 2028 2028 2028 
2028 2028 2028 2028 2028 2028 2028 2028 2028 
2028 2028 2028 2028 2028 2028 2028 2028 2028 
2028 2028 2028 2028 2028 2028 2028 2028 2028 
2028 2028 2028 2028 2028 2028 2028 2028 2028 
2028 2028 2028 2028 2028 2028 2028 2028 2028 
2028 2028 2028 2028 2028 2028 2028 2028 2028 
2028 2028 2028 2028 2028 2028 2028 2028 2028 
2028 2028 2028 2028 2028 2028 2028 2028 2028 
2028 2028 2028 2028 2028 2028 2028 2028 2028 
2028 2028 2028 2028 2028 2028 2028 2028 2028 
2028 2028 2028 2028 2028 2028 2028 2028 2028 
2028 2028 2028 2028 2028 2028 2028 2028 2028 
2028 2028 2028 2028 2028 2028 2028 2028 2028 
2028 2028 2028 2028 2028 2028 2028 2028 2028 
2028 2028 2028 2028 2028 2028 2028 2028 2028 
2028 2028 2028 2028 2028 2028 2028 2028 2028 
2028 2028 2028 2028 2028 2028 2028 2028 2028 
2028 2028 2028 2028 2028 2028 2028 2028 2028 
2028 2028 2028 2028 2028 2028 2028 2028 2028 
2028 2028 2028 2028 2028 2028 2028 2028 2028 
2028 2028 2028 2028 2028 2028 2028 2028 2028 
2028 2028 2028 2028 2028 2028 2028 2028 2028 
2028 2028 2028 2028 2028 2028 2028 2028 2028 
2028 2028 2028 2028 2028 2028 2028 2028 2028 
2028 2028 2028 2028 2028 2028 2028 2028 2028 
2028 2028 2028 2028 2028 2028 2028 2028 2028 
2028 2028 2028 2028 2028 2028 2028 2028 2028 
2028 2028 2028 2028 2028 2028 2028 2028 2028 
2028 2028 2028 2028 2028 2028 2028 2028 2028 
2028 2028 2028 2028 2028 2028 2028 2028 2028 
2028 2028 2028 2028 2028 2028 2028 2028 2028 
2028 2028 2028 2028 2028 2028 2028 2028 2028 
2028 2028 2028 2028 2028 2028 2028 2028 2028 
2028 2028 2028 2028 2028 2028 2028 2028 2028 
2028 2028 2028 2028 2028 2028 2028 2028 2028 
2028 2028 2028 2028 2028 2028 2028 2028 2028 
2028 2028 2028 2028 2028 2028 2028 2028 2028 
2028 2028 2028 2028 2028 2028 2028 2028 2028 
2028 2028 2028 2028 2028 2028 2028 2028 2028 
2028 2028 2028 2028 2028 2028 2028 2028 2028 
2028 2028 2028 2028 2028 2028 2028 2028 2028 
2028 2028 2028 2028 2028 2028 2028 2028 2028 
2028 2028 2028 2028 2028 2028 2028 2028 2028 
2028 2028 2028 2028 2028 2028 2028 2028 2028 
2028 2028 2028 2028 2028 2028 2028 2028 2028 
2028 2028 2028 2028 2028 2028 2028 2028 2028 
2028 2028 2028 2028 2028 2028 2028 2028 2028 
2028 2028 2028 2028 2028 2028 2028 2028 2028 
2028 2028 2028 2028 2028 2028 2028 2028 2028 
2028 2028 2028 2028 2028 2028 2028 2028 2028 
2028 2028 2028 2028 2028 2028 2028 2028 2028 
2028 2028 2028 2028 2028 2028 2028 2028 2028 
2028 2028 2028 2028 2028 2028 2028 2028 2028 
2028 2028 2028 2028 2028 2028 2028 2028 2028 
2028 2028 2028 2028 2028 2028 2028 2028 2028 
2028 2028 2028 2028 2028 2028 2028 2028 2028 
2028 2028 2028 2028 2028 2028 2028 2028 2028 
2028 2028 2028 2028 2028 2028 2028 2028 2028 
2028 2028 2028 2028 2028 2028 2028 2028 2028 
2028 2028 2028 2028 2028 2028 2028 2028 2028 
2028 2028 2028 2028 2028 2028 2028 2028 2028 
2028 2028 2028 2028 2028 2028 2028 2028 2028 
2028 2028 2028 2028 2028 2028 2028 2028 2028 
2028 2028 2028 2028 2028 2028 2028 2028 2028 
2028 2028 2028 2028 2028 2028 2028 2028 2028 
2028 2028 2028 2028 2028 2028 2028 2028 2028 
2028 2028 2028 2028 2028 2028 2028 2028 2028 
2028 2028 2028 2028 2028 2028 2028 2028 2028 
2028 2028 2028 2028 2028 2028 2028 2028 2028 
2028 2028 2028 2028 2028 2028 2028 2028 2028 
2028 2028 2028 2028 2028 2028 2028 2028 2028 
2028 2028 2028 2028 2028 2028 2028 2028 2028 
2028 2028 2028 2028 2028 2028 2028 2028 2028 
2028 2028 2028 2028 2028 2028 2028 2028 2028 
2028 2028 2028 2028 2028 2028 2028 2028 2028 
2028 2028 2028 2028 2028 2028 2028 2028 2028 
2028 2028 2028 2028 2028 2028 2028 2028 2028 
2028 2028 2028 2028 2028 2028 2028 2028 2028 
2028 2028 2028 2028 2028 2028 2028 2028 2028 
2028 2028 2028 2028 2028 2028 2028 2028 2028 
2028 2028 2028 2028 2028 2028 2028 2028 2028 
2028 2028 2028 2028 2028 2028 2028 2028 2028 
2028 2028 2028 2028 2028 2028 2028 2028 2028 
2028 2028 2028 2028 2028 2028 2028 2028 2028 
2028 2028 2028 2028 2028 2028 2028 2028 2028 
2028 2028 2028 2028 2028 2028 2028 2028 2028 
2028 2028 2028 2028 2028 2028 2028 2028 2028 
2028 2028 2028 2028 2028 2028 2028 2028 2028 
2028 2028 2028 2028 2028 2028 2028 2028 2028 
2028 2028 2028 2028 2028 2028 2028 2028 2028 
2028 2028 2028 2028 2028 2028 2028 2028 2028 
2028 2028 2028 2028 2028 2028 2028 2028 2028 
2028 2028 2028 2028 2028 2028 2028 2028 2028 
2028 2028 2028 2028 2028 2028 2028 2028 2028 
2028 2028 2028 2028 2028 2028 2028 2028 2028 
2028 2028 2028 2028 2028 2028 2028 2028 2028 
2028 2028 2028 2028 2028 2028 2028 2028 2028 
2028 2028 2028 2028 2028 2028 2028 2028 2028 
2028 2028 2028 2028 2028 2028 2028 2028 2028 
2028 2028 2028 2028 2028 2028 2028 2028 2028 
2028 2028 2028 2028 2028 2028 2028 2028 2028 
2028 2028 2028 2028 2028 2028 2028 2028 2028 
2028 2028 2028 2028 2028 2028 2028 2028 2028 
2028 2028 2028 2028 2028 2028 2028 2028 2028 
2028 2028 2028 2028 2028 2028 2028 2028 2028 
2028 2028 2028 2028 2028 2028 2028 2028 2028 
2028 2028 2028 2028 2028 2028 2028 2028 2028 
2028 2028 2028 2028 2028 2028 2028 2028 2028 
2028 2028 2028 2028 2028 2028 2028 2028 2028 
2028 2028 2028 2028 2028 2028 2028 2028 2028 
2028 2028 2028 2028 2028 2028 2028 2028 2028 
2028 2028 2028 2028 2028 2028 2028 2028 2028 
2028 2028 2028 2028 2028 2028 2028 2028 2028 
2028 2028 2028 2028 2028 2028 2028 2028 2028 
2028 2028 2028 2028 2028 2028 2028 2028 2028 
2028 2028 2028 2028 2028 2028 2028 2028 2028 
2028 2028 2028 2028 2028 2028 2028 2028 2028 
2028 2028 2028 2028 2028 2028 2028 2028 2028 
2028 2028 2028 2028 2028 2028 2028 2028 2028 
2028 2028 2028 2028 2028 2028 2028 2028 2028 
2028 2028 2028 2028 2028 2028 2028 2028 2028 
2028 2028 2028 2028 2028 2028 2028 2028 2028 
2028 2028 2028 2028 2028 2028 2028 2028 2028 
2028 2028 2028 2028 2028 2028 2028 2028 2028 
2028 2028 2028 2028 2028 2028 2028 2028 2028 
2028 2028 2028 2028 2028 2028 2028 2028 2028 
2028 2028 2028 2028 2028 2028 2028 2028 2028 
2028 2028 2028 2028 2028 2028 2028 2028 2028 
2028 2028 2028 2028 2028 2028 2028 2028 2028 
2028 2028 2028 2028 2028 2028 2028 2028 2028 
2028 2028 2028 2028 2028 2028 2028 2028 2028 
2028 2028 2028 2028 2028 2028 2028 2028 2028 
2028 2028 2028 2028 2028 2028 2028 2028 2028 
2028 2028 2028 2028 2028 2028 2028 2028 2028 
2028 2028 2028 2028 2028 2028 2028 2028 2028 
2028 2028 2028 2028 2028 2028 2028 2028 2028 
2028 2028 2028 2028 2028 2028 2028 2028 2028 
2028 2028 2028 2028 2028 2028 2028 2028 2028 
2028 2028 2028 2028 2028 2028 2028 2028 2028 
2028 2028 2028 2028 2028 2028 2028 2028 2028 
2028 2028 2028 2028 2028 2028 2028 2028 2028 
2028 2028 2028 2028 2028 2028 2028 2028 2028 
2028 2028 2028 2028 2028 2028 2028 2028 2028 
2028 2028 2028 2028 2028 2028 2028 2028 2028 
2028 2028 2028 2028 2028 2028 2028 2028 2028 
2028 2028 2028 2028 2028 2028 2028 2028 2028 
2028 2028 2028 2028 2028 2028 2028 2028 2028 
2028 2028 2028 2028 2028 2028 2028 2028 2028 
2028 2028 2028 2028 2028 2028 2028 2028 2028 
2028 2028 2028 2028 2028 2028 2028 2028 2028 
2028 2028 2028 2028 2028 2028 2028 2028 2028 
2028 2028 2028 2028 2028 2028 2028 2028 2028 
2028 2028 2028 2028 2028 2028 2028 2028 2028 
2028 2028 2028 2028 2028 2028 2028 2028 2028 
2028 2028 2028 2028 2028 2028 2028 2028 2028 
2028 2028 2028 2028 2028 2028 2028 2028 2028 
2028 2028 2028 2028 2028 2028 2028 2028 2028 
2028 2028 2028 2028 2028 2028 2028 2028 2028 
2028 2028 2028 2028 2028 2028 2028 2028 2028 
2028 2028 2028 2028 2028 2028 2028 2028 2028 
2028 2028 2028 2028 2028 2028 2028 2028 2028 
2028 2028 2028 2028 2028 2028 2028 2028 2028 
2028 2028 2028 2028 2028 2028 2028 2028 2028 
2028 2028 2028 2028 2028 2028 2028 2028 2028 
2028 2028 2028 2028 2028 2028 2028 2028 2028 
2028 2028 2028 2028 2028 2028 2028 2028 2028 
2028 2028 2028 2028 2028 2028 2028 2028 2028 
2028 2028 2028 2028 2028 2028 2028 2028 2028 
2028 2028 2028 2028 2028 2028 2028 2028 2028 
2028 2028 2028 2028 2028 2028 2028 2028 2028 
2028 2028 2028 2028 2028 2028 2028 2028 2028 
2028 2028 2028 2028 2028 2028 2028 2028 2028 
2028 2028 2028 2028 2028 2028 2028 2028 2028 
2028 2028 2028 2028 2028 2028 2028 2028 2028 
2028 2028 2028 2028 2028 2028 2028 2028 2028 
2028 2028 2028 2028 2028 2028 2028 2028 2028 
2028 2028 2028 2028 2028 2028 2028 2028 2028 
2028 2028 2028 2028 2028 2028 2028 2028 2028 
2028 2028 2028 2028 2028 2028 2028 2028 2028 
2028 2028 2028 2028 2028 2028 2028 2028 2028 
2028 2028 2028 2028 2028 2028 2028 2028 2028 
2028 2028 2028 2028 2028 2028 2028 2028 2028 
2028 2028 2028 2028 2028 2028 2028 2028 2028 
2028 2028 2028 2028 2028 2028 2028 2028 2028 
2028 2028 2028 2028 2028 2028 2028 2028 2028 
2028 2028 2028 2028 2028 2028 2028 2028 2028 
2028 2028 2028 2028 2028 2028 2028 2028 2028 
2028 2028 2028 2028 2028 2028 2028 2028 2028 
2028 2028 2028 2028 2028 2028 2028 2028 2028 
2028 2028 2028 2028 2028 2028 2028 2028 2028 
2028 2028 2028 2028 2028 2028 2028 2028 2028 
2028 2028 2028 2028 2028 2028 2028 2028 2028 
2028 2028 2028 2028 2028 2028 2028 2028 2028 
2028 2028 2028 2028 2028 2028 2028 2028 2028 
2028 2028 2028 2028 2028 2028 2028 2028 2028 
2028 2028 2028 2028 2028 2028 2028 2028 2028 
2028 2028 2028 2028 2028 2028 2028 2028 2028 
2028 2028 2028 2028 2028 2028 2028 2028 2028 
2028 2028 2028 2028 2028 2028 2028 2028 2028 
2028 2028 2028 2028 2028 2028 2028 2028 2028 
2028 2028 2028 2028 2028 2028 2028 2028 2028 
2028 2028 2028 2028 2028 2028 2028 2028 2028 
2028 2028 2028 2028 2028 2028 2028 2028 2028 
2028 2028 2028 2028 2028 2028 2028 2028 2028 
2028 2028 2028 2028 2028 2028 2028 2028 2028 
2028 2028 2028 2028 2028 2028 2028 2028 2028 
2028 2028 2028 2028 2028 2028 2028 2028 2028 
2028 2028 2028 2028 2028 2028 2028 2028 2028 
2028 2028 2028 2028 2028 2028 2028 2028 2028 
2028 2028 2028 2028 2028 2028 2028 2028 2028 
2028 2028 2028 2028 2028 2028 2028 2028 2028 
2028 2028 2028 2028 2028 2028 2028 2028 2028 
2028 2028 2028 2028 2028 2028 2028 2028 2028 
2028 2028 2028 2028 2028 2028 2028 2028 2028 
2028 2028 2028 2028 2028 2028 2028 2028 2028 
2028 2028 2028 2028 2028 2028 2028 2028 2028 
2028 2028 2028 2028 2028 2028 2028 2028 2028 
2028 2028 2028 2028 2028 2028 2028 2028 2028 
2028 2028 2028 2028 2028 2028 2028 2028 2028 
2028 2028 2028 2028 2028 2028 2028 2028 2028 
2028 2028 2028 2028 2028 2028 2028 2028 2028 
2028 2028 2028 2028 2028 2028 2028 2028 2028 
2028 2028 2028 2028 2028 2028 2028 2028 2028 
2028 2028 2028 2028 2028 2028 2028 2028 2028 
2028 2028 2028 2028 2028 2028 2028 2028 2028 
2028 2028 2028 2028 2028 2028 2028 2028 2028 
2028 2028 2028 2028 2028 2028 2028 2028 2028 
2028 2028 2028 2028 2028 2028 2028 2028 2028 
2028 2028 2028 2028 2028 2028 2028 2028 2028 
2028 2028 2028 2028 2028 2028 2028 2028 2028 
2028 2028 2028 2028 2028 2028 2028 2028 2028 
2028 2028 2028 2028 2028 2028 2028 2028 2028 
2028 2028 2028 2028 2028 2028 2028 2028 2028 
2028 2028 2028 2028 2028 2028 2028 2028 2028 
2028 2028 2028 2028 2028 2028 2028 2028 2028 
2028 2028 2028 2028 2028 2028 2028 2028 2028 
2028 2028 2028 2028 2028 2028 2028 2028 2028 
2028 2028 2028 2028 2028 2028 2028 2028 2028 
2028 2028 2028 2028 2028 2028 2028 2028 2028 
2028 2028 2028 2028 2028 2028 2028 2028 2028 
2028 2028 2028 2028 2028 2028 2028 2028 2028 
2028 2028 2028 2028 2028 2028 2028 2028 2028 
2028 2028 2028 2028 2028 2028 2028 2028 2028 
2028 2028 2028 2028 2028 2028 2028 2028 2028 
2028 2028 2028 2028 2028 2028 2028 2028 2028 
2028 2028 2028 2028 2028 2028 2028 2028 2028 
2028 2028 2028 2028 2028 2028 2028 2028 2028 
2028 2028 2028 2028 2028 2028 2028 2028 2028 
2028 2028 2028 2028 2028 2028 2028 2028 2028 
2028 2028 2028 2028 2028 2028 2028 2028 2028 
2028 2028 2028 2028 2028 2028 2028 2028 2028 
2028 2028 2028 2028 2028 2028 2028 2028 2028 
2028 2028 2028 2028 2028 2028 2028 2028 2028 
2028 2028 2028 2028 2028 2028 2028 2028 2028 
2028 2028 2028 2028 2028 2028 2028 2028 2028 
2028 2028 2028 2028 2028 2028 2028 2028 2028 
2028 2028 2028 2028 2028 2028 2028 2028 2028 
2028 2028 2028 2028 2028 2028 2028 2028 2028 
2028 2028 2028 2028 2028 2028 2028 2028 2028 
2028 2028 2028 2028 2028 2028 2028 2028 2028 
2028 2028 2028 2028 2028 2028 2028 2028 2028 
2028 2028 2028 2028 2028 2028 2028 2028 2028 
2028 2028 2028 2028 2028 2028 2028 2028 2028 
2028 2028 2028 2028 2028 2028 2028 2028 2028 
2028 2028 2028 2028 2028 2028 2028 2028 2028 
2028 2028 2028 2028 2028 2028 2028 2028 2028 
2028 2028 2028 2028 2028 2028 2028 2028 2028 
2028 2028 2028 2028 2028 2028 2028 2028 2028 
2028 2028 2028 2028 2028 2028 2028 2028 2028 
2028 2028 2028 2028 2028 2028 2028 2028 2028 
2028 2028 2028 2028 2028 2028 2028 2028 2028 
2028 2028 2028 2028 2028 2028 2028 2028 2028 
2028 2028 2028 2028 2028 2028 2028 2028 2028 
2028 2028 2028 2028 2028 2028 2028 2028 2028 
2028 2028 2028 2028 2028 2028 2028 2028 2028 
2028 2028 2028 2028 2028 2028 2028 2028 2028 
2028 2028 2028 2028 2028 2028 2028 2028 2028 
2028 2028 2028 2028 2028 2028 2028 2028 2028 
2028 2028 2028 2028 2028 2028 2028 2028 2028 
2028 2028 2028 2028 2028 2028 2028 2028 2028 
2028 2028 2028 2028 2028 2028 2028 2028 2028 
2028 2028 2028 2028 2028 2028 2028 2028 2028 
2028 2028 2028 2028 2028 2028 2028 2028 2028 
2028 2028 2028 2028 2028 2028 2028 2028 2028 
2028 2028 2028 2028 2028 2028 2028 2028 2028 
2028 2028 2028 2028 2028 2028 2028 2028 2028 
2028 2028 2028 2028 2028 2028 2028 2028 2028 
2028 2028 2028 2028 2028 2028 2028 2028 2028 
2028 2028 2028 2028 2028 2028 2028 2028 2028 
2028 2028 2028 2028 2028 2028 2028 2028 2028 
2028 2028 2028 2028 2028 2028 2028 2028 2028 
2028 2028 2028 2028 2028 2028 2028 2028 2028 
2028 2028 2028 2028 2028 2028 2028 2028 2028 
2028 2028 2028 2028 2028 2028 2028 2028 2028 
2028 2028 2028 2028 2028 2028 2028 2028 2028 
2028 2028 2028 2028 2028 2028 2028 2028 2028 
2028 2028 2028 2028 2028 2028 2028 2028 2028 
2028 2028 2028 2028 2028 2028 2028 2028 2028 
2028 2028 2028 2028 2028 2028 2028 2028 2028 
2028 2028 2028 2028 2028 2028 2028 2028 2028 
2028 2028 2028 2028 2028 2028 2028 2028 2028 
2028 2028 2028 2028 2028 2028 2028 2028 2028 
2028 2028 2028 2028 2028 2028 2028 2028 2028 
2028 2028 2028 2028 2028 2028 2028 2028 2028 
2028 2028 2028 2028 2028 2028 2028 2028 2028 
2028 2028 2028 2028 2028 2028 2028 2028 2028 
2028 2028 2028 2028 2028 2028 2028 2028 2028 
2028 2028 2028 2028 2028 2028 2028 2028 2028 
2028 2028 2028 2028 2028 2028 2028 2028 2028 
2028 2028 2028 2028 2028 2028 2028 2028 2028 
2028 2028 2028 2028 2028 2028 2028 2028 2028 
2028 2028 2028 2028 2028 2028 2028 2028 2028 
2028 2028 2028 2028 2028 2028 2028 2028 2028 
2028 2028 2028 2028 2028 2028 2028 2028 2028 
2028 2028 2028 2028 2028 2028 2028 2028 2028 
2028 2028 2028 2028 2028 2028 2028 2028 2028 
2028 2028 2028 2028 2028 2028 2028 2028 2028 
2028 2028 2028 2028 2028 2028 2028 2028 2028 
2028 2028 2028 2028 2028 2028 2028 2028 2028 
2028 2028 2028 2028 2028 2028 2028 2028 2028 
2028 2028 2028 2028 2028 2028 2028 2028 2028 
2028 2028 2028 2028 2028 2028 2028 2028 2028 
2028 2028 2028 2028 2028 2028 2028 2028 2028 
2028 2028 2028 2028 2028 2028 2028 2028 2028 
2028 2028 2028 2028 2028 2028 2028 2028 2028 
2028 2028 2028 2028 2028 2028 2028 2028 2028 
2028 2028 2028 2028 2028 2028 2028 2028 2028 