# vtk DataFile Version 4.2
vtk output
ASCII
DATASET POLYDATA
POINTS 11968 float
-25.3295 -41.4222 21.6691 -25.2463 -41.1958 21.2108 -25.614 -41.6967 21.3319 
-24.7689 -41.5563 21.2197 -25.2455 -41.894 21.468 -25.0277 -41.1866 20.5046 
-25.6084 -41.5743 20.5764 -24.2153 -41.4706 20.7831 -24.5046 -41.2075 20.7702 
-24.1198 -41.434 20.4998 -25.4236 -42.7105 21.0652 -25.9206 -42.4026 20.6787 
-24.838 -42.3726 20.7639 -24.4305 -41.8096 20.4093 -26.0067 -43.5222 20.9073 
-26.3431 -43.0868 20.1923 -26.5831 -43.8067 20.5487 -25.3005 -43.7886 20.9324 
-24.8783 -43.3517 20.4288 -26.2905 -44.3481 20.8626 -26.7621 -44.5878 20.3103 
-25.5923 -44.4887 20.9056 -24.942 -44.332 20.4286 -25.9708 -44.9285 20.4367 
-25.2592 -44.8977 20.3376 -25.2516 -40.5131 19.645 -25.4245 -40.2332 19.5048 
-25.5067 -40.7053 19.4993 -25.0028 -40.3957 19.1725 -25.0742 -41.7708 19.9313 
-25.1806 -40.9383 19.3542 -24.4735 -41.3796 20.2928 -25.4433 -42.1505 19.347 
-25.8859 -42.3297 19.7744 -24.8266 -42.3999 19.5312 -26.503 -43.0122 19.4737 
-26.9346 -43.7309 19.8645 -24.7163 -43.6169 19.4789 -28.0543 -44.6139 19.7556 
-28.1522 -44.2642 19.3241 -28.5003 -44.5839 19.5234 -27.3912 -44.467 19.9823 
-27.6311 -44.0575 19.6098 -24.9155 -44.4983 19.5697 -28.1894 -44.9502 19.4992 
-27.9058 -45.5603 19.2736 -27.3758 -45.2672 19.8159 -26.4597 -45.2692 19.5897 
-26.8971 -45.6727 19.4278 -25.5646 -44.9705 19.4448 -27.3733 -45.9188 19.167 
-26.0574 -38.6573 18.7636 -26.3491 -38.2015 18.2704 -26.5812 -38.6227 18.5143 
-25.8581 -38.559 18.1412 -26.4198 -39.4272 18.9194 -26.8791 -39.3773 18.3572 
-25.4417 -39.0302 18.6125 -25.5322 -39.5817 19.0745 -25.0021 -39.8311 18.4041 
-30.2082 -40.7793 18.913 -30.4487 -40.2023 18.514 -30.9647 -40.724 18.6659 
-29.1689 -40.5376 18.8925 -29.5666 -40.0264 18.5771 -28.2519 -40.7676 18.8209 
-28.4176 -40.0345 18.433 -27.0276 -40.4513 18.8853 -27.4446 -40.0301 18.3395 
-26.0138 -40.4599 19.1967 -24.7617 -40.5331 18.4573 -31.1346 -41.3059 18.8049 
-31.4787 -40.962 18.43 -31.6638 -41.3774 18.3266 -30.5357 -41.5292 18.8976 
-29.5173 -41.2807 18.8733 -28.7838 -41.3203 18.6065 -28.1781 -41.2579 18.5976 
-27.7746 -41.7608 18.4243 -27.3659 -41.4625 18.8625 -26.4563 -41.3635 19.0155 
-25.5222 -41.5593 19.1449 -24.8477 -41.3735 18.6025 -31.2776 -41.9857 18.3994 
-30.1304 -42.0069 18.5208 -29.2888 -41.7985 18.4385 -27.2946 -42.3236 18.7782 
-27.5039 -42.6055 18.2965 -26.396 -42.3183 19.0926 -24.7199 -42.5783 18.4327 
-27.3398 -43.397 19.0163 -27.7003 -43.4511 18.3121 -24.901 -43.6621 18.5557 
-29.9607 -44.5983 18.7997 -30.3888 -44.1472 18.4423 -30.5518 -44.6917 18.466 
-29.2448 -44.7846 18.8894 -29.6477 -44.0956 18.5167 -28.4163 -44.5829 19.2584 
-28.7476 -44.719 18.2426 -27.9532 -44.5227 18.6745 -25.1672 -44.4534 18.8704 
-25.6634 -44.6743 18.574 -25.3938 -44.1586 18.3463 -30.1588 -45.146 18.6299 
-29.9141 -45.6928 18.4107 -29.4885 -45.318 18.8672 -28.5615 -45.3831 18.8458 
-28.1263 -45.0581 18.4133 -26.8551 -45.6895 18.8052 -26.2672 -45.1435 18.6118 
-29.2569 -45.9382 18.4055 -28.3159 -45.9664 18.5096 -27.5127 -45.9338 18.4831 
-21.9976 -37.6817 17.9475 -22.5032 -37.1788 17.3101 -22.7699 -37.8099 17.626 
-21.3002 -37.7781 17.8774 -21.6082 -37.0628 17.3876 -20.8854 -37.4191 17.3182 
-29.1874 -38.8709 17.7715 -29.458 -38.2456 17.4454 -29.9482 -38.6672 17.6103 
-28.8815 -38.3562 17.4108 -26.2645 -38.2308 17.7004 -26.6225 -38.5414 17.8181 
-26.081 -38.6085 17.3544 -22.2999 -38.2954 17.9132 -22.7613 -38.6408 17.4051 
-21.5941 -38.4065 17.9259 -20.9805 -38.2539 17.4403 -31.169 -39.5212 17.7707 
-31.4095 -39.0613 17.3356 -31.6922 -39.6243 17.3903 -30.2072 -39.4668 18.0441 
-30.7112 -38.9227 17.5264 -29.1343 -39.5269 18.1965 -28.2279 -38.9096 17.2886 
-28.3321 -39.4911 17.8415 -27.6824 -39.5093 17.2838 -26.9848 -39.3427 17.4616 
-25.352 -39.2802 18.0763 -25.6742 -39.1927 17.4537 -21.992 -38.8412 17.448 
-21.3049 -38.8141 17.337 -31.2177 -40.215 18.1167 -31.7843 -40.5921 17.6175 
-27.557 -39.7984 17.7049 -25.1899 -39.7671 17.6458 -24.8075 -40.4982 17.6912 
-31.9255 -41.5202 17.5848 -28.4599 -41.7543 18.1684 -24.6163 -41.5434 17.5766 
-32.1924 -42.605 17.9409 -32.3456 -42.0996 17.1831 -32.8875 -42.6595 17.5231 
-31.2364 -42.7417 18.0854 -30.3403 -42.6593 18.1407 -29.1898 -42.5054 18.0665 
-28.1087 -42.4764 17.7524 -27.5986 -42.123 17.7293 -27.7346 -42.4152 17.2805 
-27.1323 -42.6499 17.828 -26.8073 -42.6015 17.2712 -24.7398 -42.5942 17.6211 
-33.0558 -43.3956 17.8382 -33.3578 -43.0696 17.2174 -33.5923 -43.4894 17.4691 
-32.1953 -43.6424 18.05 -31.5152 -43.3394 18.0257 -30.4916 -43.4821 18.1259 
-29.2743 -43.5184 18.0345 -28.1881 -43.4731 17.8988 -27.4242 -43.0476 17.7358 
-26.4307 -43.4077 17.7206 -27.0453 -43.7271 17.5393 -26.0247 -42.9952 17.2379 
-25.2015 -43.0054 17.3212 -25.4112 -43.5408 17.9354 -33.4548 -44.084 17.4885 
-32.9659 -44.9129 17.4192 -32.4446 -44.4945 17.9644 -31.2377 -44.3671 18.1341 
-28.4532 -43.95 17.4949 -28.7175 -44.5232 17.3324 -27.6447 -43.9571 17.5668 
-27.2643 -44.6079 17.9444 -26.1977 -44.4629 18.0778 -32.3775 -45.3644 17.8377 
-32.6077 -45.5908 17.3367 -31.6475 -45.4274 17.9182 -30.6783 -45.4399 18.1008 
-28.0345 -45.4798 18.1462 -28.7932 -45.3934 17.6236 -27.0591 -45.3732 18.1504 
-32.0201 -45.9139 17.4125 -31.098 -46.0027 17.3873 -30.1311 -46.0217 17.7038 
-29.416 -45.9709 17.466 -21.068 -34.7227 16.8424 -21.3298 -34.149 16.5925 
-21.7303 -34.6619 16.3694 -20.8785 -34.2779 16.2678 -21.1686 -35.4855 16.9414 
-21.6488 -35.6606 16.5177 -20.4748 -34.987 16.5819 -20.2609 -35.6164 16.9244 
-19.8346 -35.5178 16.2604 -21.1229 -36.4715 17.0085 -21.7265 -36.3806 16.4478 
-20.4415 -36.248 17.0278 -19.4085 -36.0664 16.5634 -19.5611 -36.4922 16.8149 
-18.9489 -36.6261 16.2274 -30.2202 -37.6593 16.799 -30.4386 -37.2017 16.4209 
-30.9291 -37.6942 16.5575 -29.1379 -37.7439 16.9963 -29.5761 -37.0262 16.4848 
-28.2652 -37.752 16.7416 -28.5845 -37.0813 16.4789 -27.9296 -37.4616 16.3889 
-25.2469 -37.6258 16.6587 -25.3144 -37.3084 16.5301 -25.4821 -37.7058 16.5454 
-25.1474 -37.4798 16.5147 -23.2086 -37.4863 17.0609 -23.2612 -37.1144 16.2839 
-23.8121 -37.7991 16.5142 -22.1909 -36.8442 16.4977 -20.1338 -37.1056 16.7113 
-20.6123 -37.9024 16.6111 -19.2042 -37.0917 16.405 -31.0487 -38.3477 16.9515 
-31.4438 -37.938 16.3588 -31.7197 -38.646 16.5443 -30.1266 -38.2259 17.2223 
-28.4254 -38.2554 17.0677 -27.7833 -38.3246 16.5825 -26.53 -38.6823 17.1015 
-25.2775 -38.5894 16.6788 -25.6576 -38.531 16.2049 -25.0607 -38.1088 16.4783 
-23.4492 -38.4029 17.0771 -24.0507 -38.591 16.5777 -20.9357 -38.582 16.6902 
-31.8626 -39.5306 16.5071 -27.2708 -39.5781 17.131 -27.2364 -39.0815 16.7697 
-26.2591 -39.0656 16.4753 -25.168 -39.6463 17.082 -24.7016 -38.7421 16.263 
-24.1801 -39.3956 16.89 -23.1557 -39.4576 16.9186 -22.2703 -39.2018 16.5151 
-22.7484 -39.7384 16.3907 -21.422 -38.945 16.5357 -31.8355 -40.5241 16.5093 
-24.2846 -40.678 17.0834 -23.4478 -40.5218 16.8589 -22.9664 -40.339 16.5331 
-31.9064 -41.5574 16.32 -28.225 -41.8494 16.8343 -28.9172 -41.4524 16.4756 
-28.3236 -41.3202 16.4491 -27.8797 -41.6955 16.1899 -24.27 -41.6896 17.1275 
-23.6114 -41.6189 16.8067 -22.9713 -41.3512 16.2977 -34.34 -42.5349 16.7035 
-34.4272 -42.358 16.3612 -34.5123 -42.6261 16.3428 -33.9803 -42.3675 16.3679 
-32.1842 -42.2194 16.3386 -32.7096 -42.6056 16.6279 -28.9962 -42.4329 16.7775 
-29.6215 -42.4854 16.1997 -29.4909 -41.9518 16.4089 -28.1794 -42.6562 17.0422 
-27.4514 -42.1019 16.8571 -26.989 -42.5778 16.4506 -24.2519 -42.4012 16.9837 
-23.6316 -42.6287 16.3372 -23.1868 -42.1548 16.3551 -34.1651 -42.7166 16.4102 
-33.7724 -43.5417 16.7334 -33.1783 -42.9811 16.4213 -29.1783 -43.0684 16.5081 
-28.363 -43.377 16.9882 -28.8269 -43.7392 16.5632 -27.5527 -43.2654 17.2399 
-26.3058 -42.9228 16.3909 -25.4325 -43.0402 16.6978 -24.4938 -43.0504 16.4339 
-34.1345 -44.3348 16.844 -34.3991 -44.1319 16.1809 -34.5599 -44.6342 16.245 
-33.6392 -44.6107 17.0777 -28.9138 -44.6253 16.5462 -34.0724 -44.8292 16.4249 
-33.4132 -44.9804 16.6655 -32.8804 -45.4707 16.4344 -29.243 -45.454 16.9075 
-29.665 -45.6975 16.5546 -29.2892 -45.1558 16.1524 -32.2117 -45.9764 16.5378 
-31.3465 -46.1356 16.4833 -30.3295 -46.0277 16.6051 -30.0029 -33.6256 15.8191 
-30.4345 -33.1295 15.4471 -30.7785 -33.7958 15.5187 -29.1154 -33.728 15.819 
-29.67 -33.0254 15.5207 -28.8752 -33.3102 15.4686 -21.4394 -33.7626 16.0758 
-21.5459 -33.1931 15.3291 -21.9003 -33.564 15.6644 -20.985 -33.5903 15.4773 
-30.341 -34.6085 15.9119 -31.0428 -34.5539 15.5854 -29.3082 -34.493 16.0182 
-28.4373 -33.9306 15.5975 -28.4345 -34.5828 15.8294 -27.9495 -34.4727 15.4581 
-22.1219 -34.1777 15.8318 -22.5111 -33.9351 15.3368 -22.5599 -34.7364 15.2087 
-20.656 -34.3432 15.2464 -31.0268 -35.451 15.8228 -31.4355 -34.92 15.3465 
-31.6505 -35.6169 15.3558 -30.1621 -35.6491 16.0131 -29.308 -35.4856 16.0399 
-28.2366 -35.5786 15.9022 -27.7206 -35.2461 15.4988 -22.2448 -34.8903 15.6395 
-22.0088 -35.686 15.7143 -20.1974 -34.9804 15.6291 -19.5849 -35.4503 15.433 
-31.3251 -36.3204 15.8344 -31.7208 -36.5317 15.357 -30.4438 -36.4931 16.1198 
-29.3117 -36.3571 16.1561 -28.2314 -36.5773 16.1144 -27.2184 -35.9404 15.3428 
-27.4038 -36.6098 15.7908 -26.7805 -36.5575 15.3559 -22.0339 -36.5086 15.7216 
-19.1909 -35.9693 15.8302 -18.813 -36.3479 15.307 -31.2108 -37.1741 16.0595 
-31.7446 -37.5716 15.5346 -27.4087 -37.6403 15.983 -26.7935 -37.2871 15.4948 
-25.324 -37.7577 16.3529 -24.1996 -37.4749 15.9523 -24.0242 -37.2578 15.516 
-24.543 -37.6856 15.5426 -23.1102 -37.0534 15.3143 -22.5123 -36.8385 15.6947 
-20.2328 -37.7657 16.0126 -19.5637 -37.5773 15.9673 -18.9367 -37.2348 15.6408 
-31.8299 -38.4931 15.4735 -27.1164 -38.6977 16.0471 -26.8172 -38.3138 15.4869 
-25.1853 -38.4881 16.1356 -24.3924 -38.1653 16.0188 -24.6701 -38.3646 15.5208 
-20.7883 -38.5225 15.6364 -20.1627 -38.0687 15.3215 -19.536 -37.7966 15.2361 
-31.7936 -39.4944 15.453 -29.2721 -39.7734 15.7208 -29.6449 -39.6205 15.4433 
-29.4495 -39.1028 15.4372 -29.0601 -39.2947 15.3103 -26.638 -39.2883 15.5574 
-26.4066 -39.6016 15.7568 -25.9565 -39.4096 15.7247 -25.1801 -38.9401 15.6527 
[...]
CELL_DATA 23968
SCALARS scalars float
LOOKUP_TABLE default
2007 2007 2007 2007 2007 2007 2007 2007 2007 
2007 2007 2007 2007 2007 2007 2007 2007 2007 
2007 2007 2007 2007 2007 2007 2007 2007 2007 
2007 2007 2007 2007 2007 2007 2007 2007 2007 
2007 2007 2007 2007 2007 2007 2007 2007 2007 
2007 2007 2007 2007 2007 2007 2007 2007 2007 
2007 2007 2007 2007 2007 2007 2007 2007 2007 
2007 2007 2007 2007 2007 2007 2007 2007 2007 
2007 2007 2007 2007 2007 2007 2007 2007 2007 
2007 2007 2007 2007 2007 2007 2007 2007 2007 
2007 2007 2007 2007 2007 2007 2007 2007 2007 
2007 2007 2007 2007 2007 2007 2007 2007 2007 
2007 2007 2007 2007 2007 2007 2007 2007 2007 
2007 2007 2007 2007 2007 2007 2007 2007 2007 
2007 2007 2007 2007 2007 2007 2007 2007 2007 
2007 2007 2007 2007 2007 2007 2007 2007 2007 
2007 2007 2007 2007 2007 2007 2007 2007 2007 
2007 2007 2007 2007 2007 2007 2007 2007 2007 
2007 2007 2007 2007 2007 2007 2007 2007 2007 
2007 2007 2007 2007 2007 2007 2007 2007 2007 
2007 2007 2007 2007 2007 2007 2007 2007 2007 
2007 2007 2007 2007 2007 2007 2007 2007 2007 
2007 2007 2007 2007 2007 2007 2007 2007 2007 
2007 2007 2007 2007 2007 2007 2007 2007 2007 
2007 2007 2007 2007 2007 2007 2007 2007 2007 
2007 2007 2007 2007 2007 2007 2007 2007 2007 
2007 2007 2007 2007 2007 2007 2007 2007 2007 
2007 2007 2007 2007 2007 2007 2007 2007 2007 
2007 2007 2007 2007 2007 2007 2007 2007 2007 
2007 2007 2007 2007 2007 2007 2007 2007 2007 
2007 2007 2007 2007 2007 2007 2007 2007 2007 
2007 2007 2007 2007 2007 2007 2007 2007 2007 
2007 2007 2007 2007 2007 2007 2007 2007 2007 
2007 2007 2007 2007 2007 2007 2007 2007 2007 
2007 2007 2007 2007 2007 2007 2007 2007 2007 
2007 2007 2007 2007 2007 2007 2007 2007 2007 
2007 2007 2007 2007 2007 2007 2007 2007 2007 
2007 2007 2007 2007 2007 2007 2007 2007 2007 
2007 2007 2007 2007 2007 2007 2007 2007 2007 
2007 2007 2007 2007 2007 2007 2007 2007 2007 
2007 2007 2007 2007 2007 2007 2007 2007 2007 
2007 2007 2007 2007 2007 2007 2007 2007 2007 
2007 2007 2007 2007 2007 2007 2007 2007 2007 
2007 2007 2007 2007 2007 2007 2007 2007 2007 
2007 2007 2007 2007 2007 2007 2007 2007 2007 
2007 2007 2007 2007 2007 2007 2007 2007 2007 
2007 2007 2007 2007 2007 2007 2007 2007 2007 
2007 2007 2007 2007 2007 2007 2007 2007 2007 
2007 2007 2007 2007 2007 2007 2007 2007 2007 
2007 2007 2007 2007 2007 2007 2007 2007 2007 
2007 2007 2007 2007 2007 2007 2007 2007 2007 
2007 2007 2007 2007 2007 2007 2007 2007 2007 
2007 2007 2007 2007 2007 2007 2007 2007 2007 
2007 2007 2007 2007 2007 2007 2007 2007 2007 
2007 2007 2007 2007 2007 2007 2007 2007 2007 
2007 2007 2007 2007 2007 2007 2007 2007 2007 
2007 2007 2007 2007 2007 2007 2007 2007 2007 
2007 2007 2007 2007 2007 2007 2007 2007 2007 
2007 2007 2007 2007 2007 2007 2007 2007 2007 
2007 2007 2007 2007 2007 2007 2007 2007 2007 
2007 2007 2007 2007 2007 2007 2007 2007 2007 
2007 2007 2007 2007 2007 2007 2007 2007 2007 
2007 2007 2007 2007 2007 2007 2007 2007 2007 
2007 2007 2007 2007 2007 2007 2007 2007 2007 
2007 2007 2007 2007 2007 2007 2007 2007 2007 
2007 2007 2007 2007 2007 2007 2007 2007 2007 
2007 2007 2007 2007 2007 2007 2007 2007 2007 
2007 2007 2007 2007 2007 2007 2007 2007 2007 
2007 2007 2007 2007 2007 2007 2007 2007 2007 
2007 2007 2007 2007 2007 2007 2007 2007 2007 
2007 2007 2007 2007 2007 2007 2007 2007 2007 
2007 2007 2007 2007 2007 2007 2007 2007 2007 
2007 2007 2007 2007 2007 2007 2007 2007 2007 
2007 2007 2007 2007 2007 2007 2007 2007 2007 
2007 2007 2007 2007 2007 2007 2007 2007 2007 
2007 2007 2007 2007 2007 2007 2007 2007 2007 
2007 2007 2007 2007 2007 2007 2007 2007 2007 
2007 2007 2007 2007 2007 2007 2007 2007 2007 
2007 2007 2007 2007 2007 2007 2007 2007 2007 
2007 2007 2007 2007 2007 2007 2007 2007 2007 
2007 2007 2007 2007 2007 2007 2007 2007 2007 
2007 2007 2007 2007 2007 2007 2007 2007 2007 
2007 2007 2007 2007 2007 2007 2007 2007 2007 
2007 2007 2007 2007 2007 2007 2007 2007 2007 
2007 2007 2007 2007 2007 2007 2007 2007 2007 
2007 2007 2007 2007 2007 2007 2007 2007 2007 
2007 2007 2007 2007 2007 2007 2007 2007 2007 
2007 2007 2007 2007 2007 2007 2007 2007 2007 
2007 2007 2007 2007 2007 2007 2007 2007 2007 
2007 2007 2007 2007 2007 2007 2007 2007 2007 
2007 2007 2007 2007 2007 2007 2007 2007 2007 
2007 2007 2007 2007 2007 2007 2007 2007 2007 
2007 2007 2007 2007 2007 2007 2007 2007 2007 
2007 2007 2007 2007 2007 2007 2007 2007 2007 
2007 2007 2007 2007 2007 2007 2007 2007 2007 
2007 2007 2007 2007 2007 2007 2007 2007 2007 
2007 2007 2007 2007 2007 2007 2007 2007 2007 
2007 2007 2007 2007 2007 2007 2007 2007 2007 
2007 2007 2007 2007 2007 2007 2007 2007 2007 
2007 2007 2007 2007 2007 2007 2007 2007 2007 
2007 2007 2007 2007 2007 2007 2007 2007 2007 
2007 2007 2007 2007 2007 2007 2007 2007 2007 
2007 2007 2007 2007 2007 2007 2007 2007 2007 
2007 2007 2007 2007 2007 2007 2007 2007 2007 
2007 2007 2007 2007 2007 2007 2007 2007 2007 
2007 2007 2007 2007 2007 2007 2007 2007 2007 
2007 2007 2007 2007 2007 2007 2007 2007 2007 
2007 2007 2007 2007 2007 2007 2007 2007 2007 
2007 2007 2007 2007 2007 2007 2007 2007 2007 
2007 2007 2007 2007 2007 2007 2007 2007 2007 
2007 2007 2007 2007 2007 2007 2007 2007 2007 
2007 2007 2007 2007 2007 2007 2007 2007 2007 
2007 2007 2007 2007 2007 2007 2007 2007 2007 
2007 2007 2007 2007 2007 2007 2007 2007 2007 
2007 2007 2007 2007 2007 2007 2007 2007 2007 
2007 2007 2007 2007 2007 2007 2007 2007 2007 
2007 2007 2007 2007 2007 2007 2007 2007 2007 
2007 2007 2007 2007 2007 2007 2007 2007 2007 
2007 2007 2007 2007 2007 2007 2007 2007 2007 
2007 2007 2007 2007 2007 2007 2007 2007 2007 
2007 2007 2007 2007 2007 2007 2007 2007 2007 
2007 2007 2007 2007 2007 2007 2007 2007 2007 
2007 2007 2007 2007 2007 2007 2007 2007 2007 
2007 2007 2007 2007 2007 2007 2007 2007 2007 
2007 2007 2007 2007 2007 2007 2007 2007 2007 
2007 2007 2007 2007 2007 2007 2007 2007 2007 
2007 2007 2007 2007 2007 2007 2007 2007 2007 
2007 2007 2007 2007 2007 2007 2007 2007 2007 
2007 2007 2007 2007 2007 2007 2007 2007 2007 
2007 2007 2007 2007 2007 2007 2007 2007 2007 
2007 2007 2007 2007 2007 2007 2007 2007 2007 
2007 2007 2007 2007 2007 2007 2007 2007 2007 
2007 2007 2007 2007 2007 2007 2007 2007 2007 
2007 2007 2007 2007 2007 2007 2007 2007 2007 
2007 2007 2007 2007 2007 2007 2007 2007 2007 
2007 2007 2007 2007 2007 2007 2007 2007 2007 
2007 2007 2007 2007 2007 2007 2007 2007 2007 
2007 2007 2007 2007 2007 2007 2007 2007 2007 
2007 2007 2007 2007 2007 2007 2007 2007 2007 
2007 2007 2007 2007 2007 2007 2007 2007 2007 
2007 2007 2007 2007 2007 2007 2007 2007 2007 
2007 2007 2007 2007 2007 2007 2007 2007 2007 
2007 2007 2007 2007 2007 2007 2007 2007 2007 
2007 2007 2007 2007 2007 2007 2007 2007 2007 
2007 2007 2007 2007 2007 2007 2007 2007 2007 
2007 2007 2007 2007 2007 2007 2007 2007 2007 
2007 2007 2007 2007 2007 2007 2007 2007 2007 
2007 2007 2007 2007 2007 2007 2007 2007 2007 
2007 2007 2007 2007 2007 2007 2007 2007 2007 
2007 2007 2007 2007 2007 2007 2007 2007 2007 
2007 2007 2007 2007 2007 2007 2007 2007 2007 
2007 2007 2007 2007 2007 2007 2007 2007 2007 
2007 2007 2007 2007 2007 2007 2007 2007 2007 
2007 2007 2007 2007 2007 2007 2007 2007 2007 
2007 2007 2007 2007 2007 2007 2007 2007 2007 
2007 2007 2007 2007 2007 2007 2007 2007 2007 
2007 2007 2007 2007 2007 2007 2007 2007 2007 
2007 2007 2007 2007 2007 2007 2007 2007 2007 
2007 2007 2007 2007 2007 2007 2007 2007 2007 
2007 2007 2007 2007 2007 2007 2007 2007 2007 
2007 2007 2007 2007 2007 2007 2007 2007 2007 
2007 2007 2007 2007 2007 2007 2007 2007 2007 
2007 2007 2007 2007 2007 2007 2007 2007 2007 
2007 2007 2007 2007 2007 2007 2007 2007 2007 
2007 2007 2007 2007 2007 2007 2007 2007 2007 
2007 2007 2007 2007 2007 2007 2007 2007 2007 
2007 2007 2007 2007 2007 2007 2007 2007 2007 
2007 2007 2007 2007 2007 2007 2007 2007 2007 
2007 2007 2007 2007 2007 2007 2007 2007 2007 
2007 2007 2007 2007 2007 2007 2007 2007 2007 
2007 2007 2007 2007 2007 2007 2007 2007 2007 
2007 2007 2007 2007 2007 2007 2007 2007 2007 
2007 2007 2007 2007 2007 2007 2007 2007 2007 
2007 2007 2007 2007 2007 2007 2007 2007 2007 
2007 2007 2007 2007 2007 2007 2007 2007 2007 
2007 2007 2007 2007 2007 2007 2007 2007 2007 
2007 2007 2007 2007 2007 2007 2007 2007 2007 
2007 2007 2007 2007 2007 2007 2007 2007 2007 
2007 2007 2007 2007 2007 2007 2007 2007 2007 
2007 2007 2007 2007 2007 2007 2007 2007 2007 
2007 2007 2007 2007 2007 2007 2007 2007 2007 
2007 2007 2007 2007 2007 2007 2007 2007 2007 
2007 2007 2007 2007 2007 2007 2007 2007 2007 
2007 2007 2007 2007 2007 2007 2007 2007 2007 
2007 2007 2007 2007 2007 2007 2007 2007 2007 
2007 2007 2007 2007 2007 2007 2007 2007 2007 
2007 2007 2007 2007 2007 2007 2007 2007 2007 
2007 2007 2007 2007 2007 2007 2007 2007 2007 
2007 2007 2007 2007 2007 2007 2007 2007 2007 
2007 2007 2007 2007 2007 2007 2007 2007 2007 
2007 2007 2007 2007 2007 2007 2007 2007 2007 
2007 2007 2007 2007 2007 2007 2007 2007 2007 
2007 2007 2007 2007 2007 2007 2007 2007 2007 
2007 2007 2007 2007 2007 2007 2007 2007 2007 
2007 2007 2007 2007 2007 2007 2007 2007 2007 
2007 2007 2007 2007 2007 2007 2007 2007 2007 
2007 2007 2007 2007 2007 2007 2007 2007 2007 
2007 2007 2007 2007 2007 2007 2007 2007 2007 
2007 2007 2007 2007 2007 2007 2007 2007 2007 
2007 2007 2007 2007 2007 2007 2007 2007 2007 
2007 2007 2007 2007 2007 2007 2007 2007 2007 
2007 2007 2007 2007 2007 2007 2007 2007 2007 
2007 2007 2007 2007 2007 2007 2007 2007 2007 
2007 2007 2007 2007 2007 2007 2007 2007 2007 
2007 2007 2007 2007 2007 2007 2007 2007 2007 
2007 2007 2007 2007 2007 2007 2007 2007 2007 
2007 2007 2007 2007 2007 2007 2007 2007 2007 
2007 2007 2007 2007 2007 2007 2007 2007 2007 
2007 2007 2007 2007 2007 2007 2007 2007 2007 
2007 2007 2007 2007 2007 2007 2007 2007 2007 
2007 2007 2007 2007 2007 2007 2007 2007 2007 
2007 2007 2007 2007 2007 2007 2007 2007 2007 
2007 2007 2007 2007 2007 2007 2007 2007 2007 
2007 2007 2007 2007 2007 2007 2007 2007 2007 
2007 2007 2007 2007 2007 2007 2007 2007 2007 
2007 2007 2007 2007 2007 2007 2007 2007 2007 
2007 2007 2007 2007 2007 2007 2007 2007 2007 
2007 2007 2007 2007 2007 2007 2007 2007 2007 
2007 2007 2007 2007 2007 2007 2007 2007 2007 
2007 2007 2007 2007 2007 2007 2007 2007 2007 
2007 2007 2007 2007 2007 2007 2007 2007 2007 
2007 2007 2007 2007 2007 2007 2007 2007 2007 
2007 2007 2007 2007 2007 2007 2007 2007 2007 
2007 2007 2007 2007 2007 2007 2007 2007 2007 
2007 2007 2007 2007 2007 2007 2007 2007 2007 
2007 2007 2007 2007 2007 2007 2007 2007 2007 
2007 2007 2007 2007 2007 2007 2007 2007 2007 
2007 2007 2007 2007 2007 2007 2007 2007 2007 
2007 2007 2007 2007 2007 2007 2007 2007 2007 
2007 2007 2007 2007 2007 2007 2007 2007 2007 
2007 2007 2007 2007 2007 2007 2007 2007 2007 
2007 2007 2007 2007 2007 2007 2007 2007 2007 
2007 2007 2007 2007 2007 2007 2007 2007 2007 
2007 2007 2007 2007 2007 2007 2007 2007 2007 
2007 2007 2007 2007 2007 2007 2007 2007 2007 
2007 2007 2007 2007 2007 2007 2007 2007 2007 
2007 2007 2007 2007 2007 2007 2007 2007 2007 
2007 2007 2007 2007 2007 2007 2007 2007 2007 
2007 2007 2007 2007 2007 2007 2007 2007 2007 
2007 2007 2007 2007 2007 2007 2007 2007 2007 
2007 2007 2007 2007 2007 2007 2007 2007 2007 
2007 2007 2007 2007 2007 2007 2007 2007 2007 
2007 2007 2007 2007 2007 2007 2007 2007 2007 
2007 2007 2007 2007 2007 2007 2007 2007 2007 
2007 2007 2007 2007 2007 2007 2007 2007 2007 
2007 2007 2007 2007 2007 2007 2007 2007 2007 
2007 2007 2007 2007 2007 2007 2007 2007 2007 
2007 2007 2007 2007 2007 2007 2007 2007 2007 
2007 2007 2007 2007 2007 2007 2007 2007 2007 
2007 2007 2007 2007 2007 2007 2007 2007 2007 
2007 2007 2007 2007 2007 2007 2007 2007 2007 
2007 2007 2007 2007 2007 2007 2007 2007 2007 
2007 2007 2007 2007 2007 2007 2007 2007 2007 
2007 2007 2007 2007 2007 2007 2007 2007 2007 
2007 2007 2007 2007 2007 2007 2007 2007 2007 
2007 2007 2007 2007 2007 2007 2007 2007 2007 
2007 2007 2007 2007 2007 2007 2007 2007 2007 
2007 2007 2007 2007 2007 2007 2007 2007 2007 
2007 2007 2007 2007 2007 2007 2007 2007 2007 
2007 2007 2007 2007 2007 2007 2007 2007 2007 
2007 2007 2007 2007 2007 2007 2007 2007 2007 
2007 2007 2007 2007 2007 2007 2007 2007 2007 
2007 2007 2007 2007 2007 2007 2007 2007 2007 
2007 2007 2007 2007 2007 2007 2007 2007 2007 
2007 2007 2007 2007 2007 2007 2007 2007 2007 
2007 2007 2007 2007 2007 2007 2007 2007 2007 
2007 2007 2007 2007 2007 2007 2007 2007 2007 
2007 2007 2007 2007 2007 2007 2007 2007 2007 
2007 2007 2007 2007 2007 2007 2007 2007 2007 
2007 2007 2007 2007 2007 2007 2007 2007 2007 
2007 2007 2007 2007 2007 2007 2007 2007 2007 
2007 2007 2007 2007 2007 2007 2007 2007 2007 
2007 2007 2007 2007 2007 2007 2007 2007 2007 
2007 2007 2007 2007 2007 2007 2007 2007 2007 
2007 2007 2007 2007 2007 2007 2007 2007 2007 
2007 2007 2007 2007 2007 2007 2007 2007 2007 
2007 2007 2007 2007 2007 2007 2007 2007 2007 
2007 2007 2007 2007 2007 2007 2007 2007 2007 
2007 2007 2007 2007 2007 2007 2007 2007 2007 
2007 2007 2007 2007 2007 2007 2007 2007 2007 
2007 2007 2007 2007 2007 2007 2007 2007 2007 
2007 2007 2007 2007 2007 2007 2007 2007 2007 
2007 2007 2007 2007 2007 2007 2007 2007 2007 
2007 2007 2007 2007 2007 2007 2007 2007 2007 
2007 2007 2007 2007 2007 2007 2007 2007 2007 
2007 2007 2007 2007 2007 2007 2007 2007 2007 
2007 2007 2007 2007 2007 2007 2007 2007 2007 
2007 2007 2007 2007 2007 2007 2007 2007 2007 
2007 2007 2007 2007 2007 2007 2007 2007 2007 
2007 2007 2007 2007 2007 2007 2007 2007 2007 
2007 2007 2007 2007 2007 2007 2007 2007 2007 
2007 2007 2007 2007 2007 2007 2007 2007 2007 
2007 2007 2007 2007 2007 2007 2007 2007 2007 
2007 2007 2007 2007 2007 2007 2007 2007 2007 
2007 2007 2007 2007 2007 2007 2007 2007 2007 
2007 2007 2007 2007 2007 2007 2007 2007 2007 
2007 2007 2007 2007 2007 2007 2007 2007 2007 
2007 2007 2007 2007 2007 2007 2007 2007 2007 
2007 2007 2007 2007 2007 2007 2007 2007 2007 
2007 2007 2007 2007 2007 2007 2007 2007 2007 
2007 2007 2007 2007 2007 2007 2007 2007 2007 
2007 2007 2007 2007 2007 2007 2007 2007 2007 
2007 2007 2007 2007 2007 2007 2007 2007 2007 
2007 2007 2007 2007 2007 2007 2007 2007 2007 
2007 2007 2007 2007 2007 2007 2007 2007 2007 
2007 2007 2007 2007 2007 2007 2007 2007 2007 
2007 2007 2007 2007 2007 2007 2007 2007 2007 
2007 2007 2007 2007 2007 2007 2007 2007 2007 
2007 2007 2007 2007 2007 2007 2007 2007 2007 
2007 2007 2007 2007 2007 2007 2007 2007 2007 
2007 2007 2007 2007 2007 2007 2007 2007 2007 
2007 2007 2007 2007 2007 2007 2007 2007 2007 
2007 2007 2007 2007 2007 2007 2007 2007 2007 
2007 2007 2007 2007 2007 2007 2007 2007 2007 
2007 2007 2007 2007 2007 2007 2007 2007 2007 
2007 2007 2007 2007 2007 2007 2007 2007 2007 
2007 2007 2007 2007 2007 2007 2007 2007 2007 
2007 2007 2007 2007 2007 2007 2007 2007 2007 
2007 2007 2007 2007 2007 2007 2007 2007 2007 
2007 2007 2007 2007 2007 2007 2007 2007 2007 
2007 2007 2007 2007 2007 2007 2007 2007 2007 
2007 2007 2007 2007 2007 2007 2007 2007 2007 
2007 2007 2007 2007 2007 2007 2007 2007 2007 
2007 2007 2007 2007 2007 2007 2007 2007 2007 
2007 2007 2007 2007 2007 2007 2007 2007 2007 
2007 2007 2007 2007 2007 2007 2007 2007 2007 
2007 2007 2007 2007 2007 2007 2007 2007 2007 
2007 2007 2007 2007 2007 2007 2007 2007 2007 
2007 2007 2007 2007 2007 2007 2007 2007 2007 
2007 2007 2007 2007 2007 2007 2007 2007 2007 
2007 2007 2007 2007 2007 2007 2007 2007 2007 
2007 2007 2007 2007 2007 2007 2007 2007 2007 
2007 2007 2007 2007 2007 2007 2007 2007 2007 
2007 2007 2007 2007 2007 2007 2007 2007 2007 
2007 2007 2007 2007 2007 2007 2007 2007 2007 
2007 2007 2007 2007 2007 2007 2007 2007 2007 
2007 2007 2007 2007 2007 2007 2007 2007 2007 
2007 2007 2007 2007 2007 2007 2007 2007 2007 
2007 2007 2007 2007 2007 2007 2007 2007 2007 
2007 2007 2007 2007 2007 2007 2007 2007 2007 
2007 2007 2007 2007 2007 2007 2007 2007 2007 
2007 2007 2007 2007 2007 2007 2007 2007 2007 
2007 2007 2007 2007 2007 2007 2007 2007 2007 
2007 2007 2007 2007 2007 2007 2007 2007 2007 
2007 2007 2007 2007 2007 2007 2007 2007 2007 
2007 2007 2007 2007 2007 2007 2007 2007 2007 
2007 2007 2007 2007 2007 2007 2007 2007 2007 
2007 2007 2007 2007 2007 2007 2007 2007 2007 
2007 2007 2007 2007 2007 2007 2007 2007 2007 
2007 2007 2007 2007 2007 2007 2007 2007 2007 
2007 2007 2007 2007 2007 2007 2007 2007 2007 
2007 2007 2007 2007 2007 2007 2007 2007 2007 
2007 2007 2007 2007 2007 2007 2007 2007 2007 
2007 2007 2007 2007 2007 2007 2007 2007 2007 
2007 2007 2007 2007 2007 2007 2007 2007 2007 
2007 2007 2007 2007 2007 2007 2007 2007 2007 
2007 2007 2007 2007 2007 2007 2007 2007 2007 
2007 2007 2007 2007 2007 2007 2007 2007 2007 
2007 2007 2007 2007 2007 2007 2007 2007 2007 
2007 2007 2007 2007 2007 2007 2007 2007 2007 
2007 2007 2007 2007 2007 2007 2007 2007 2007 
2007 2007 2007 2007 2007 2007 2007 2007 2007 
2007 2007 2007 2007 2007 2007 2007 2007 2007 
2007 2007 2007 2007 2007 2007 2007 2007 2007 
2007 2007 2007 2007 2007 2007 2007 2007 2007 
2007 2007 2007 2007 2007 2007 2007 2007 2007 
2007 2007 2007 2007 2007 2007 2007 2007 2007 
2007 2007 2007 2007 2007 2007 2007 2007 2007 
2007 2007 2007 2007 2007 2007 2007 2007 2007 
2007 2007 2007 2007 2007 2007 2007 2007 2007 
2007 2007 2007 2007 2007 2007 2007 2007 2007 
2007 2007 2007 2007 2007 2007 2007 2007 2007 
2007 2007 2007 2007 2007 2007 2007 2007 2007 
2007 2007 2007 2007 2007 2007 2007 2007 2007 
2007 2007 2007 2007 2007 2007 2007 2007 2007 
2007 2007 2007 2007 2007 2007 2007 2007 2007 
2007 2007 2007 2007 2007 2007 2007 2007 2007 
2007 2007 2007 2007 2007 2007 2007 2007 2007 
2007 2007 2007 2007 2007 2007 2007 2007 2007 
2007 2007 2007 2007 2007 2007 2007 2007 2007 
2007 2007 2007 2007 2007 2007 2007 2007 2007 
2007 2007 2007 2007 2007 2007 2007 2007 2007 
2007 2007 2007 2007 2007 2007 2007 2007 2007 
2007 2007 2007 2007 2007 2007 2007 2007 2007 
2007 2007 2007 2007 2007 2007 2007 2007 2007 
2007 2007 2007 2007 2007 2007 2007 2007 2007 
2007 2007 2007 2007 2007 2007 2007 2007 2007 
2007 2007 2007 2007 2007 2007 2007 2007 2007 
2007 2007 2007 2007 2007 2007 2007 2007 2007 
2007 2007 2007 2007 2007 2007 2007 2007 2007 
2007 2007 2007 2007 2007 2007 2007 2007 2007 
2007 2007 2007 2007 2007 2007 2007 2007 2007 
2007 2007 2007 2007 2007 2007 2007 2007 2007 
2007 2007 2007 2007 2007 2007 2007 2007 2007 
2007 2007 2007 2007 2007 2007 2007 2007 2007 
2007 2007 2007 2007 2007 2007 2007 2007 2007 
2007 2007 2007 2007 2007 2007 2007 2007 2007 
2007 2007 2007 2007 2007 2007 2007 2007 2007 
2007 2007 2007 2007 2007 2007 2007 2007 2007 
2007 2007 2007 2007 2007 2007 2007 2007 2007 
2007 2007 2007 2007 2007 2007 2007 2007 2007 
2007 2007 2007 2007 2007 2007 2007 2007 2007 
2007 2007 2007 2007 2007 2007 2007 2007 2007 
2007 2007 2007 2007 2007 2007 2007 2007 2007 
2007 2007 2007 2007 2007 2007 2007 2007 2007 
2007 2007 2007 2007 2007 2007 2007 2007 2007 
2007 2007 2007 2007 2007 2007 2007 2007 2007 
2007 2007 2007 2007 2007 2007 2007 2007 2007 
2007 2007 2007 2007 2007 2007 2007 2007 2007 
2007 2007 2007 2007 2007 2007 2007 2007 2007 
2007 2007 2007 2007 2007 2007 2007 2007 2007 
2007 2007 2007 2007 2007 2007 2007 2007 2007 
2007 2007 2007 2007 2007 2007 2007 2007 2007 
2007 2007 2007 2007 2007 2007 2007 2007 2007 
2007 2007 2007 2007 2007 2007 2007 2007 2007 
2007 2007 2007 2007 2007 2007 2007 2007 2007 
2007 2007 2007 2007 2007 2007 2007 2007 2007 
2007 2007 2007 2007 2007 2007 2007 2007 2007 
2007 2007 2007 2007 2007 2007 2007 2007 2007 
2007 2007 2007 2007 2007 2007 2007 2007 2007 
2007 2007 2007 2007 2007 2007 2007 2007 2007 
2007 2007 2007 2007 2007 2007 2007 2007 2007 
2007 2007 2007 2007 2007 2007 2007 2007 2007 
2007 2007 2007 2007 2007 2007 2007 2007 2007 
2007 2007 2007 2007 2007 2007 2007 2007 2007 
2007 2007 2007 2007 2007 2007 2007 2007 2007 
2007 2007 2007 2007 2007 2007 2007 2007 2007 
2007 2007 2007 2007 2007 2007 2007 2007 2007 
2007 2007 2007 2007 2007 2007 2007 2007 2007 
2007 2007 2007 2007 2007 2007 2007 2007 2007 
2007 2007 2007 2007 2007 2007 2007 2007 2007 
2007 2007 2007 2007 2007 2007 2007 2007 2007 
2007 2007 2007 2007 2007 2007 2007 2007 2007 