# vtk DataFile Version 4.2
vtk output
ASCII
DATASET POLYDATA
POINTS 5390 float
-6.85399 15.8575 70.3056 -6.79097 15.5422 70.9616 -6.19922 15.516 70.5478 
-7.66078 15.7813 70.3094 -7.39059 15.5336 70.9683 -8.05131 15.4574 70.6174 
-5.8564 15.8684 69.4702 -5.46716 15.4543 69.9517 -5.03579 15.5926 69.3599 
-6.84408 16.0214 69.3453 -7.57285 15.8782 69.5211 -8.20269 15.5157 69.7841 
-4.97654 15.8348 68.5561 -4.61668 15.5312 68.9886 -4.23733 15.4727 68.3157 
-5.82319 16.0092 68.359 -6.69897 16.0368 68.4851 -7.76153 15.9071 68.4286 
-8.294 15.5205 68.8197 -4.79377 15.8942 67.4468 -4.11664 15.5702 67.1472 
-5.69663 16.0286 67.4717 -6.71261 16.0564 67.463 -7.73916 16.0344 67.4307 
-8.59629 15.5712 68.028 -8.62494 15.8206 67.3598 -9.12951 15.4423 67.4818 
-4.76865 15.9208 66.3966 -4.22199 15.6288 66.2371 -5.6763 16.0449 66.4317 
-6.73095 16.0535 66.4459 -7.61091 16.0552 66.5869 -8.4797 15.858 66.3497 
-9.24676 15.5181 66.7077 -4.6566 15.8116 65.6592 -4.33377 15.3641 65.6472 
-5.39557 15.9069 65.5487 -6.47591 15.9086 65.5367 -7.65186 15.8654 65.6262 
-8.35478 15.3887 65.3866 -8.98849 15.1828 65.951 -4.89806 15.5974 65.2144 
-5.74945 15.3898 64.884 -7.04981 15.5253 64.8647 -7.85506 15.3514 64.8779 
-6.8022 15.0345 71.3512 -6.78971 14.5015 71.8979 -6.19661 14.483 71.5011 
-7.97959 15.0176 71.3513 -7.47689 14.5105 72.0168 -8.73175 14.7465 71.2929 
-8.59914 14.3104 72.0245 -9.18292 14.3233 71.5225 -4.9224 14.7302 70.4632 
-4.6904 14.2539 70.6941 -4.42711 14.502 70.1969 -5.66373 15.0015 70.6347 
-5.3472 14.2994 71.0423 -8.77006 15.0088 70.3566 -9.30188 14.4989 70.8261 
-4.6495 15.1099 69.5657 -4.01718 14.453 69.5315 -8.87885 15.1217 69.1834 
-9.55666 14.5757 70.0851 -9.57434 14.766 69.3912 -10.0693 14.4082 69.5491 
-3.81751 14.8862 68.6669 -3.56802 14.3192 69.0343 -3.33452 14.3778 68.3905 
-9.02429 15.198 68.2093 -9.64966 14.8522 68.4126 -10.2468 14.4699 68.7208 
-3.62365 15.0487 67.696 -3.2738 14.4038 67.4373 -9.68484 15.0183 67.3104 
-10.2725 14.5015 67.7096 -3.77199 15.0009 66.5045 -3.34474 14.1918 66.541 
-9.6555 15.0302 66.4403 -10.0443 14.3886 66.7943 -3.85588 14.3007 66.0706 
-4.34605 14.644 65.7834 -4.82343 15.0086 65.2257 -5.02987 14.2949 65.5893 
-8.40712 14.7436 65.4129 -8.56214 14.2044 65.9025 -9.51526 14.5135 66.2115 
-5.37305 14.5774 64.7182 -5.88963 14.9017 64.2382 -6.57295 15.1532 64.3274 
-7.45291 14.9193 64.1628 -8.03037 14.6592 64.7048 -5.81311 14.5106 63.931 
-6.2728 14.3428 63.4821 -6.56939 14.7201 63.6507 -7.19486 14.4953 63.4637 
-7.62557 14.3584 63.9004 -6.74127 14.4161 63.231 -6.79704 13.9985 72.3177 
-6.76377 13.5089 72.8989 -6.201 13.4852 72.4837 -7.94362 14.0009 72.5256 
-7.46186 13.5219 73.0225 -8.62841 13.8899 72.5246 -8.61105 13.323 73.0405 
-9.18765 13.5153 72.5174 -5.87206 13.9034 71.735 -5.69931 13.4774 71.9803 
-5.31381 13.5615 71.5388 -9.87997 13.9199 71.1746 -9.49501 13.7491 71.9546 
-10.1309 13.4286 71.6739 -4.81524 13.7527 71.0222 -4.16515 13.7501 70.4366 
-10.0035 14.1822 70.2687 -10.5453 13.5249 71.0863 -10.6174 13.7662 70.393 
-11.0666 13.4108 70.5904 -3.68418 13.9006 69.6405 -3.58185 13.3231 70.0997 
-3.30577 13.5225 69.3502 -10.6575 13.9985 69.3562 -11.2599 13.4903 69.7424 
-3.14261 13.5024 68.447 -10.7863 14.0207 68.1863 -11.3088 13.532 68.6866 
-3.13022 13.5311 67.4268 -6.77113 13.7565 67.2147 -6.16145 13.3578 67.3187 
-6.58552 13.295 67.757 -7.1605 13.3318 67.741 -10.5841 13.9064 67.303 
-11.3056 13.3148 67.5042 -3.05432 13.3537 66.5473 -5.8102 13.8327 66.4375 
-5.38622 13.5033 66.5035 -5.76012 13.328 66.8241 -6.87903 13.9918 66.356 
-7.70735 13.345 67.1979 -7.61724 13.9028 66.5028 -8.20947 13.4702 66.4405 
-9.7737 14.0209 66.4824 -9.31077 13.8013 66.1335 -9.79851 13.3687 66.7209 
-10.7558 13.3154 66.938 -3.53864 13.5255 66.0463 -4.64843 13.6492 66.0086 
-5.77342 14.0468 65.2019 -6.69998 13.9348 65.4631 -7.73467 14.1658 65.5221 
-8.46889 13.5802 65.4649 -8.85003 13.9426 65.4746 -9.42029 13.7007 65.2783 
-9.41559 13.1577 65.9352 -10.0667 13.1694 65.5878 -5.93265 14.1343 64.1637 
-6.53445 13.908 64.5277 -7.41804 14.0465 64.4891 -8.72581 13.7247 64.7049 
-8.45988 13.4184 64.5519 -9.10031 13.3846 64.5911 -9.81173 13.2293 65.015 
-6.861 14.129 63.652 -8.61667 13.4919 64.2167 -6.7815 13.0228 73.3274 
-6.63772 12.188 73.8703 -6.10164 12.5948 73.3955 -7.96394 13.0244 73.54 
-7.72745 12.3927 73.9026 -8.62696 12.9153 73.5394 -8.65833 12.4006 73.8327 
-9.19921 12.5029 73.5057 -5.6825 12.9899 72.489 -5.61997 12.3605 73.1055 
-5.18884 12.3435 72.4645 -10.0449 13.0643 72.337 -9.7115 12.6034 73.0113 
-10.9238 12.782 72.232 -10.6356 12.3446 72.7888 -11.2847 12.306 72.5763 
-4.71127 12.9983 71.4725 -4.71292 12.136 71.8728 -4.22083 12.3421 71.2189 
-10.8316 13.1641 71.4439 -11.7949 12.3292 72.1292 -11.613 12.8213 71.4334 
-12.266 12.3925 71.476 -3.86832 12.9155 70.7497 -3.76891 12.3193 70.7451 
-3.3935 12.5793 70.1568 -11.638 13.037 70.3778 -12.2514 12.5481 70.7115 
-3.16042 12.6529 69.3294 -11.7862 13.0427 69.166 -12.0494 12.4153 69.6019 
-3.1322 12.5211 68.4865 -7.56443 12.8215 68.1897 -7.25036 12.3056 68.3326 
-7.71638 12.1995 68.734 -8.16969 12.3573 68.4986 -11.8116 13.0462 68.137 
-12.022 12.3693 68.3588 -3.0003 12.5688 67.3857 -6.40879 12.7727 67.5616 
-6.88884 12.6521 67.911 -7.65525 13.135 67.6936 -8.18247 12.6417 67.7602 
-11.8186 12.9202 67.4889 -12.0643 12.5329 67.6108 -2.69515 12.7702 66.5665 
-2.62503 12.1425 66.8576 -2.45556 12.2265 66.3753 -5.53005 13.0596 66.1831 
-6.19576 12.674 66.8065 -8.62633 12.8167 66.9777 -8.85104 13.2139 66.2602 
-10.0154 12.998 66.262 -9.34281 12.5852 66.5303 -10.5573 12.9795 66.5052 
-11.1474 12.6675 66.6139 -11.7556 12.3025 66.9991 -2.9812 12.5445 66.0875 
-3.89443 12.6854 65.8069 -4.78749 12.8418 65.6322 -4.22868 12.2201 65.5079 
-5.51216 12.7533 65.4649 -6.16508 12.5086 65.7745 -8.86389 13.0648 65.1679 
-9.39122 12.4695 65.6853 -10.6633 12.4727 66.0104 -10.146 12.4389 65.4717 
-4.822 12.3323 65.0081 -5.82604 12.4375 65.0956 -8.6325 13.2901 64.3741 
-9.54927 12.7168 65.0546 -5.83156 12.1008 73.61 -5.75422 11.2989 73.8599 
-5.23035 11.6874 73.1939 -6.87747 11.3388 73.9919 -7.74222 11.4966 74.0086 
-8.73935 11.5038 73.9984 -9.87879 11.9095 73.4402 -9.61882 11.5366 73.8123 
-10.3117 11.289 73.5473 -4.94224 11.7163 72.478 -10.644 11.5728 73.1667 
-11.7452 11.9725 72.5277 -11.5706 11.537 72.8349 -12.2615 11.5084 72.4756 
-4.62573 11.3856 72.1549 -4.365 11.4648 71.5696 -12.788 11.9853 71.1101 
-12.6141 11.7767 71.8875 -13.1419 11.238 71.6398 -3.61646 11.8733 70.3214 
-4.03425 11.5342 70.7677 -12.5901 11.9857 70.3107 -13.101 11.3835 70.7413 
-3.69303 11.1306 70.0309 -3.29439 11.7378 69.5353 -11.7329 11.9618 69.3858 
-11.4119 11.4753 69.2145 -12.0899 11.472 69.7424 -12.7478 11.3142 70.1753 
-3.1857 11.4911 68.5015 -7.27485 11.5403 68.647 -7.66634 11.4786 69.1003 
-8.52783 11.4647 69.0339 -8.84961 11.9128 68.1909 -9.24741 11.3221 68.6007 
-11.6755 11.947 68.8198 -11.1579 11.3486 68.6469 -3.23863 11.2774 67.449 
-6.70212 12.0842 67.2084 -7.06116 11.5623 67.7978 -8.96063 12.1452 67.2794 
-9.51796 11.4888 68.0732 -9.55241 11.6923 67.3893 -10.0273 11.3156 67.5446 
-11.4905 11.2717 68.0606 -12.1516 11.5126 67.5744 -2.71617 11.3809 66.7845 
-2.42525 11.6601 66.5294 -6.73225 11.9817 66.2233 -7.21733 11.3069 66.7466 
-9.73727 11.9327 66.2752 -10.2702 11.3728 66.7278 -11.2165 11.5353 66.4729 
-11.8734 11.2512 66.8927 -2.71142 11.5324 66.2168 -3.50509 11.6397 65.819 
-3.99219 11.7095 65.2506 -6.57197 12.0064 65.166 -7.28642 11.5013 65.708 
-9.73396 12.2139 65.4769 -10.5607 11.6653 66.0582 -3.97904 11.8044 64.6164 
-3.54041 11.4105 64.869 -3.43716 11.4213 64.2989 -4.55904 11.9417 64.371 
-5.60522 12.0184 64.5079 -6.50134 11.7541 64.4287 -7.20393 11.5157 64.7721 
-3.98661 11.5131 63.9963 -4.92719 11.5237 63.9128 -5.99986 11.5024 63.9246 
-6.843 11.4339 64.1113 -4.82212 10.9678 73.509 -4.88258 10.2557 73.8364 
-4.41419 10.4503 73.2857 -5.80721 10.3197 73.9991 -6.69574 10.5092 73.9721 
-7.72082 10.5005 73.9603 -8.73024 10.4824 73.9739 -9.72007 10.4744 73.9693 
-10.8795 10.8446 73.4204 -10.6285 10.478 73.791 -11.3649 10.2577 73.5619 
-4.66107 11.0558 72.8317 -4.30908 10.5189 72.4112 -11.5439 10.7075 73.2029 
-12.8745 11.0586 72.3302 -12.4601 10.6281 72.9407 -13.1842 10.3272 72.5723 
-4.10487 10.4977 71.3249 -13.3255 10.4916 71.4742 -3.96788 10.7076 70.4401 
-13.0676 10.5976 70.5732 -3.64298 10.3722 70.0905 -3.3376 10.5347 69.491 
-7.97485 10.956 69.5179 -7.3269 10.5984 69.4189 -7.79316 10.2702 70.0218 
-8.60098 10.3672 69.8098 -8.56246 10.9094 69.51 -9.16392 10.4894 69.519 
-11.8959 10.917 69.1842 -12.3125 10.2441 69.3929 -12.5773 10.5671 70.0831 
-3.40089 10.4245 68.6114 -7.15126 10.5002 68.524 -9.55351 10.7508 69.0512 
-10.0111 11.0258 68.3041 -10.7411 10.7272 68.9405 -10.766 11.0437 68.2599 
-11.2042 10.3122 68.5621 -11.8677 10.9091 68.41 -12.633 10.4938 68.8986 
-12.5828 10.7056 68.6433 -12.9162 10.4423 68.4788 -3.67189 10.6692 67.9049 
-3.74626 10.8076 67.4598 -4.04534 10.1662 67.6168 -7.31111 10.3564 67.5012 
-10.8099 10.998 67.2809 -11.3787 10.2652 67.6557 -12.6282 10.645 68.0575 
-12.2481 10.5564 67.4112 -2.62869 11.1666 66.4734 -3.12772 10.8488 66.3379 
-3.75175 10.4905 66.9713 -7.64315 10.5729 66.7916 -7.76793 10.9183 66.1509 
-7.97325 10.268 66.4424 -10.7591 11.2082 66.4567 -11.5822 10.6336 67.0155 
-1.997 10.695 65.4579 -1.78386 10.1561 65.8418 -1.35899 10.2554 65.2855 
-2.7374 10.3061 66.0034 -2.77145 10.8114 65.5956 -3.39195 11.1184 65.4545 
-7.96143 11.0373 65.1796 -8.28066 10.2843 65.6996 -1.77985 10.6198 64.8862 
-2.06862 10.5379 64.1227 -2.74313 10.9928 64.6368 -7.57035 11.1619 64.2357 
-8.62365 10.5487 64.9527 -8.43746 10.8006 64.3161 -9.00126 10.204 64.4252 
-2.63307 10.7556 63.6678 -2.26424 10.4699 63.5189 -3.36786 10.9903 63.6263 
-4.3913 10.9849 63.4516 -5.57281 10.975 63.3328 -6.72521 11.1298 63.5647 
-7.61012 10.837 63.4203 -8.33321 10.589 63.6195 -8.83356 10.3655 63.9012 
-2.74585 10.3393 63.0628 -3.92198 10.4676 62.9667 -4.93172 10.4588 62.9486 
-5.7434 10.5113 62.7813 -6.24099 10.3553 62.314 -6.56383 10.7272 62.7908 
[...]
CELL_DATA 10804
SCALARS scalars float
LOOKUP_TABLE default
1017 1017 1017 1017 1017 1017 1017 1017 1017 
1017 1017 1017 1017 1017 1017 1017 1017 1017 
1017 1017 1017 1017 1017 1017 1017 1017 1017 
1017 1017 1017 1017 1017 1017 1017 1017 1017 
1017 1017 1017 1017 1017 1017 1017 1017 1017 
1017 1017 1017 1017 1017 1017 1017 1017 1017 
1017 1017 1017 1017 1017 1017 1017 1017 1017 
1017 1017 1017 1017 1017 1017 1017 1017 1017 
1017 1017 1017 1017 1017 1017 1017 1017 1017 
1017 1017 1017 1017 1017 1017 1017 1017 1017 
1017 1017 1017 1017 1017 1017 1017 1017 1017 
1017 1017 1017 1017 1017 1017 1017 1017 1017 
1017 1017 1017 1017 1017 1017 1017 1017 1017 
1017 1017 1017 1017 1017 1017 1017 1017 1017 
1017 1017 1017 1017 1017 1017 1017 1017 1017 
1017 1017 1017 1017 1017 1017 1017 1017 1017 
1017 1017 1017 1017 1017 1017 1017 1017 1017 
1017 1017 1017 1017 1017 1017 1017 1017 1017 
1017 1017 1017 1017 1017 1017 1017 1017 1017 
1017 1017 1017 1017 1017 1017 1017 1017 1017 
1017 1017 1017 1017 1017 1017 1017 1017 1017 
1017 1017 1017 1017 1017 1017 1017 1017 1017 
1017 1017 1017 1017 1017 1017 1017 1017 1017 
1017 1017 1017 1017 1017 1017 1017 1017 1017 
1017 1017 1017 1017 1017 1017 1017 1017 1017 
1017 1017 1017 1017 1017 1017 1017 1017 1017 
1017 1017 1017 1017 1017 1017 1017 1017 1017 
1017 1017 1017 1017 1017 1017 1017 1017 1017 
1017 1017 1017 1017 1017 1017 1017 1017 1017 
1017 1017 1017 1017 1017 1017 1017 1017 1017 
1017 1017 1017 1017 1017 1017 1017 1017 1017 
1017 1017 1017 1017 1017 1017 1017 1017 1017 
1017 1017 1017 1017 1017 1017 1017 1017 1017 
1017 1017 1017 1017 1017 1017 1017 1017 1017 
1017 1017 1017 1017 1017 1017 1017 1017 1017 
1017 1017 1017 1017 1017 1017 1017 1017 1017 
1017 1017 1017 1017 1017 1017 1017 1017 1017 
1017 1017 1017 1017 1017 1017 1017 1017 1017 
1017 1017 1017 1017 1017 1017 1017 1017 1017 
1017 1017 1017 1017 1017 1017 1017 1017 1017 
1017 1017 1017 1017 1017 1017 1017 1017 1017 
1017 1017 1017 1017 1017 1017 1017 1017 1017 
1017 1017 1017 1017 1017 1017 1017 1017 1017 
1017 1017 1017 1017 1017 1017 1017 1017 1017 
1017 1017 1017 1017 1017 1017 1017 1017 1017 
1017 1017 1017 1017 1017 1017 1017 1017 1017 
1017 1017 1017 1017 1017 1017 1017 1017 1017 
1017 1017 1017 1017 1017 1017 1017 1017 1017 
1017 1017 1017 1017 1017 1017 1017 1017 1017 
1017 1017 1017 1017 1017 1017 1017 1017 1017 
1017 1017 1017 1017 1017 1017 1017 1017 1017 
1017 1017 1017 1017 1017 1017 1017 1017 1017 
1017 1017 1017 1017 1017 1017 1017 1017 1017 
1017 1017 1017 1017 1017 1017 1017 1017 1017 
1017 1017 1017 1017 1017 1017 1017 1017 1017 
1017 1017 1017 1017 1017 1017 1017 1017 1017 
1017 1017 1017 1017 1017 1017 1017 1017 1017 
1017 1017 1017 1017 1017 1017 1017 1017 1017 
1017 1017 1017 1017 1017 1017 1017 1017 1017 
1017 1017 1017 1017 1017 1017 1017 1017 1017 
1017 1017 1017 1017 1017 1017 1017 1017 1017 
1017 1017 1017 1017 1017 1017 1017 1017 1017 
1017 1017 1017 1017 1017 1017 1017 1017 1017 
1017 1017 1017 1017 1017 1017 1017 1017 1017 
1017 1017 1017 1017 1017 1017 1017 1017 1017 
1017 1017 1017 1017 1017 1017 1017 1017 1017 
1017 1017 1017 1017 1017 1017 1017 1017 1017 
1017 1017 1017 1017 1017 1017 1017 1017 1017 
1017 1017 1017 1017 1017 1017 1017 1017 1017 
1017 1017 1017 1017 1017 1017 1017 1017 1017 
1017 1017 1017 1017 1017 1017 1017 1017 1017 
1017 1017 1017 1017 1017 1017 1017 1017 1017 
1017 1017 1017 1017 1017 1017 1017 1017 1017 
1017 1017 1017 1017 1017 1017 1017 1017 1017 
1017 1017 1017 1017 1017 1017 1017 1017 1017 
1017 1017 1017 1017 1017 1017 1017 1017 1017 
1017 1017 1017 1017 1017 1017 1017 1017 1017 
1017 1017 1017 1017 1017 1017 1017 1017 1017 
1017 1017 1017 1017 1017 1017 1017 1017 1017 
1017 1017 1017 1017 1017 1017 1017 1017 1017 
1017 1017 1017 1017 1017 1017 1017 1017 1017 
1017 1017 1017 1017 1017 1017 1017 1017 1017 
1017 1017 1017 1017 1017 1017 1017 1017 1017 
1017 1017 1017 1017 1017 1017 1017 1017 1017 
1017 1017 1017 1017 1017 1017 1017 1017 1017 
1017 1017 1017 1017 1017 1017 1017 1017 1017 
1017 1017 1017 1017 1017 1017 1017 1017 1017 
1017 1017 1017 1017 1017 1017 1017 1017 1017 
1017 1017 1017 1017 1017 1017 1017 1017 1017 
1017 1017 1017 1017 1017 1017 1017 1017 1017 
1017 1017 1017 1017 1017 1017 1017 1017 1017 
1017 1017 1017 1017 1017 1017 1017 1017 1017 
1017 1017 1017 1017 1017 1017 1017 1017 1017 
1017 1017 1017 1017 1017 1017 1017 1017 1017 
1017 1017 1017 1017 1017 1017 1017 1017 1017 
1017 1017 1017 1017 1017 1017 1017 1017 1017 
1017 1017 1017 1017 1017 1017 1017 1017 1017 
1017 1017 1017 1017 1017 1017 1017 1017 1017 
1017 1017 1017 1017 1017 1017 1017 1017 1017 
1017 1017 1017 1017 1017 1017 1017 1017 1017 
1017 1017 1017 1017 1017 1017 1017 1017 1017 
1017 1017 1017 1017 1017 1017 1017 1017 1017 
1017 1017 1017 1017 1017 1017 1017 1017 1017 
1017 1017 1017 1017 1017 1017 1017 1017 1017 
1017 1017 1017 1017 1017 1017 1017 1017 1017 
1017 1017 1017 1017 1017 1017 1017 1017 1017 
1017 1017 1017 1017 1017 1017 1017 1017 1017 
1017 1017 1017 1017 1017 1017 1017 1017 1017 
1017 1017 1017 1017 1017 1017 1017 1017 1017 
1017 1017 1017 1017 1017 1017 1017 1017 1017 
1017 1017 1017 1017 1017 1017 1017 1017 1017 
1017 1017 1017 1017 1017 1017 1017 1017 1017 
1017 1017 1017 1017 1017 1017 1017 1017 1017 
1017 1017 1017 1017 1017 1017 1017 1017 1017 
1017 1017 1017 1017 1017 1017 1017 1017 1017 
1017 1017 1017 1017 1017 1017 1017 1017 1017 
1017 1017 1017 1017 1017 1017 1017 1017 1017 
1017 1017 1017 1017 1017 1017 1017 1017 1017 
1017 1017 1017 1017 1017 1017 1017 1017 1017 
1017 1017 1017 1017 1017 1017 1017 1017 1017 
1017 1017 1017 1017 1017 1017 1017 1017 1017 
1017 1017 1017 1017 1017 1017 1017 1017 1017 
1017 1017 1017 1017 1017 1017 1017 1017 1017 
1017 1017 1017 1017 1017 1017 1017 1017 1017 
1017 1017 1017 1017 1017 1017 1017 1017 1017 
1017 1017 1017 1017 1017 1017 1017 1017 1017 
1017 1017 1017 1017 1017 1017 1017 1017 1017 
1017 1017 1017 1017 1017 1017 1017 1017 1017 
1017 1017 1017 1017 1017 1017 1017 1017 1017 
1017 1017 1017 1017 1017 1017 1017 1017 1017 
1017 1017 1017 1017 1017 1017 1017 1017 1017 
1017 1017 1017 1017 1017 1017 1017 1017 1017 
1017 1017 1017 1017 1017 1017 1017 1017 1017 
1017 1017 1017 1017 1017 1017 1017 1017 1017 
1017 1017 1017 1017 1017 1017 1017 1017 1017 
1017 1017 1017 1017 1017 1017 1017 1017 1017 
1017 1017 1017 1017 1017 1017 1017 1017 1017 
1017 1017 1017 1017 1017 1017 1017 1017 1017 
1017 1017 1017 1017 1017 1017 1017 1017 1017 
1017 1017 1017 1017 1017 1017 1017 1017 1017 
1017 1017 1017 1017 1017 1017 1017 1017 1017 
1017 1017 1017 1017 1017 1017 1017 1017 1017 
1017 1017 1017 1017 1017 1017 1017 1017 1017 
1017 1017 1017 1017 1017 1017 1017 1017 1017 
1017 1017 1017 1017 1017 1017 1017 1017 1017 
1017 1017 1017 1017 1017 1017 1017 1017 1017 
1017 1017 1017 1017 1017 1017 1017 1017 1017 
1017 1017 1017 1017 1017 1017 1017 1017 1017 
1017 1017 1017 1017 1017 1017 1017 1017 1017 
1017 1017 1017 1017 1017 1017 1017 1017 1017 
1017 1017 1017 1017 1017 1017 1017 1017 1017 
1017 1017 1017 1017 1017 1017 1017 1017 1017 
1017 1017 1017 1017 1017 1017 1017 1017 1017 
1017 1017 1017 1017 1017 1017 1017 1017 1017 
1017 1017 1017 1017 1017 1017 1017 1017 1017 
1017 1017 1017 1017 1017 1017 1017 1017 1017 
1017 1017 1017 1017 1017 1017 1017 1017 1017 
1017 1017 1017 1017 1017 1017 1017 1017 1017 
1017 1017 1017 1017 1017 1017 1017 1017 1017 
1017 1017 1017 1017 1017 1017 1017 1017 1017 
1017 1017 1017 1017 1017 1017 1017 1017 1017 
1017 1017 1017 1017 1017 1017 1017 1017 1017 
1017 1017 1017 1017 1017 1017 1017 1017 1017 
1017 1017 1017 1017 1017 1017 1017 1017 1017 
1017 1017 1017 1017 1017 1017 1017 1017 1017 
1017 1017 1017 1017 1017 1017 1017 1017 1017 
1017 1017 1017 1017 1017 1017 1017 1017 1017 
1017 1017 1017 1017 1017 1017 1017 1017 1017 
1017 1017 1017 1017 1017 1017 1017 1017 1017 
1017 1017 1017 1017 1017 1017 1017 1017 1017 
1017 1017 1017 1017 1017 1017 1017 1017 1017 
1017 1017 1017 1017 1017 1017 1017 1017 1017 
1017 1017 1017 1017 1017 1017 1017 1017 1017 
1017 1017 1017 1017 1017 1017 1017 1017 1017 
1017 1017 1017 1017 1017 1017 1017 1017 1017 
1017 1017 1017 1017 1017 1017 1017 1017 1017 
1017 1017 1017 1017 1017 1017 1017 1017 1017 
1017 1017 1017 1017 1017 1017 1017 1017 1017 
1017 1017 1017 1017 1017 1017 1017 1017 1017 
1017 1017 1017 1017 1017 1017 1017 1017 1017 
1017 1017 1017 1017 1017 1017 1017 1017 1017 
1017 1017 1017 1017 1017 1017 1017 1017 1017 
1017 1017 1017 1017 1017 1017 1017 1017 1017 
1017 1017 1017 1017 1017 1017 1017 1017 1017 
1017 1017 1017 1017 1017 1017 1017 1017 1017 
1017 1017 1017 1017 1017 1017 1017 1017 1017 
1017 1017 1017 1017 1017 1017 1017 1017 1017 
1017 1017 1017 1017 1017 1017 1017 1017 1017 
1017 1017 1017 1017 1017 1017 1017 1017 1017 
1017 1017 1017 1017 1017 1017 1017 1017 1017 
1017 1017 1017 1017 1017 1017 1017 1017 1017 
1017 1017 1017 1017 1017 1017 1017 1017 1017 
1017 1017 1017 1017 1017 1017 1017 1017 1017 
1017 1017 1017 1017 1017 1017 1017 1017 1017 
1017 1017 1017 1017 1017 1017 1017 1017 1017 
1017 1017 1017 1017 1017 1017 1017 1017 1017 
1017 1017 1017 1017 1017 1017 1017 1017 1017 
1017 1017 1017 1017 1017 1017 1017 1017 1017 
1017 1017 1017 1017 1017 1017 1017 1017 1017 
1017 1017 1017 1017 1017 1017 1017 1017 1017 
1017 1017 1017 1017 1017 1017 1017 1017 1017 
1017 1017 1017 1017 1017 1017 1017 1017 1017 
1017 1017 1017 1017 1017 1017 1017 1017 1017 
1017 1017 1017 1017 1017 1017 1017 1017 1017 
1017 1017 1017 1017 1017 1017 1017 1017 1017 
1017 1017 1017 1017 1017 1017 1017 1017 1017 
1017 1017 1017 1017 1017 1017 1017 1017 1017 
1017 1017 1017 1017 1017 1017 1017 1017 1017 
1017 1017 1017 1017 1017 1017 1017 1017 1017 
1017 1017 1017 1017 1017 1017 1017 1017 1017 
1017 1017 1017 1017 1017 1017 1017 1017 1017 
1017 1017 1017 1017 1017 1017 1017 1017 1017 
1017 1017 1017 1017 1017 1017 1017 1017 1017 
1017 1017 1017 1017 1017 1017 1017 1017 1017 
1017 1017 1017 1017 1017 1017 1017 1017 1017 
1017 1017 1017 1017 1017 1017 1017 1017 1017 
1017 1017 1017 1017 1017 1017 1017 1017 1017 
1017 1017 1017 1017 1017 1017 1017 1017 1017 
1017 1017 1017 1017 1017 1017 1017 1017 1017 
1017 1017 1017 1017 1017 1017 1017 1017 1017 
1017 1017 1017 1017 1017 1017 1017 1017 1017 
1017 1017 1017 1017 1017 1017 1017 1017 1017 
1017 1017 1017 1017 1017 1017 1017 1017 1017 
1017 1017 1017 1017 1017 1017 1017 1017 1017 
1017 1017 1017 1017 1017 1017 1017 1017 1017 
1017 1017 1017 1017 1017 1017 1017 1017 1017 
1017 1017 1017 1017 1017 1017 1017 1017 1017 
1017 1017 1017 1017 1017 1017 1017 1017 1017 
1017 1017 1017 1017 1017 1017 1017 1017 1017 
1017 1017 1017 1017 1017 1017 1017 1017 1017 
1017 1017 1017 1017 1017 1017 1017 1017 1017 
1017 1017 1017 1017 1017 1017 1017 1017 1017 
1017 1017 1017 1017 1017 1017 1017 1017 1017 
1017 1017 1017 1017 1017 1017 1017 1017 1017 
1017 1017 1017 1017 1017 1017 1017 1017 1017 
1017 1017 1017 1017 1017 1017 1017 1017 1017 
1017 1017 1017 1017 1017 1017 1017 1017 1017 
1017 1017 1017 1017 1017 1017 1017 1017 1017 
1017 1017 1017 1017 1017 1017 1017 1017 1017 
1017 1017 1017 1017 1017 1017 1017 1017 1017 
1017 1017 1017 1017 1017 1017 1017 1017 1017 
1017 1017 1017 1017 1017 1017 1017 1017 1017 
1017 1017 1017 1017 1017 1017 1017 1017 1017 
1017 1017 1017 1017 1017 1017 1017 1017 1017 
1017 1017 1017 1017 1017 1017 1017 1017 1017 
1017 1017 1017 1017 1017 1017 1017 1017 1017 
1017 1017 1017 1017 1017 1017 1017 1017 1017 
1017 1017 1017 1017 1017 1017 1017 1017 1017 
1017 1017 1017 1017 1017 1017 1017 1017 1017 
1017 1017 1017 1017 1017 1017 1017 1017 1017 
1017 1017 1017 1017 1017 1017 1017 1017 1017 
1017 1017 1017 1017 1017 1017 1017 1017 1017 
1017 1017 1017 1017 1017 1017 1017 1017 1017 
1017 1017 1017 1017 1017 1017 1017 1017 1017 
1017 1017 1017 1017 1017 1017 1017 1017 1017 
1017 1017 1017 1017 1017 1017 1017 1017 1017 
1017 1017 1017 1017 1017 1017 1017 1017 1017 
1017 1017 1017 1017 1017 1017 1017 1017 1017 
1017 1017 1017 1017 1017 1017 1017 1017 1017 
1017 1017 1017 1017 1017 1017 1017 1017 1017 
1017 1017 1017 1017 1017 1017 1017 1017 1017 
1017 1017 1017 1017 1017 1017 1017 1017 1017 
1017 1017 1017 1017 1017 1017 1017 1017 1017 
1017 1017 1017 1017 1017 1017 1017 1017 1017 
1017 1017 1017 1017 1017 1017 1017 1017 1017 
1017 1017 1017 1017 1017 1017 1017 1017 1017 
1017 1017 1017 1017 1017 1017 1017 1017 1017 
1017 1017 1017 1017 1017 1017 1017 1017 1017 
1017 1017 1017 1017 1017 1017 1017 1017 1017 
1017 1017 1017 1017 1017 1017 1017 1017 1017 
1017 1017 1017 1017 1017 1017 1017 1017 1017 
1017 1017 1017 1017 1017 1017 1017 1017 1017 
1017 1017 1017 1017 1017 1017 1017 1017 1017 
1017 1017 1017 1017 1017 1017 1017 1017 1017 
1017 1017 1017 1017 1017 1017 1017 1017 1017 
1017 1017 1017 1017 1017 1017 1017 1017 1017 
1017 1017 1017 1017 1017 1017 1017 1017 1017 
1017 1017 1017 1017 1017 1017 1017 1017 1017 
1017 1017 1017 1017 1017 1017 1017 1017 1017 
1017 1017 1017 1017 1017 1017 1017 1017 1017 
1017 1017 1017 1017 1017 1017 1017 1017 1017 
1017 1017 1017 1017 1017 1017 1017 1017 1017 
1017 1017 1017 1017 1017 1017 1017 1017 1017 
1017 1017 1017 1017 1017 1017 1017 1017 1017 
1017 1017 1017 1017 1017 1017 1017 1017 1017 
1017 1017 1017 1017 1017 1017 1017 1017 1017 
1017 1017 1017 1017 1017 1017 1017 1017 1017 
1017 1017 1017 1017 1017 1017 1017 1017 1017 
1017 1017 1017 1017 1017 1017 1017 1017 1017 
1017 1017 1017 1017 1017 1017 1017 1017 1017 
1017 1017 1017 1017 1017 1017 1017 1017 1017 
1017 1017 1017 1017 1017 1017 1017 1017 1017 
1017 1017 1017 1017 1017 1017 1017 1017 1017 
1017 1017 1017 1017 1017 1017 1017 1017 1017 
1017 1017 1017 1017 1017 1017 1017 1017 1017 
1017 1017 1017 1017 1017 1017 1017 1017 1017 
1017 1017 1017 1017 1017 1017 1017 1017 1017 
1017 1017 1017 1017 1017 1017 1017 1017 1017 
1017 1017 1017 1017 1017 1017 1017 1017 1017 
1017 1017 1017 1017 1017 1017 1017 1017 1017 
1017 1017 1017 1017 1017 1017 1017 1017 1017 
1017 1017 1017 1017 1017 1017 1017 1017 1017 
1017 1017 1017 1017 1017 1017 1017 1017 1017 
1017 1017 1017 1017 1017 1017 1017 1017 1017 
1017 1017 1017 1017 1017 1017 1017 1017 1017 
1017 1017 1017 1017 1017 1017 1017 1017 1017 
1017 1017 1017 1017 1017 1017 1017 1017 1017 
1017 1017 1017 1017 1017 1017 1017 1017 1017 
1017 1017 1017 1017 1017 1017 1017 1017 1017 
1017 1017 1017 1017 1017 1017 1017 1017 1017 
1017 1017 1017 1017 1017 1017 1017 1017 1017 
1017 1017 1017 1017 1017 1017 1017 1017 1017 
1017 1017 1017 1017 1017 1017 1017 1017 1017 
1017 1017 1017 1017 1017 1017 1017 1017 1017 
1017 1017 1017 1017 1017 1017 1017 1017 1017 
1017 1017 1017 1017 1017 1017 1017 1017 1017 
1017 1017 1017 1017 1017 1017 1017 1017 1017 
1017 1017 1017 1017 1017 1017 1017 1017 1017 
1017 1017 1017 1017 1017 1017 1017 1017 1017 
1017 1017 1017 1017 1017 1017 1017 1017 1017 
1017 1017 1017 1017 1017 1017 1017 1017 1017 
1017 1017 1017 1017 1017 1017 1017 1017 1017 
1017 1017 1017 1017 1017 1017 1017 1017 1017 
1017 1017 1017 1017 1017 1017 1017 1017 1017 
1017 1017 1017 1017 1017 1017 1017 1017 1017 
1017 1017 1017 1017 1017 1017 1017 1017 1017 
1017 1017 1017 1017 1017 1017 1017 1017 1017 
1017 1017 1017 1017 1017 1017 1017 1017 1017 
1017 1017 1017 1017 1017 1017 1017 1017 1017 
1017 1017 1017 1017 1017 1017 1017 1017 1017 
1017 1017 1017 1017 1017 1017 1017 1017 1017 
1017 1017 1017 1017 1017 1017 1017 1017 1017 
1017 1017 1017 1017 1017 1017 1017 1017 1017 
1017 1017 1017 1017 1017 1017 1017 1017 1017 
1017 1017 1017 1017 1017 1017 1017 1017 1017 
1017 1017 1017 1017 1017 1017 1017 1017 1017 
1017 1017 1017 1017 1017 1017 1017 1017 1017 
1017 1017 1017 1017 1017 1017 1017 1017 1017 
1017 1017 1017 1017 1017 1017 1017 1017 1017 
1017 1017 1017 1017 1017 1017 1017 1017 1017 
1017 1017 1017 1017 1017 1017 1017 1017 1017 
1017 1017 1017 1017 1017 1017 1017 1017 1017 
1017 1017 1017 1017 1017 1017 1017 1017 1017 
1017 1017 1017 1017 1017 1017 1017 1017 1017 
1017 1017 1017 1017 1017 1017 1017 1017 1017 
1017 1017 1017 1017 1017 1017 1017 1017 1017 
1017 1017 1017 1017 1017 1017 1017 1017 1017 
1017 1017 1017 1017 1017 1017 1017 1017 1017 
1017 1017 1017 1017 1017 1017 1017 1017 1017 
1017 1017 1017 1017 1017 1017 1017 1017 1017 
1017 1017 1017 1017 1017 1017 1017 1017 1017 
1017 1017 1017 1017 1017 1017 1017 1017 1017 
1017 1017 1017 1017 1017 1017 1017 1017 1017 
1017 1017 1017 1017 1017 1017 1017 1017 1017 
1017 1017 1017 1017 1017 1017 1017 1017 1017 
1017 1017 1017 1017 1017 1017 1017 1017 1017 
1017 1017 1017 1017 1017 1017 1017 1017 1017 
1017 1017 1017 1017 1017 1017 1017 1017 1017 
1017 1017 1017 1017 1017 1017 1017 1017 1017 
1017 1017 1017 1017 1017 1017 1017 1017 1017 
1017 1017 1017 1017 1017 1017 1017 1017 1017 
1017 1017 1017 1017 1017 1017 1017 1017 1017 
1017 1017 1017 1017 1017 1017 1017 1017 1017 
1017 1017 1017 1017 1017 1017 1017 1017 1017 
1017 1017 1017 1017 1017 1017 1017 1017 1017 
1017 1017 1017 1017 1017 1017 1017 1017 1017 
1017 1017 1017 1017 1017 1017 1017 1017 1017 
1017 1017 1017 1017 1017 1017 1017 1017 1017 
1017 1017 1017 1017 1017 1017 1017 1017 1017 
1017 1017 1017 1017 1017 1017 1017 1017 1017 
1017 1017 1017 1017 1017 1017 1017 1017 1017 
1017 1017 1017 1017 1017 1017 1017 1017 1017 
1017 1017 1017 1017 1017 1017 1017 1017 1017 
1017 1017 1017 1017 1017 1017 1017 1017 1017 
1017 1017 1017 1017 1017 1017 1017 1017 1017 
1017 1017 1017 1017 1017 1017 1017 1017 1017 
1017 1017 1017 1017 1017 1017 1017 1017 1017 
1017 1017 1017 1017 1017 1017 1017 1017 1017 
1017 1017 1017 1017 1017 1017 1017 1017 1017 
1017 1017 1017 1017 1017 1017 1017 1017 1017 
1017 1017 1017 1017 1017 1017 1017 1017 1017 
1017 1017 1017 1017 1017 1017 1017 1017 1017 
1017 1017 1017 1017 1017 1017 1017 1017 1017 
1017 1017 1017 1017 1017 1017 1017 1017 1017 
1017 1017 1017 1017 1017 1017 1017 1017 1017 
1017 1017 1017 1017 1017 1017 1017 1017 1017 
1017 1017 1017 1017 1017 1017 1017 1017 1017 
1017 1017 1017 1017 1017 1017 1017 1017 1017 
1017 1017 1017 1017 1017 1017 1017 1017 1017 
1017 1017 1017 1017 1017 1017 1017 1017 1017 
1017 1017 1017 1017 1017 1017 1017 1017 1017 
1017 1017 1017 1017 1017 1017 1017 1017 1017 
1017 1017 1017 1017 1017 1017 1017 1017 1017 
1017 1017 1017 1017 1017 1017 1017 1017 1017 
1017 1017 1017 1017 1017 1017 1017 1017 1017 
1017 1017 1017 1017 1017 1017 1017 1017 1017 
1017 1017 1017 1017 1017 1017 1017 1017 1017 
1017 1017 1017 1017 1017 1017 1017 1017 1017 
1017 1017 1017 1017 1017 1017 1017 1017 1017 
1017 1017 1017 1017 1017 1017 1017 1017 1017 
1017 1017 1017 1017 1017 1017 1017 1017 1017 
1017 1017 1017 1017 1017 1017 1017 1017 1017 
1017 1017 1017 1017 1017 1017 1017 1017 1017 
1017 1017 1017 1017 1017 1017 1017 1017 1017 
1017 1017 1017 1017 1017 1017 1017 1017 1017 
1017 1017 1017 1017 1017 1017 1017 1017 1017 
1017 1017 1017 1017 1017 1017 1017 1017 1017 
1017 1017 1017 1017 1017 1017 1017 1017 1017 
1017 1017 1017 1017 1017 1017 1017 1017 1017 
1017 1017 1017 1017 1017 1017 1017 1017 1017 
1017 1017 1017 1017 1017 1017 1017 1017 1017 
1017 1017 1017 1017 1017 1017 1017 1017 1017 
1017 1017 1017 1017 1017 1017 1017 1017 1017 
1017 1017 1017 1017 1017 1017 1017 1017 1017 
1017 1017 1017 1017 1017 1017 1017 1017 1017 
1017 1017 1017 1017 1017 1017 1017 1017 1017 
1017 1017 1017 1017 1017 1017 1017 1017 1017 
1017 1017 1017 1017 1017 1017 1017 1017 1017 
1017 1017 1017 1017 1017 1017 1017 1017 1017 
1017 1017 1017 1017 1017 1017 1017 1017 1017 
1017 1017 1017 1017 1017 1017 1017 1017 1017 
1017 1017 1017 1017 1017 1017 1017 1017 1017 
1017 1017 1017 1017 1017 1017 1017 1017 1017 
1017 1017 1017 1017 1017 1017 1017 1017 1017 
1017 1017 1017 1017 1017 1017 1017 1017 1017 
1017 1017 1017 1017 1017 1017 1017 1017 1017 
1017 1017 1017 1017 1017 1017 1017 1017 1017 
1017 1017 1017 1017 1017 1017 1017 1017 1017 
1017 1017 1017 1017 1017 1017 1017 1017 1017 
1017 1017 1017 1017 1017 1017 1017 1017 1017 
1017 1017 1017 1017 1017 1017 1017 1017 1017 
1017 1017 1017 1017 1017 1017 1017 1017 1017 
1017 1017 1017 1017 1017 1017 1017 1017 1017 