# vtk DataFile Version 4.2
vtk output
ASCII
DATASET POLYDATA
POINTS 3150 float
-25.7056 -22.0924 -19.2811 -25.7281 -21.7217 -19.607 -25.278 -21.8226 -19.4999 
-26.0591 -22.017 -19.6813 -25.1446 -22.3791 -19.2304 -24.9723 -22.1806 -19.4058 
-24.7268 -22.6462 -19.5513 -25.4827 -22.6365 -19.1964 -26.1686 -22.2465 -19.398 
-26.0371 -22.4773 -19.307 -26.3099 -22.4739 -19.4443 -25.0091 -22.9415 -19.2841 
-24.7922 -23.1589 -19.5929 -25.324 -23.0484 -19.3643 -25.7696 -22.8052 -19.4755 
-26.1628 -22.618 -19.5568 -25.1178 -23.2897 -19.5814 -25.1121 -21.412 -19.8881 
-25.0117 -21.0926 -20.0923 -24.7634 -21.3925 -20.0948 -25.2555 -21.1579 -20.1253 
-24.8442 -21.9424 -19.7055 -24.5676 -21.9519 -19.9977 -25.5818 -21.5171 -20.0021 
-26.2359 -21.8794 -19.9348 -26.0775 -21.7579 -20.0207 -26.2985 -21.8803 -20.0942 
-24.4822 -22.3866 -19.8744 -24.3226 -22.1793 -20.1603 -24.2339 -22.49 -20.2632 
-26.2229 -22.4082 -19.6127 -26.0197 -22.5864 -20.0136 -26.1859 -22.027 -20.1074 
-24.4146 -22.7575 -20.0008 -24.6462 -23.0971 -20.0948 -25.5919 -23.1238 -19.701 
-26.0348 -23.1178 -19.9681 -26.1865 -22.9036 -20.1274 -26.4267 -23.0243 -20.1879 
-24.9642 -23.3725 -19.9334 -25.615 -23.4567 -20.1175 -26.3587 -23.3174 -20.2206 
-30.9949 -17.6815 -20.5827 -30.9935 -17.5217 -20.6523 -30.8777 -17.6886 -20.7312 
-31.1468 -17.6091 -20.6834 -31.0813 -17.8354 -20.6931 -25.2117 -20.1527 -20.4763 
-24.8634 -19.8608 -20.8358 -24.7318 -20.2463 -20.654 -25.7495 -20.2252 -20.4696 
-25.3953 -19.7774 -20.7649 -25.8709 -19.9716 -20.6896 -27.5509 -20.0487 -20.5206 
-27.3541 -19.8811 -20.6837 -27.264 -20.1863 -20.6871 -27.8804 -20.1417 -20.5314 
-27.8029 -19.8424 -20.6441 -28.242 -20.1381 -20.8151 -25.0118 -20.8011 -20.3359 
-24.5809 -20.7071 -20.6187 -25.6487 -20.7005 -20.3652 -26.147 -20.3506 -20.6034 
-26.162 -20.7523 -20.4938 -26.4328 -20.6716 -20.7148 -27.6189 -20.3741 -20.6468 
-28.0219 -20.4154 -20.7354 -24.5122 -21.1634 -20.4593 -24.3282 -20.9253 -20.7894 
-24.2007 -21.3543 -20.7575 -25.6087 -21.222 -20.3295 -26.0815 -21.2633 -20.5091 
-26.3933 -21.1486 -20.7666 -24.3844 -21.7127 -20.3224 -24.1462 -21.9627 -20.6483 
-26.0282 -21.7986 -20.6118 -26.2278 -21.884 -20.2634 -26.2363 -21.513 -20.7086 
-24.1971 -22.3761 -20.7914 -26.065 -22.357 -20.6967 -26.7155 -22.3507 -20.764 
-26.4956 -22.5082 -20.6998 -26.7371 -22.7185 -20.5161 -27.0284 -22.4603 -20.7284 
-24.363 -22.7908 -20.4718 -24.6635 -23.029 -20.837 -26.2742 -22.6843 -20.4865 
-26.7583 -23.1183 -20.3546 -27.1035 -22.9037 -20.6404 -25.0578 -23.46 -20.4905 
-25.5006 -23.7163 -20.5131 -25.3281 -23.7627 -20.8921 -25.8791 -23.7166 -20.5788 
-26.3179 -23.5543 -20.6992 -26.8927 -23.3236 -20.7213 -25.7508 -23.8899 -20.8561 
-31.0918 -17.2802 -20.9565 -30.9602 -16.8683 -21.3315 -30.6519 -17.1628 -21.2293 
-31.7904 -17.1672 -21.0344 -31.465 -16.7747 -21.2922 -32.3631 -17.2455 -21.0714 
-32.0429 -16.7981 -21.2801 -32.4988 -16.9863 -21.2833 -30.018 -17.7753 -21.1102 
-29.7771 -17.4974 -21.34 -29.5897 -17.8958 -21.2821 -30.542 -17.6483 -21.0055 
-30.2068 -17.3321 -21.2813 -31.5225 -17.782 -20.8841 -32.172 -17.6207 -20.9535 
-32.7664 -17.36 -21.192 -32.6608 -17.7807 -21.0838 -33.0478 -17.614 -21.3852 
-29.7505 -18.3026 -21.0582 -29.4409 -18.3558 -21.2333 -30.2399 -18.304 -21.0495 
-30.9223 -18.1472 -20.9647 -31.5353 -18.3325 -21.0758 -32.1457 -18.1913 -21.0529 
-32.5136 -18.2402 -21.1995 -32.7756 -17.9995 -21.4553 -29.288 -18.8859 -21.0822 
-29.1541 -18.6654 -21.326 -28.8937 -19.0199 -21.2386 -29.7237 -18.913 -21.086 
-30.1394 -18.7913 -21.2552 -30.6014 -18.6406 -21.2861 -31.2048 -18.6312 -21.3087 
-31.8306 -18.5999 -21.3648 -32.2318 -18.4591 -21.2501 -25.8158 -19.5816 -21.0045 
-25.5892 -19.3071 -21.503 -25.3495 -19.5096 -21.1867 -26.3826 -19.5632 -21.0561 
-26.106 -19.2916 -21.3056 -26.8943 -19.4719 -21.0803 -26.6344 -19.1904 -21.394 
-27.4601 -19.5609 -20.9465 -27.2568 -19.1889 -21.2946 -28.1768 -19.6075 -20.953 
-27.874 -19.2141 -21.2799 -28.7407 -19.4023 -21.0448 -28.4507 -19.1834 -21.2774 
-29.1256 -19.5365 -21.0919 -29.5298 -19.4143 -21.2387 -29.8819 -19.1433 -21.3303 
-31.0418 -19.5171 -21.2238 -30.9465 -19.3485 -21.3218 -30.8008 -19.5474 -21.3683 
-31.2241 -19.4182 -21.4389 -24.4932 -20.0455 -20.9687 -24.4781 -19.87 -21.3289 
-24.2458 -20.2006 -21.2784 -24.9151 -19.6534 -21.3106 -26.3025 -20.1228 -20.8509 
-26.8992 -20.0123 -20.8998 -28.613 -19.9214 -21.0262 -28.9345 -20.1443 -21.4048 
-29.2557 -19.7763 -21.3355 -29.7779 -19.9503 -21.2679 -29.5593 -20.0805 -21.3921 
-29.7736 -20.0997 -21.2321 -29.97 -19.9999 -21.4211 -31.0224 -19.6658 -21.4743 
-24.3784 -20.4625 -20.9284 -24.0673 -20.7892 -21.3495 -26.6787 -20.7095 -20.9731 
-27.2418 -20.6079 -20.9717 -27.8273 -20.7116 -21.0064 -28.2745 -20.6143 -21.1243 
-28.593 -20.4177 -21.2948 -29.7436 -20.2313 -21.5 -24.0682 -21.4385 -21.1861 
-26.187 -21.4602 -20.9498 -25.9176 -21.4783 -21.2988 -26.2719 -21.1079 -21.2218 
-26.8621 -20.8352 -21.363 -27.5261 -20.9749 -21.3819 -28.0661 -20.932 -21.3543 
-24.1412 -21.9159 -21.3558 -26.0781 -21.6781 -21.3684 -26.2738 -21.9876 -21.0395 
-26.8969 -22.0555 -21.0017 -26.6188 -21.6135 -21.4208 -27.5408 -22.0575 -21.104 
-27.2321 -21.6452 -21.3156 -27.6756 -21.7859 -21.3411 -28.579 -22.0845 -21.1325 
-28.5421 -21.7349 -21.3233 -28.2821 -21.9828 -21.2101 -28.8636 -21.8014 -21.4288 
-24.3245 -22.3171 -21.2368 -24.4004 -22.6215 -20.9276 -24.5575 -22.5973 -21.3283 
-26.3625 -22.3345 -20.8541 -27.3741 -22.4881 -20.8773 -27.9424 -22.0313 -21.2331 
-27.9982 -22.4588 -21.0574 -28.511 -22.5004 -21.0918 -28.8394 -22.3852 -21.4055 
-24.7991 -22.9479 -21.4294 -27.4462 -23.0201 -20.9492 -27.8168 -23.1732 -21.3634 
-28.251 -22.867 -21.2433 -28.634 -22.8114 -21.332 -25.0528 -23.3796 -21.2713 
-25.3738 -23.7182 -21.358 -26.1406 -23.7916 -20.9375 -26.3848 -23.7022 -21.2109 
-26.6647 -23.5073 -21.3379 -27.2832 -23.4476 -21.3529 -25.6105 -23.9107 -21.1925 
-26.037 -23.8766 -21.2724 -32.8002 -16.1124 -21.7507 -32.7367 -15.7625 -21.9389 
-32.4939 -16.0077 -21.8369 -33.0022 -15.7831 -22.0622 -26.3857 -16.5745 -21.6948 
-26.1522 -16.2997 -21.9276 -25.9328 -16.6936 -21.8874 -26.9682 -16.5701 -21.6402 
-26.6521 -16.1939 -21.883 -27.5811 -16.5785 -21.6475 -27.2578 -16.19 -21.8854 
-28.1817 -16.5879 -21.6679 -27.8593 -16.2007 -21.8976 -28.777 -16.5902 -21.6812 
-28.4622 -16.2067 -21.9032 -29.3815 -16.6014 -21.6851 -29.0691 -16.2143 -21.9068 
-30.0006 -16.5894 -21.686 -29.6753 -16.2243 -21.9114 -30.5465 -16.5056 -21.7096 
-30.2772 -16.2254 -21.9191 -31.1008 -16.5513 -21.6131 -30.8775 -16.2265 -21.9226 
-31.772 -16.4781 -21.6 -31.4794 -16.2195 -21.923 -32.4183 -16.5001 -21.5673 
-32.0556 -16.1519 -21.8987 -32.9737 -16.639 -21.6303 -33.1673 -16.3192 -21.9741 
-26.1858 -16.9463 -21.7226 -25.9803 -17.1425 -21.9404 -26.7161 -17.0687 -21.6321 
-27.3882 -17.0825 -21.5602 -28.0202 -17.1089 -21.5701 -28.6226 -17.0924 -21.5832 
-29.1245 -16.9971 -21.5878 -29.74 -17.0808 -21.5212 -30.4549 -16.8779 -21.4937 
-32.9319 -17.1058 -21.4693 -33.3521 -16.7791 -21.8113 -33.3082 -17.0447 -21.6867 
-33.5858 -16.9873 -22.0266 -26.3773 -17.3544 -21.885 -26.8296 -17.5021 -21.8454 
-27.1771 -17.8021 -21.9654 -27.274 -17.5366 -21.7121 -27.9536 -17.7064 -21.6721 
-28.6061 -17.6969 -21.595 -29.244 -17.526 -21.5152 -33.3699 -17.4104 -21.9066 
-33.1295 -17.7772 -21.7529 -27.6522 -17.9604 -21.9241 -28.1037 -18.1326 -21.8832 
-28.2088 -18.4291 -21.8954 -28.4909 -18.2908 -21.6923 -29.1079 -18.2032 -21.4926 
-32.2484 -18.4109 -21.5411 -31.9462 -18.4635 -21.9336 -32.2656 -18.091 -21.9998 
-32.854 -17.9284 -21.9536 -27.0345 -18.9211 -21.6607 -26.8109 -18.7285 -21.9858 
-26.5929 -18.9574 -21.8166 -27.607 -18.9025 -21.6217 -27.2888 -18.6212 -21.9485 
-28.2195 -18.8134 -21.6283 -27.8524 -18.5695 -21.9342 -28.7607 -18.7612 -21.4875 
-30.2974 -19.0481 -21.4742 -30.9994 -19.0358 -21.51 -31.5133 -18.8831 -21.6101 
-31.8256 -18.7715 -21.7829 -25.1153 -19.4555 -21.5481 -25.0661 -19.3042 -21.8837 
-24.7721 -19.5244 -21.8001 -25.5286 -19.1395 -21.9277 -26.1086 -19.0987 -21.7745 
-29.8124 -19.6425 -21.4538 -30.5324 -19.3611 -21.5218 -31.4595 -19.1829 -21.8223 
-31.2609 -19.572 -21.7473 -24.4504 -19.7014 -21.8481 -24.0942 -20.1798 -21.8884 
-29.2672 -20.0303 -21.5007 -30.5229 -19.8072 -21.7781 -30.0873 -20.1555 -21.7502 
-31.0089 -19.7124 -21.813 -23.8221 -20.5845 -21.7761 -23.8301 -20.5307 -22.0159 
-23.7147 -20.6819 -21.9286 -25.6759 -20.662 -21.7414 -25.3325 -20.8119 -21.912 
-25.615 -20.4805 -22.1263 -26.1965 -20.4237 -21.9984 -26.2714 -20.7288 -21.5919 
-26.6897 -20.5085 -21.8957 -26.7757 -20.6702 -21.6576 -27.0681 -20.8192 -21.8472 
-28.6146 -20.9133 -21.5871 -28.9334 -20.61 -21.7646 -29.3447 -20.3999 -21.7563 
-29.8469 -20.3722 -21.8874 -23.8144 -20.8361 -21.8148 -24.0029 -21.2178 -21.8595 
-25.6445 -21.1068 -21.6235 -25.3617 -21.1456 -22.0723 -26.7621 -21.0319 -22.1625 
-26.5798 -21.3444 -21.8349 -26.9991 -21.2628 -21.6605 -27.5148 -21.3531 -21.5324 
-28.0473 -21.2373 -21.5346 -28.6699 -21.413 -21.5637 -29.1523 -20.8989 -21.8858 
-29.2226 -21.1724 -21.7382 -29.7133 -21.3242 -21.7956 -29.6276 -21.0307 -21.9233 
-30.097 -21.3404 -22.0574 -24.1644 -21.8232 -22.0604 -25.6963 -21.4672 -21.7733 
-26.1348 -21.5092 -21.8294 -28.0951 -21.6784 -21.4408 -29.3152 -21.6063 -21.7851 
-29.0505 -22.0126 -21.727 -29.8739 -21.5952 -21.9645 -24.4448 -22.223 -21.8159 
-24.7695 -22.5439 -21.8591 -29.04 -22.5181 -21.9579 -25.0473 -22.7937 -21.9772 
-24.9786 -23.1103 -21.6125 -25.2572 -23.1204 -21.8993 -28.1178 -23.1616 -21.517 
-28.4582 -23.1533 -21.6166 -28.8278 -22.9751 -21.7693 -25.5021 -23.4377 -21.765 
-25.7907 -23.7404 -21.5773 -26.1601 -23.4247 -21.8587 -26.2631 -23.6835 -21.5356 
-26.9145 -23.4062 -21.9528 -27.3104 -23.7059 -21.7568 -27.2696 -23.7171 -22.0129 
-27.5884 -23.6481 -21.7396 -28.017 -23.4457 -21.9928 -28.6245 -23.3291 -22.0555 
-27.4089 -23.8306 -21.9054 -29.8799 -12.9969 -22.2691 -29.7622 -12.6602 -22.6843 
-29.4174 -12.9496 -22.4124 -30.538 -12.9153 -22.2499 -30.3927 -12.6109 -22.5709 
-31.1549 -12.9021 -22.2477 -31.0045 -12.5919 -22.5518 -31.7834 -12.9167 -22.2269 
[...]
CELL_DATA 6316
SCALARS scalars float
LOOKUP_TABLE default
1001 1001 1001 1001 1001 1001 1001 1001 1001 
1001 1001 1001 1001 1001 1001 1001 1001 1001 
1001 1001 1001 1001 1001 1001 1001 1001 1001 
1001 1001 1001 1001 1001 1001 1001 1001 1001 
1001 1001 1001 1001 1001 1001 1001 1001 1001 
1001 1001 1001 1001 1001 1001 1001 1001 1001 
1001 1001 1001 1001 1001 1001 1001 1001 1001 
1001 1001 1001 1001 1001 1001 1001 1001 1001 
1001 1001 1001 1001 1001 1001 1001 1001 1001 
1001 1001 1001 1001 1001 1001 1001 1001 1001 
1001 1001 1001 1001 1001 1001 1001 1001 1001 
1001 1001 1001 1001 1001 1001 1001 1001 1001 
1001 1001 1001 1001 1001 1001 1001 1001 1001 
1001 1001 1001 1001 1001 1001 1001 1001 1001 
1001 1001 1001 1001 1001 1001 1001 1001 1001 
1001 1001 1001 1001 1001 1001 1001 1001 1001 
1001 1001 1001 1001 1001 1001 1001 1001 1001 
1001 1001 1001 1001 1001 1001 1001 1001 1001 
1001 1001 1001 1001 1001 1001 1001 1001 1001 
1001 1001 1001 1001 1001 1001 1001 1001 1001 
1001 1001 1001 1001 1001 1001 1001 1001 1001 
1001 1001 1001 1001 1001 1001 1001 1001 1001 
1001 1001 1001 1001 1001 1001 1001 1001 1001 
1001 1001 1001 1001 1001 1001 1001 1001 1001 
1001 1001 1001 1001 1001 1001 1001 1001 1001 
1001 1001 1001 1001 1001 1001 1001 1001 1001 
1001 1001 1001 1001 1001 1001 1001 1001 1001 
1001 1001 1001 1001 1001 1001 1001 1001 1001 
1001 1001 1001 1001 1001 1001 1001 1001 1001 
1001 1001 1001 1001 1001 1001 1001 1001 1001 
1001 1001 1001 1001 1001 1001 1001 1001 1001 
1001 1001 1001 1001 1001 1001 1001 1001 1001 
1001 1001 1001 1001 1001 1001 1001 1001 1001 
1001 1001 1001 1001 1001 1001 1001 1001 1001 
1001 1001 1001 1001 1001 1001 1001 1001 1001 
1001 1001 1001 1001 1001 1001 1001 1001 1001 
1001 1001 1001 1001 1001 1001 1001 1001 1001 
1001 1001 1001 1001 1001 1001 1001 1001 1001 
1001 1001 1001 1001 1001 1001 1001 1001 1001 
1001 1001 1001 1001 1001 1001 1001 1001 1001 
1001 1001 1001 1001 1001 1001 1001 1001 1001 
1001 1001 1001 1001 1001 1001 1001 1001 1001 
1001 1001 1001 1001 1001 1001 1001 1001 1001 
1001 1001 1001 1001 1001 1001 1001 1001 1001 
1001 1001 1001 1001 1001 1001 1001 1001 1001 
1001 1001 1001 1001 1001 1001 1001 1001 1001 
1001 1001 1001 1001 1001 1001 1001 1001 1001 
1001 1001 1001 1001 1001 1001 1001 1001 1001 
1001 1001 1001 1001 1001 1001 1001 1001 1001 
1001 1001 1001 1001 1001 1001 1001 1001 1001 
1001 1001 1001 1001 1001 1001 1001 1001 1001 
1001 1001 1001 1001 1001 1001 1001 1001 1001 
1001 1001 1001 1001 1001 1001 1001 1001 1001 
1001 1001 1001 1001 1001 1001 1001 1001 1001 
1001 1001 1001 1001 1001 1001 1001 1001 1001 
1001 1001 1001 1001 1001 1001 1001 1001 1001 
1001 1001 1001 1001 1001 1001 1001 1001 1001 
1001 1001 1001 1001 1001 1001 1001 1001 1001 
1001 1001 1001 1001 1001 1001 1001 1001 1001 
1001 1001 1001 1001 1001 1001 1001 1001 1001 
1001 1001 1001 1001 1001 1001 1001 1001 1001 
1001 1001 1001 1001 1001 1001 1001 1001 1001 
1001 1001 1001 1001 1001 1001 1001 1001 1001 
1001 1001 1001 1001 1001 1001 1001 1001 1001 
1001 1001 1001 1001 1001 1001 1001 1001 1001 
1001 1001 1001 1001 1001 1001 1001 1001 1001 
1001 1001 1001 1001 1001 1001 1001 1001 1001 
1001 1001 1001 1001 1001 1001 1001 1001 1001 
1001 1001 1001 1001 1001 1001 1001 1001 1001 
1001 1001 1001 1001 1001 1001 1001 1001 1001 
1001 1001 1001 1001 1001 1001 1001 1001 1001 
1001 1001 1001 1001 1001 1001 1001 1001 1001 
1001 1001 1001 1001 1001 1001 1001 1001 1001 
1001 1001 1001 1001 1001 1001 1001 1001 1001 
1001 1001 1001 1001 1001 1001 1001 1001 1001 
1001 1001 1001 1001 1001 1001 1001 1001 1001 
1001 1001 1001 1001 1001 1001 1001 1001 1001 
1001 1001 1001 1001 1001 1001 1001 1001 1001 
1001 1001 1001 1001 1001 1001 1001 1001 1001 
1001 1001 1001 1001 1001 1001 1001 1001 1001 
1001 1001 1001 1001 1001 1001 1001 1001 1001 
1001 1001 1001 1001 1001 1001 1001 1001 1001 
1001 1001 1001 1001 1001 1001 1001 1001 1001 
1001 1001 1001 1001 1001 1001 1001 1001 1001 
1001 1001 1001 1001 1001 1001 1001 1001 1001 
1001 1001 1001 1001 1001 1001 1001 1001 1001 
1001 1001 1001 1001 1001 1001 1001 1001 1001 
1001 1001 1001 1001 1001 1001 1001 1001 1001 
1001 1001 1001 1001 1001 1001 1001 1001 1001 
1001 1001 1001 1001 1001 1001 1001 1001 1001 
1001 1001 1001 1001 1001 1001 1001 1001 1001 
1001 1001 1001 1001 1001 1001 1001 1001 1001 
1001 1001 1001 1001 1001 1001 1001 1001 1001 
1001 1001 1001 1001 1001 1001 1001 1001 1001 
1001 1001 1001 1001 1001 1001 1001 1001 1001 
1001 1001 1001 1001 1001 1001 1001 1001 1001 
1001 1001 1001 1001 1001 1001 1001 1001 1001 
1001 1001 1001 1001 1001 1001 1001 1001 1001 
1001 1001 1001 1001 1001 1001 1001 1001 1001 
1001 1001 1001 1001 1001 1001 1001 1001 1001 
1001 1001 1001 1001 1001 1001 1001 1001 1001 
1001 1001 1001 1001 1001 1001 1001 1001 1001 
1001 1001 1001 1001 1001 1001 1001 1001 1001 
1001 1001 1001 1001 1001 1001 1001 1001 1001 
1001 1001 1001 1001 1001 1001 1001 1001 1001 
1001 1001 1001 1001 1001 1001 1001 1001 1001 
1001 1001 1001 1001 1001 1001 1001 1001 1001 
1001 1001 1001 1001 1001 1001 1001 1001 1001 
1001 1001 1001 1001 1001 1001 1001 1001 1001 
1001 1001 1001 1001 1001 1001 1001 1001 1001 
1001 1001 1001 1001 1001 1001 1001 1001 1001 
1001 1001 1001 1001 1001 1001 1001 1001 1001 
1001 1001 1001 1001 1001 1001 1001 1001 1001 
1001 1001 1001 1001 1001 1001 1001 1001 1001 
1001 1001 1001 1001 1001 1001 1001 1001 1001 
1001 1001 1001 1001 1001 1001 1001 1001 1001 
1001 1001 1001 1001 1001 1001 1001 1001 1001 
1001 1001 1001 1001 1001 1001 1001 1001 1001 
1001 1001 1001 1001 1001 1001 1001 1001 1001 
1001 1001 1001 1001 1001 1001 1001 1001 1001 
1001 1001 1001 1001 1001 1001 1001 1001 1001 
1001 1001 1001 1001 1001 1001 1001 1001 1001 
1001 1001 1001 1001 1001 1001 1001 1001 1001 
1001 1001 1001 1001 1001 1001 1001 1001 1001 
1001 1001 1001 1001 1001 1001 1001 1001 1001 
1001 1001 1001 1001 1001 1001 1001 1001 1001 
1001 1001 1001 1001 1001 1001 1001 1001 1001 
1001 1001 1001 1001 1001 1001 1001 1001 1001 
1001 1001 1001 1001 1001 1001 1001 1001 1001 
1001 1001 1001 1001 1001 1001 1001 1001 1001 
1001 1001 1001 1001 1001 1001 1001 1001 1001 
1001 1001 1001 1001 1001 1001 1001 1001 1001 
1001 1001 1001 1001 1001 1001 1001 1001 1001 
1001 1001 1001 1001 1001 1001 1001 1001 1001 
1001 1001 1001 1001 1001 1001 1001 1001 1001 
1001 1001 1001 1001 1001 1001 1001 1001 1001 
1001 1001 1001 1001 1001 1001 1001 1001 1001 
1001 1001 1001 1001 1001 1001 1001 1001 1001 
1001 1001 1001 1001 1001 1001 1001 1001 1001 
1001 1001 1001 1001 1001 1001 1001 1001 1001 
1001 1001 1001 1001 1001 1001 1001 1001 1001 
1001 1001 1001 1001 1001 1001 1001 1001 1001 
1001 1001 1001 1001 1001 1001 1001 1001 1001 
1001 1001 1001 1001 1001 1001 1001 1001 1001 
1001 1001 1001 1001 1001 1001 1001 1001 1001 
1001 1001 1001 1001 1001 1001 1001 1001 1001 
1001 1001 1001 1001 1001 1001 1001 1001 1001 
1001 1001 1001 1001 1001 1001 1001 1001 1001 
1001 1001 1001 1001 1001 1001 1001 1001 1001 
1001 1001 1001 1001 1001 1001 1001 1001 1001 
1001 1001 1001 1001 1001 1001 1001 1001 1001 
1001 1001 1001 1001 1001 1001 1001 1001 1001 
1001 1001 1001 1001 1001 1001 1001 1001 1001 
1001 1001 1001 1001 1001 1001 1001 1001 1001 
1001 1001 1001 1001 1001 1001 1001 1001 1001 
1001 1001 1001 1001 1001 1001 1001 1001 1001 
1001 1001 1001 1001 1001 1001 1001 1001 1001 
1001 1001 1001 1001 1001 1001 1001 1001 1001 
1001 1001 1001 1001 1001 1001 1001 1001 1001 
1001 1001 1001 1001 1001 1001 1001 1001 1001 
1001 1001 1001 1001 1001 1001 1001 1001 1001 
1001 1001 1001 1001 1001 1001 1001 1001 1001 
1001 1001 1001 1001 1001 1001 1001 1001 1001 
1001 1001 1001 1001 1001 1001 1001 1001 1001 
1001 1001 1001 1001 1001 1001 1001 1001 1001 
1001 1001 1001 1001 1001 1001 1001 1001 1001 
1001 1001 1001 1001 1001 1001 1001 1001 1001 
1001 1001 1001 1001 1001 1001 1001 1001 1001 
1001 1001 1001 1001 1001 1001 1001 1001 1001 
1001 1001 1001 1001 1001 1001 1001 1001 1001 
1001 1001 1001 1001 1001 1001 1001 1001 1001 
1001 1001 1001 1001 1001 1001 1001 1001 1001 
1001 1001 1001 1001 1001 1001 1001 1001 1001 
1001 1001 1001 1001 1001 1001 1001 1001 1001 
1001 1001 1001 1001 1001 1001 1001 1001 1001 
1001 1001 1001 1001 1001 1001 1001 1001 1001 
1001 1001 1001 1001 1001 1001 1001 1001 1001 
1001 1001 1001 1001 1001 1001 1001 1001 1001 
1001 1001 1001 1001 1001 1001 1001 1001 1001 
1001 1001 1001 1001 1001 1001 1001 1001 1001 
1001 1001 1001 1001 1001 1001 1001 1001 1001 
1001 1001 1001 1001 1001 1001 1001 1001 1001 
1001 1001 1001 1001 1001 1001 1001 1001 1001 
1001 1001 1001 1001 1001 1001 1001 1001 1001 
1001 1001 1001 1001 1001 1001 1001 1001 1001 
1001 1001 1001 1001 1001 1001 1001 1001 1001 
1001 1001 1001 1001 1001 1001 1001 1001 1001 
1001 1001 1001 1001 1001 1001 1001 1001 1001 
1001 1001 1001 1001 1001 1001 1001 1001 1001 
1001 1001 1001 1001 1001 1001 1001 1001 1001 
1001 1001 1001 1001 1001 1001 1001 1001 1001 
1001 1001 1001 1001 1001 1001 1001 1001 1001 
1001 1001 1001 1001 1001 1001 1001 1001 1001 
1001 1001 1001 1001 1001 1001 1001 1001 1001 
1001 1001 1001 1001 1001 1001 1001 1001 1001 
1001 1001 1001 1001 1001 1001 1001 1001 1001 
1001 1001 1001 1001 1001 1001 1001 1001 1001 
1001 1001 1001 1001 1001 1001 1001 1001 1001 
1001 1001 1001 1001 1001 1001 1001 1001 1001 
1001 1001 1001 1001 1001 1001 1001 1001 1001 
1001 1001 1001 1001 1001 1001 1001 1001 1001 
1001 1001 1001 1001 1001 1001 1001 1001 1001 
1001 1001 1001 1001 1001 1001 1001 1001 1001 
1001 1001 1001 1001 1001 1001 1001 1001 1001 
1001 1001 1001 1001 1001 1001 1001 1001 1001 
1001 1001 1001 1001 1001 1001 1001 1001 1001 
1001 1001 1001 1001 1001 1001 1001 1001 1001 
1001 1001 1001 1001 1001 1001 1001 1001 1001 
1001 1001 1001 1001 1001 1001 1001 1001 1001 
1001 1001 1001 1001 1001 1001 1001 1001 1001 
1001 1001 1001 1001 1001 1001 1001 1001 1001 
1001 1001 1001 1001 1001 1001 1001 1001 1001 
1001 1001 1001 1001 1001 1001 1001 1001 1001 
1001 1001 1001 1001 1001 1001 1001 1001 1001 
1001 1001 1001 1001 1001 1001 1001 1001 1001 
1001 1001 1001 1001 1001 1001 1001 1001 1001 
1001 1001 1001 1001 1001 1001 1001 1001 1001 
1001 1001 1001 1001 1001 1001 1001 1001 1001 
1001 1001 1001 1001 1001 1001 1001 1001 1001 
1001 1001 1001 1001 1001 1001 1001 1001 1001 
1001 1001 1001 1001 1001 1001 1001 1001 1001 
1001 1001 1001 1001 1001 1001 1001 1001 1001 
1001 1001 1001 1001 1001 1001 1001 1001 1001 
1001 1001 1001 1001 1001 1001 1001 1001 1001 
1001 1001 1001 1001 1001 1001 1001 1001 1001 
1001 1001 1001 1001 1001 1001 1001 1001 1001 
1001 1001 1001 1001 1001 1001 1001 1001 1001 
1001 1001 1001 1001 1001 1001 1001 1001 1001 
1001 1001 1001 1001 1001 1001 1001 1001 1001 
1001 1001 1001 1001 1001 1001 1001 1001 1001 
1001 1001 1001 1001 1001 1001 1001 1001 1001 
1001 1001 1001 1001 1001 1001 1001 1001 1001 
1001 1001 1001 1001 1001 1001 1001 1001 1001 
1001 1001 1001 1001 1001 1001 1001 1001 1001 
1001 1001 1001 1001 1001 1001 1001 1001 1001 
1001 1001 1001 1001 1001 1001 1001 1001 1001 
1001 1001 1001 1001 1001 1001 1001 1001 1001 
1001 1001 1001 1001 1001 1001 1001 1001 1001 
1001 1001 1001 1001 1001 1001 1001 1001 1001 
1001 1001 1001 1001 1001 1001 1001 1001 1001 
1001 1001 1001 1001 1001 1001 1001 1001 1001 
1001 1001 1001 1001 1001 1001 1001 1001 1001 
1001 1001 1001 1001 1001 1001 1001 1001 1001 
1001 1001 1001 1001 1001 1001 1001 1001 1001 
1001 1001 1001 1001 1001 1001 1001 1001 1001 
1001 1001 1001 1001 1001 1001 1001 1001 1001 
1001 1001 1001 1001 1001 1001 1001 1001 1001 
1001 1001 1001 1001 1001 1001 1001 1001 1001 
1001 1001 1001 1001 1001 1001 1001 1001 1001 
1001 1001 1001 1001 1001 1001 1001 1001 1001 
1001 1001 1001 1001 1001 1001 1001 1001 1001 
1001 1001 1001 1001 1001 1001 1001 1001 1001 
1001 1001 1001 1001 1001 1001 1001 1001 1001 
1001 1001 1001 1001 1001 1001 1001 1001 1001 
1001 1001 1001 1001 1001 1001 1001 1001 1001 
1001 1001 1001 1001 1001 1001 1001 1001 1001 
1001 1001 1001 1001 1001 1001 1001 1001 1001 
1001 1001 1001 1001 1001 1001 1001 1001 1001 
1001 1001 1001 1001 1001 1001 1001 1001 1001 
1001 1001 1001 1001 1001 1001 1001 1001 1001 
1001 1001 1001 1001 1001 1001 1001 1001 1001 
1001 1001 1001 1001 1001 1001 1001 1001 1001 
1001 1001 1001 1001 1001 1001 1001 1001 1001 
1001 1001 1001 1001 1001 1001 1001 1001 1001 
1001 1001 1001 1001 1001 1001 1001 1001 1001 
1001 1001 1001 1001 1001 1001 1001 1001 1001 
1001 1001 1001 1001 1001 1001 1001 1001 1001 
1001 1001 1001 1001 1001 1001 1001 1001 1001 
1001 1001 1001 1001 1001 1001 1001 1001 1001 
1001 1001 1001 1001 1001 1001 1001 1001 1001 
1001 1001 1001 1001 1001 1001 1001 1001 1001 
1001 1001 1001 1001 1001 1001 1001 1001 1001 
1001 1001 1001 1001 1001 1001 1001 1001 1001 
1001 1001 1001 1001 1001 1001 1001 1001 1001 
1001 1001 1001 1001 1001 1001 1001 1001 1001 
1001 1001 1001 1001 1001 1001 1001 1001 1001 
1001 1001 1001 1001 1001 1001 1001 1001 1001 
1001 1001 1001 1001 1001 1001 1001 1001 1001 
1001 1001 1001 1001 1001 1001 1001 1001 1001 
1001 1001 1001 1001 1001 1001 1001 1001 1001 
1001 1001 1001 1001 1001 1001 1001 1001 1001 
1001 1001 1001 1001 1001 1001 1001 1001 1001 
1001 1001 1001 1001 1001 1001 1001 1001 1001 
1001 1001 1001 1001 1001 1001 1001 1001 1001 
1001 1001 1001 1001 1001 1001 1001 1001 1001 
1001 1001 1001 1001 1001 1001 1001 1001 1001 
1001 1001 1001 1001 1001 1001 1001 1001 1001 
1001 1001 1001 1001 1001 1001 1001 1001 1001 
1001 1001 1001 1001 1001 1001 1001 1001 1001 
1001 1001 1001 1001 1001 1001 1001 1001 1001 
1001 1001 1001 1001 1001 1001 1001 1001 1001 
1001 1001 1001 1001 1001 1001 1001 1001 1001 
1001 1001 1001 1001 1001 1001 1001 1001 1001 
1001 1001 1001 1001 1001 1001 1001 1001 1001 
1001 1001 1001 1001 1001 1001 1001 1001 1001 
1001 1001 1001 1001 1001 1001 1001 1001 1001 
1001 1001 1001 1001 1001 1001 1001 1001 1001 
1001 1001 1001 1001 1001 1001 1001 1001 1001 
1001 1001 1001 1001 1001 1001 1001 1001 1001 
1001 1001 1001 1001 1001 1001 1001 1001 1001 
1001 1001 1001 1001 1001 1001 1001 1001 1001 
1001 1001 1001 1001 1001 1001 1001 1001 1001 
1001 1001 1001 1001 1001 1001 1001 1001 1001 
1001 1001 1001 1001 1001 1001 1001 1001 1001 
1001 1001 1001 1001 1001 1001 1001 1001 1001 
1001 1001 1001 1001 1001 1001 1001 1001 1001 
1001 1001 1001 1001 1001 1001 1001 1001 1001 
1001 1001 1001 1001 1001 1001 1001 1001 1001 
1001 1001 1001 1001 1001 1001 1001 1001 1001 
1001 1001 1001 1001 1001 1001 1001 1001 1001 
1001 1001 1001 1001 1001 1001 1001 1001 1001 
1001 1001 1001 1001 1001 1001 1001 1001 1001 
1001 1001 1001 1001 1001 1001 1001 1001 1001 
1001 1001 1001 1001 1001 1001 1001 1001 1001 
1001 1001 1001 1001 1001 1001 1001 1001 1001 
1001 1001 1001 1001 1001 1001 1001 1001 1001 
1001 1001 1001 1001 1001 1001 1001 1001 1001 
1001 1001 1001 1001 1001 1001 1001 1001 1001 
1001 1001 1001 1001 1001 1001 1001 1001 1001 
1001 1001 1001 1001 1001 1001 1001 1001 1001 
1001 1001 1001 1001 1001 1001 1001 1001 1001 
1001 1001 1001 1001 1001 1001 1001 1001 1001 
1001 1001 1001 1001 1001 1001 1001 1001 1001 
1001 1001 1001 1001 1001 1001 1001 1001 1001 
1001 1001 1001 1001 1001 1001 1001 1001 1001 
1001 1001 1001 1001 1001 1001 1001 1001 1001 
1001 1001 1001 1001 1001 1001 1001 1001 1001 
1001 1001 1001 1001 1001 1001 1001 1001 1001 
1001 1001 1001 1001 1001 1001 1001 1001 1001 
1001 1001 1001 1001 1001 1001 1001 1001 1001 
1001 1001 1001 1001 1001 1001 1001 1001 1001 
1001 1001 1001 1001 1001 1001 1001 1001 1001 
1001 1001 1001 1001 1001 1001 1001 1001 1001 
1001 1001 1001 1001 1001 1001 1001 1001 1001 
1001 1001 1001 1001 1001 1001 1001 1001 1001 
1001 1001 1001 1001 1001 1001 1001 1001 1001 
1001 1001 1001 1001 1001 1001 1001 1001 1001 
1001 1001 1001 1001 1001 1001 1001 1001 1001 
1001 1001 1001 1001 1001 1001 1001 1001 1001 
1001 1001 1001 1001 1001 1001 1001 1001 1001 
1001 1001 1001 1001 1001 1001 1001 1001 1001 
1001 1001 1001 1001 1001 1001 1001 1001 1001 
1001 1001 1001 1001 1001 1001 1001 1001 1001 
1001 1001 1001 1001 1001 1001 1001 1001 1001 
1001 1001 1001 1001 1001 1001 1001 1001 1001 
1001 1001 1001 1001 1001 1001 1001 1001 1001 
1001 1001 1001 1001 1001 1001 1001 1001 1001 
1001 1001 1001 1001 1001 1001 1001 1001 1001 
1001 1001 1001 1001 1001 1001 1001 1001 1001 
1001 1001 1001 1001 1001 1001 1001 1001 1001 
1001 1001 1001 1001 1001 1001 1001 1001 1001 
1001 1001 1001 1001 1001 1001 1001 1001 1001 
1001 1001 1001 1001 1001 1001 1001 1001 1001 
1001 1001 1001 1001 1001 1001 1001 1001 1001 
1001 1001 1001 1001 1001 1001 1001 1001 1001 
1001 1001 1001 1001 1001 1001 1001 1001 1001 
1001 1001 1001 1001 1001 1001 1001 1001 1001 
1001 1001 1001 1001 1001 1001 1001 1001 1001 
1001 1001 1001 1001 1001 1001 1001 1001 1001 
1001 1001 1001 1001 1001 1001 1001 1001 1001 
1001 1001 1001 1001 1001 1001 1001 1001 1001 
1001 1001 1001 1001 1001 1001 1001 1001 1001 
1001 1001 1001 1001 1001 1001 1001 1001 1001 
1001 1001 1001 1001 1001 1001 1001 1001 1001 
1001 1001 1001 1001 1001 1001 1001 1001 1001 
1001 1001 1001 1001 1001 1001 1001 1001 1001 
1001 1001 1001 1001 1001 1001 1001 1001 1001 
1001 1001 1001 1001 1001 1001 1001 1001 1001 
1001 1001 1001 1001 1001 1001 1001 1001 1001 
1001 1001 1001 1001 1001 1001 1001 1001 1001 
1001 1001 1001 1001 1001 1001 1001 1001 1001 
1001 1001 1001 1001 1001 1001 1001 1001 1001 
1001 1001 1001 1001 1001 1001 1001 1001 1001 
1001 1001 1001 1001 1001 1001 1001 1001 1001 
1001 1001 1001 1001 1001 1001 1001 1001 1001 
1001 1001 1001 1001 1001 1001 1001 1001 1001 
1001 1001 1001 1001 1001 1001 1001 1001 1001 
1001 1001 1001 1001 1001 1001 1001 1001 1001 
1001 1001 1001 1001 1001 1001 1001 1001 1001 
1001 1001 1001 1001 1001 1001 1001 1001 1001 
1001 1001 1001 1001 1001 1001 1001 1001 1001 
1001 1001 1001 1001 1001 1001 1001 1001 1001 
1001 1001 1001 1001 1001 1001 1001 1001 1001 
1001 1001 1001 1001 1001 1001 1001 1001 1001 
1001 1001 1001 1001 1001 1001 1001 1001 1001 
1001 1001 1001 1001 1001 1001 1001 1001 1001 
1001 1001 1001 1001 1001 1001 1001 1001 1001 
1001 1001 1001 1001 1001 1001 1001 1001 1001 
1001 1001 1001 1001 1001 1001 1001 1001 1001 
1001 1001 1001 1001 1001 1001 1001 1001 1001 
1001 1001 1001 1001 1001 1001 1001 1001 1001 
1001 1001 1001 1001 1001 1001 1001 1001 1001 
1001 1001 1001 1001 1001 1001 1001 1001 1001 
1001 1001 1001 1001 1001 1001 1001 1001 1001 
1001 1001 1001 1001 1001 1001 1001 1001 1001 
1001 1001 1001 1001 1001 1001 1001 1001 1001 
1001 1001 1001 1001 1001 1001 1001 1001 1001 
1001 1001 1001 1001 1001 1001 1001 1001 1001 
1001 1001 1001 1001 1001 1001 1001 1001 1001 
1001 1001 1001 1001 1001 1001 1001 1001 1001 
1001 1001 1001 1001 1001 1001 1001 1001 1001 
1001 1001 1001 1001 1001 1001 1001 1001 1001 
1001 1001 1001 1001 1001 1001 1001 1001 1001 
1001 1001 1001 1001 1001 1001 1001 1001 1001 
1001 1001 1001 1001 1001 1001 1001 1001 1001 
1001 1001 1001 1001 1001 1001 1001 1001 1001 
1001 1001 1001 1001 1001 1001 1001 1001 1001 
1001 1001 1001 1001 1001 1001 1001 1001 1001 
1001 1001 1001 1001 1001 1001 1001 1001 1001 
1001 1001 1001 1001 1001 1001 1001 1001 1001 
1001 1001 1001 1001 1001 1001 1001 1001 1001 
1001 1001 1001 1001 1001 1001 1001 1001 1001 
1001 1001 1001 1001 1001 1001 1001 1001 1001 
1001 1001 1001 1001 1001 1001 1001 1001 1001 
1001 1001 1001 1001 1001 1001 1001 1001 1001 
1001 1001 1001 1001 1001 1001 1001 1001 1001 
1001 1001 1001 1001 1001 1001 1001 1001 1001 
1001 1001 1001 1001 1001 1001 1001 1001 1001 
1001 1001 1001 1001 1001 1001 1001 1001 1001 
1001 1001 1001 1001 1001 1001 1001 1001 1001 
1001 1001 1001 1001 1001 1001 1001 1001 1001 
1001 1001 1001 1001 1001 1001 1001 1001 1001 
1001 1001 1001 1001 1001 1001 1001 1001 1001 
1001 1001 1001 1001 1001 1001 1001 1001 1001 
1001 1001 1001 1001 1001 1001 1001 1001 1001 
1001 1001 1001 1001 1001 1001 1001 1001 1001 
1001 1001 1001 1001 1001 1001 1001 1001 1001 
1001 1001 1001 1001 1001 1001 1001 1001 1001 
1001 1001 1001 1001 1001 1001 1001 1001 1001 
1001 1001 1001 1001 1001 1001 1001 1001 1001 
1001 1001 1001 1001 1001 1001 1001 1001 1001 
1001 1001 1001 1001 1001 1001 1001 1001 1001 
1001 1001 1001 1001 1001 1001 1001 1001 1001 