# vtk DataFile Version 4.2
vtk output
ASCII
DATASET POLYDATA
POINTS 18238 float
-16.6362 -13.4933 -34.9541 -16.6263 -13.3745 -35.0936 -16.4269 -13.444 -35.1571 
-16.7145 -13.5511 -35.1913 -16.6171 -13.6559 -35.0222 -17.1333 -14.0342 -35.1044 
-17.005 -14.308 -34.9899 -17.2567 -14.2885 -34.9239 -17.4936 -14.0673 -35.1487 
-17.1684 -14.6077 -34.9373 -17.0379 -14.6155 -35.1496 -17.3838 -14.5526 -35.1029 
-17.2011 -14.8173 -35.0529 -20.2208 -24.3255 -34.9425 -20.2459 -24.1856 -35.2018 
-20.0879 -24.3546 -35.1606 -20.4631 -24.2831 -35.1078 -20.3753 -24.4538 -35.1734 
-16.1161 -13.0205 -35.5122 -15.9984 -12.7732 -35.7283 -15.8772 -13.0231 -35.7085 
-16.1285 -12.8664 -35.775 -16.0139 -13.4969 -35.4023 -15.7247 -13.532 -35.6944 
-16.4755 -13.2113 -35.5784 -16.871 -13.5845 -35.785 -17.7965 -13.1982 -35.7693 
-17.592 -13.4009 -35.812 -17.7754 -13.6871 -35.4793 -18.0084 -13.3214 -35.8117 
-15.9419 -13.9639 -35.4922 -15.7659 -13.9614 -35.7904 -16.6532 -14.0143 -35.3259 
-17.2858 -13.7585 -35.6012 -17.7286 -14.203 -35.3826 -18.0327 -13.9039 -35.7422 
-16.1712 -14.252 -35.7233 -16.6919 -14.3825 -35.8319 -17.2693 -14.4809 -35.5901 
-17.219 -14.7717 -35.2218 -17.8315 -14.2906 -35.8016 -16.7894 -17.1499 -35.519 
-16.5288 -16.8927 -35.7027 -16.4154 -17.1082 -35.6672 -17.3779 -17.1771 -35.42 
-17.0139 -16.7942 -35.6511 -17.9878 -17.1929 -35.4256 -17.6533 -16.7785 -35.6466 
-18.4358 -17.2269 -35.5058 -18.3741 -16.792 -35.7859 -18.7368 -17.1022 -35.7503 
-16.5307 -17.4017 -35.7256 -16.8879 -17.6957 -35.6506 -17.1817 -17.6296 -35.4478 
-17.8266 -17.7154 -35.3306 -18.3409 -17.6985 -35.412 -18.7343 -17.5381 -35.6491 
-17.1486 -17.9937 -35.721 -17.5826 -18.4097 -35.6875 -17.7841 -18.2497 -35.4546 
-18.3251 -18.3049 -35.4313 -18.7435 -18.1432 -35.6359 -17.9343 -18.6948 -35.6095 
-18.1937 -19.0409 -35.7073 -18.2896 -18.7859 -35.5334 -18.7091 -18.7337 -35.6552 
-18.5381 -19.1041 -35.7187 -20.255 -24.0546 -35.6273 -19.957 -24.1421 -35.6433 
-20.7414 -24.3541 -35.3779 -20.6118 -24.0401 -35.6352 -20.9916 -24.2243 -35.6875 
-20.1485 -24.5541 -35.6649 -20.7969 -24.5312 -35.6017 -15.4737 -12.9959 -36.164 
-15.4146 -12.6696 -36.4329 -15.1171 -13.107 -36.3917 -15.9721 -12.8183 -35.8716 
-15.747 -12.8256 -36.3759 -17.8641 -12.9141 -36.0186 -17.846 -12.7685 -36.2767 
-17.7074 -13.011 -36.2271 -17.9924 -12.9585 -36.1847 -15.4806 -13.4666 -36.0661 
-15.2541 -13.484 -36.4303 -15.9301 -13.0555 -36.0337 -16.5426 -13.1947 -36.2178 
-16.9364 -13.4224 -36.3304 -17.4485 -13.4287 -36.2457 -18.1862 -13.4894 -36.3408 
-15.4455 -13.6546 -36.3442 -15.7791 -13.8941 -36.258 -16.062 -14.1655 -36.0344 
-16.2352 -14.1983 -36.3621 -17.1794 -13.6222 -36.164 -18.0717 -14.1775 -36.3128 
-16.562 -14.4141 -36.224 -17.1924 -14.5085 -36.2328 -17.6737 -14.4331 -36.1489 
-16.1863 -15.9685 -36.1091 -15.9395 -15.6782 -36.3202 -15.7101 -16.0797 -36.2807 
-16.7832 -15.9617 -36.0699 -16.4471 -15.5816 -36.2935 -17.4072 -15.982 -36.0757 
-17.0591 -15.5773 -36.3114 -17.9614 -16.0588 -36.128 -17.6338 -15.6384 -36.3301 
-18.0941 -15.8162 -36.3641 -15.9785 -16.4062 -36.072 -15.6541 -16.6516 -36.2769 
-16.5176 -16.4729 -35.9039 -17.2048 -16.3963 -35.8753 -17.8411 -16.4077 -35.9019 
-18.3621 -16.157 -36.2629 -18.3056 -16.4016 -36.044 -18.6726 -16.4646 -36.2353 
-16.1071 -16.9577 -35.968 -15.7222 -17.0569 -36.279 -19.0416 -17.2987 -36.0075 
-18.9295 -16.8524 -36.1184 -19.2193 -16.9917 -36.448 -15.9708 -17.4086 -36.2702 
-16.5878 -17.7079 -35.9614 -16.277 -17.7102 -36.2713 -19.1599 -17.879 -35.9495 
-19.3447 -17.5646 -36.4218 -16.5908 -18.0029 -36.27 -17.2116 -18.3856 -35.9579 
-16.8563 -18.4935 -36.3737 -19.1349 -18.4915 -35.8577 -19.55 -18.0047 -36.2524 
-19.5687 -18.3578 -36.0734 -19.7975 -18.2857 -36.3925 -17.278 -18.8743 -36.0864 
-17.0143 -19.0357 -36.4298 -17.7578 -18.8843 -35.8523 -18.9281 -19.0496 -35.8665 
-19.442 -18.9565 -36.0497 -19.8459 -18.7782 -36.4057 -17.2836 -19.2625 -36.2162 
-17.478 -19.5193 -36.2577 -17.6714 -19.3413 -36.0853 -18.3507 -19.3817 -35.9618 
-19.0063 -19.4422 -36.0698 -19.4053 -19.5523 -36.3654 -19.683 -19.2523 -36.3394 
-17.8338 -19.7696 -36.3483 -18.5929 -19.8188 -36.2551 -19.0559 -19.8188 -36.3576 
-21.3833 -21.8832 -36.176 -21.4151 -21.7243 -36.4164 -21.2474 -21.8717 -36.2688 
-21.6903 -21.9401 -36.4402 -21.3119 -22.1366 -36.3958 -20.9996 -23.1779 -36.0816 
-20.7823 -22.7769 -36.3736 -20.6086 -23.1278 -36.3507 -21.408 -23.2244 -36.1053 
-21.3201 -22.7855 -36.3845 -21.6929 -23.1025 -36.3799 -19.6888 -23.7895 -36.1019 
-19.5891 -23.6004 -36.2962 -19.4407 -23.8642 -36.3399 -19.7517 -23.6421 -36.2913 
-20.9337 -23.7293 -35.9455 -20.4939 -23.5921 -36.2693 -21.4515 -23.7334 -36.0089 
-21.7631 -23.5066 -36.2592 -19.6173 -24.1806 -36.017 -19.3836 -24.3955 -36.4373 
-20.0582 -23.8384 -36.2465 -21.2737 -24.3456 -35.8821 -22.0479 -23.9341 -36.3633 
-21.8223 -24.3755 -36.1099 -22.3162 -24.3715 -36.48 -19.7174 -24.634 -36.1488 
-20.2487 -25.0082 -35.9918 -19.8386 -25.1065 -36.2692 -20.8905 -24.9329 -35.8856 
-21.5142 -24.9064 -36.044 -21.8405 -24.8453 -36.2329 -22.0672 -24.6552 -36.37 
-19.8909 -25.5148 -36.3629 -20.2742 -25.4957 -36.0854 -20.7185 -25.437 -35.9607 
-21.2267 -25.5603 -36.0604 -21.7018 -25.3334 -36.2828 -20.1993 -25.8367 -36.3329 
-20.5268 -26.1489 -36.4574 -20.7388 -25.9354 -36.0887 -21.1702 -26.0585 -36.1943 
-21.51 -25.8122 -36.3002 -20.9816 -26.279 -36.3969 -15.3826 -11.8838 -36.6916 
-15.4478 -11.5123 -36.8469 -15.1248 -11.6975 -36.8258 -15.6426 -11.5958 -37.0154 
-20.9275 -11.667 -36.7178 -20.8342 -11.4766 -36.935 -20.6421 -11.6885 -36.833 
-21.2677 -11.7491 -36.7167 -21.2482 -11.5471 -36.8206 -21.6499 -11.5958 -36.94 
-14.3766 -12.3564 -36.7015 -14.1464 -12.0116 -36.9524 -13.994 -12.3803 -37.0818 
-14.9196 -12.1884 -36.5993 -14.5823 -11.9478 -36.8336 -15.2603 -12.34 -36.5321 
-15.66 -12.2031 -36.9347 -20.2122 -12.3128 -36.7916 -20.1221 -12.1658 -36.8711 
-20.0331 -12.3266 -36.847 -20.9459 -11.956 -36.9595 -20.3533 -12.2337 -36.8922 
-21.5688 -11.8882 -37.0135 -14.274 -12.6717 -36.8005 -14.4481 -12.8892 -36.8393 
-14.7836 -12.7018 -36.5696 -16.2101 -12.8686 -36.5536 -15.9975 -12.6126 -36.8495 
-16.8186 -13.0009 -36.6355 -16.5293 -12.6943 -36.9003 -17.2967 -12.9786 -36.7729 
-17.0413 -12.7505 -36.9609 -17.9576 -12.9697 -36.5075 -17.3978 -12.9055 -37.0233 
-20.1441 -12.4918 -36.9818 -14.6745 -13.1274 -36.9071 -15.0988 -13.482 -36.8184 
-17.2396 -13.3315 -36.5467 -17.6689 -13.1158 -36.8309 -18.2541 -13.2958 -36.8693 
-18.4311 -13.5763 -36.7479 -18.513 -13.5099 -36.9091 -15.5114 -13.8059 -36.6964 
-16.0232 -14.1776 -36.6287 -15.6927 -14.2821 -36.9116 -18.3061 -13.8429 -36.9231 
-18.4782 -13.6599 -36.9004 -16.0517 -14.7493 -36.6992 -15.6299 -14.7469 -36.8764 
-16.5984 -14.6371 -36.5701 -17.2191 -14.7676 -36.5463 -17.8963 -14.6822 -36.5406 
-18.4165 -14.3504 -36.911 -18.5396 -14.824 -36.7087 -18.7632 -14.6073 -36.9747 
-15.5808 -15.176 -36.7158 -15.3137 -15.0496 -36.9274 -15.1386 -15.4935 -36.8809 
-16.0145 -15.3322 -36.5153 -16.6163 -15.1822 -36.5287 -17.2165 -15.1916 -36.5448 
-17.8644 -15.3187 -36.5496 -18.4364 -15.3052 -36.5947 -19.0875 -14.8992 -36.99 
-18.9541 -15.3192 -36.7066 -19.3757 -15.3618 -37.0386 -15.4903 -15.719 -36.574 
-15.065 -16.0819 -36.9582 -18.522 -15.9346 -36.4958 -18.9607 -15.8958 -36.6566 
-19.249 -15.7977 -36.8826 -15.3602 -16.3424 -36.57 -15.152 -16.6032 -36.8946 
-19.0177 -16.4701 -36.5049 -19.2793 -16.4387 -36.8923 -15.4301 -16.9705 -36.5822 
-15.1857 -17.0376 -37.0712 -19.3464 -17.0873 -36.9367 -15.51 -17.4116 -36.7996 
-15.9801 -17.7158 -36.5837 -15.7038 -17.716 -37.0865 -17.8527 -17.7913 -36.7043 
-17.6599 -17.5163 -36.9914 -17.8661 -17.4479 -36.9844 -18.1519 -17.7458 -36.8865 
-19.4771 -17.5316 -37.0318 -16.1916 -17.9938 -36.9045 -16.5108 -18.238 -36.6304 
-16.456 -18.2423 -36.9815 -17.859 -17.932 -36.8494 -18.2207 -18.1397 -36.7347 
-18.1422 -18.3906 -37.0319 -18.5264 -17.9479 -37.0172 -18.6773 -18.2671 -36.9299 
-19.6512 -17.9402 -36.6779 -19.8871 -18.2596 -36.9096 -16.6481 -18.4348 -36.7892 
-16.8406 -18.7286 -36.9214 -18.4996 -18.49 -36.8724 -20.0293 -18.7723 -36.9842 
-17.2417 -19.5091 -36.4704 -16.9711 -19.4863 -36.9923 -19.6426 -19.5265 -36.5505 
-19.9434 -19.4315 -36.8797 -17.3291 -19.8919 -36.7532 -17.7414 -20.0991 -36.6828 
-17.4261 -20.1893 -36.9746 -18.2676 -20.1266 -36.5687 -18.8465 -20.1353 -36.5981 
-19.3283 -20.132 -36.8937 -19.6207 -19.8278 -36.882 -17.8424 -20.3188 -36.959 
-18.4779 -20.4346 -36.932 -19.0145 -20.4343 -36.9569 -21.0363 -21.8748 -36.7467 
-21.4312 -21.5772 -37.0269 -22.1502 -21.8274 -36.6465 -21.9773 -21.6116 -36.8258 
-22.4854 -21.895 -36.7591 -22.5856 -21.6637 -36.9318 -22.8707 -21.8174 -36.9562 
-20.95 -22.3977 -36.5789 -20.6958 -22.0931 -36.9967 -20.5534 -22.5327 -36.8727 
-21.3186 -22.4741 -36.4995 -21.6857 -22.4269 -36.6549 -22.1551 -22.167 -36.7936 
-22.6609 -22.0561 -36.9168 -20.4187 -23.156 -36.9321 -22.0094 -23.298 -36.6344 
-21.8795 -22.849 -36.747 -22.2148 -23.079 -36.9849 -19.6169 -23.7589 -36.5017 
-20.2414 -23.5976 -36.6501 -20.2511 -23.5693 -36.9906 -20.007 -23.8487 -36.9152 
-22.0326 -23.6452 -36.5033 -22.3133 -23.5907 -36.8424 -19.6927 -23.9233 -36.8087 
-19.2832 -24.1717 -36.8682 -22.6259 -24.3066 -36.6976 -22.6169 -24.013 -36.8982 
-22.8716 -24.2639 -36.9768 -19.5091 -24.8602 -36.4794 -19.2604 -24.989 -36.9276 
-22.0282 -25.0923 -36.5344 -22.3339 -24.8059 -36.713 -22.6662 -24.5168 -36.8233 
-19.5666 -25.3134 -36.6221 -19.4403 -25.5098 -37.0281 -21.9058 -25.707 -36.5854 
-22.3231 -25.3593 -36.8803 -19.752 -25.7009 -36.7407 -20.0983 -25.9652 -36.8023 
-20.3852 -26.1822 -36.9168 -21.4623 -26.1318 -36.4698 -21.8655 -26.1533 -36.7238 
-22.269 -25.9449 -36.9153 -20.8129 -26.3586 -36.9399 -21.4884 -26.3788 -36.8688 
-22.1382 -26.3247 -37.049 -20.3053 -10.5863 -37.2486 -20.3704 -10.3014 -37.6229 
-19.9533 -10.5477 -37.4064 -20.8031 -10.5879 -37.3031 -20.6909 -10.2875 -37.4735 
-20.9738 -10.4434 -37.6208 -14.3144 -11.2319 -37.3564 -14.1073 -10.9516 -37.6362 
-13.9986 -11.2187 -37.4759 -14.4586 -10.9387 -37.6008 -15.5145 -11.2298 -37.1941 
[...]
CELL_DATA 36732
SCALARS scalars float
LOOKUP_TABLE default
1011 1011 1011 1011 1011 1011 1011 1011 1011 
1011 1011 1011 1011 1011 1011 1011 1011 1011 
1011 1011 1011 1011 1011 1011 1011 1011 1011 
1011 1011 1011 1011 1011 1011 1011 1011 1011 
1011 1011 1011 1011 1011 1011 1011 1011 1011 
1011 1011 1011 1011 1011 1011 1011 1011 1011 
1011 1011 1011 1011 1011 1011 1011 1011 1011 
1011 1011 1011 1011 1011 1011 1011 1011 1011 
1011 1011 1011 1011 1011 1011 1011 1011 1011 
1011 1011 1011 1011 1011 1011 1011 1011 1011 
1011 1011 1011 1011 1011 1011 1011 1011 1011 
1011 1011 1011 1011 1011 1011 1011 1011 1011 
1011 1011 1011 1011 1011 1011 1011 1011 1011 
1011 1011 1011 1011 1011 1011 1011 1011 1011 
1011 1011 1011 1011 1011 1011 1011 1011 1011 
1011 1011 1011 1011 1011 1011 1011 1011 1011 
1011 1011 1011 1011 1011 1011 1011 1011 1011 
1011 1011 1011 1011 1011 1011 1011 1011 1011 
1011 1011 1011 1011 1011 1011 1011 1011 1011 
1011 1011 1011 1011 1011 1011 1011 1011 1011 
1011 1011 1011 1011 1011 1011 1011 1011 1011 
1011 1011 1011 1011 1011 1011 1011 1011 1011 
1011 1011 1011 1011 1011 1011 1011 1011 1011 
1011 1011 1011 1011 1011 1011 1011 1011 1011 
1011 1011 1011 1011 1011 1011 1011 1011 1011 
1011 1011 1011 1011 1011 1011 1011 1011 1011 
1011 1011 1011 1011 1011 1011 1011 1011 1011 
1011 1011 1011 1011 1011 1011 1011 1011 1011 
1011 1011 1011 1011 1011 1011 1011 1011 1011 
1011 1011 1011 1011 1011 1011 1011 1011 1011 
1011 1011 1011 1011 1011 1011 1011 1011 1011 
1011 1011 1011 1011 1011 1011 1011 1011 1011 
1011 1011 1011 1011 1011 1011 1011 1011 1011 
1011 1011 1011 1011 1011 1011 1011 1011 1011 
1011 1011 1011 1011 1011 1011 1011 1011 1011 
1011 1011 1011 1011 1011 1011 1011 1011 1011 
1011 1011 1011 1011 1011 1011 1011 1011 1011 
1011 1011 1011 1011 1011 1011 1011 1011 1011 
1011 1011 1011 1011 1011 1011 1011 1011 1011 
1011 1011 1011 1011 1011 1011 1011 1011 1011 
1011 1011 1011 1011 1011 1011 1011 1011 1011 
1011 1011 1011 1011 1011 1011 1011 1011 1011 
1011 1011 1011 1011 1011 1011 1011 1011 1011 
1011 1011 1011 1011 1011 1011 1011 1011 1011 
1011 1011 1011 1011 1011 1011 1011 1011 1011 
1011 1011 1011 1011 1011 1011 1011 1011 1011 
1011 1011 1011 1011 1011 1011 1011 1011 1011 
1011 1011 1011 1011 1011 1011 1011 1011 1011 
1011 1011 1011 1011 1011 1011 1011 1011 1011 
1011 1011 1011 1011 1011 1011 1011 1011 1011 
1011 1011 1011 1011 1011 1011 1011 1011 1011 
1011 1011 1011 1011 1011 1011 1011 1011 1011 
1011 1011 1011 1011 1011 1011 1011 1011 1011 
1011 1011 1011 1011 1011 1011 1011 1011 1011 
1011 1011 1011 1011 1011 1011 1011 1011 1011 
1011 1011 1011 1011 1011 1011 1011 1011 1011 
1011 1011 1011 1011 1011 1011 1011 1011 1011 
1011 1011 1011 1011 1011 1011 1011 1011 1011 
1011 1011 1011 1011 1011 1011 1011 1011 1011 
1011 1011 1011 1011 1011 1011 1011 1011 1011 
1011 1011 1011 1011 1011 1011 1011 1011 1011 
1011 1011 1011 1011 1011 1011 1011 1011 1011 
1011 1011 1011 1011 1011 1011 1011 1011 1011 
1011 1011 1011 1011 1011 1011 1011 1011 1011 
1011 1011 1011 1011 1011 1011 1011 1011 1011 
1011 1011 1011 1011 1011 1011 1011 1011 1011 
1011 1011 1011 1011 1011 1011 1011 1011 1011 
1011 1011 1011 1011 1011 1011 1011 1011 1011 
1011 1011 1011 1011 1011 1011 1011 1011 1011 
1011 1011 1011 1011 1011 1011 1011 1011 1011 
1011 1011 1011 1011 1011 1011 1011 1011 1011 
1011 1011 1011 1011 1011 1011 1011 1011 1011 
1011 1011 1011 1011 1011 1011 1011 1011 1011 
1011 1011 1011 1011 1011 1011 1011 1011 1011 
1011 1011 1011 1011 1011 1011 1011 1011 1011 
1011 1011 1011 1011 1011 1011 1011 1011 1011 
1011 1011 1011 1011 1011 1011 1011 1011 1011 
1011 1011 1011 1011 1011 1011 1011 1011 1011 
1011 1011 1011 1011 1011 1011 1011 1011 1011 
1011 1011 1011 1011 1011 1011 1011 1011 1011 
1011 1011 1011 1011 1011 1011 1011 1011 1011 
1011 1011 1011 1011 1011 1011 1011 1011 1011 
1011 1011 1011 1011 1011 1011 1011 1011 1011 
1011 1011 1011 1011 1011 1011 1011 1011 1011 
1011 1011 1011 1011 1011 1011 1011 1011 1011 
1011 1011 1011 1011 1011 1011 1011 1011 1011 
1011 1011 1011 1011 1011 1011 1011 1011 1011 
1011 1011 1011 1011 1011 1011 1011 1011 1011 
1011 1011 1011 1011 1011 1011 1011 1011 1011 
1011 1011 1011 1011 1011 1011 1011 1011 1011 
1011 1011 1011 1011 1011 1011 1011 1011 1011 
1011 1011 1011 1011 1011 1011 1011 1011 1011 
1011 1011 1011 1011 1011 1011 1011 1011 1011 
1011 1011 1011 1011 1011 1011 1011 1011 1011 
1011 1011 1011 1011 1011 1011 1011 1011 1011 
1011 1011 1011 1011 1011 1011 1011 1011 1011 
1011 1011 1011 1011 1011 1011 1011 1011 1011 
1011 1011 1011 1011 1011 1011 1011 1011 1011 
1011 1011 1011 1011 1011 1011 1011 1011 1011 
1011 1011 1011 1011 1011 1011 1011 1011 1011 
1011 1011 1011 1011 1011 1011 1011 1011 1011 
1011 1011 1011 1011 1011 1011 1011 1011 1011 
1011 1011 1011 1011 1011 1011 1011 1011 1011 
1011 1011 1011 1011 1011 1011 1011 1011 1011 
1011 1011 1011 1011 1011 1011 1011 1011 1011 
1011 1011 1011 1011 1011 1011 1011 1011 1011 
1011 1011 1011 1011 1011 1011 1011 1011 1011 
1011 1011 1011 1011 1011 1011 1011 1011 1011 
1011 1011 1011 1011 1011 1011 1011 1011 1011 
1011 1011 1011 1011 1011 1011 1011 1011 1011 
1011 1011 1011 1011 1011 1011 1011 1011 1011 
1011 1011 1011 1011 1011 1011 1011 1011 1011 
1011 1011 1011 1011 1011 1011 1011 1011 1011 
1011 1011 1011 1011 1011 1011 1011 1011 1011 
1011 1011 1011 1011 1011 1011 1011 1011 1011 
1011 1011 1011 1011 1011 1011 1011 1011 1011 
1011 1011 1011 1011 1011 1011 1011 1011 1011 
1011 1011 1011 1011 1011 1011 1011 1011 1011 
1011 1011 1011 1011 1011 1011 1011 1011 1011 
1011 1011 1011 1011 1011 1011 1011 1011 1011 
1011 1011 1011 1011 1011 1011 1011 1011 1011 
1011 1011 1011 1011 1011 1011 1011 1011 1011 
1011 1011 1011 1011 1011 1011 1011 1011 1011 
1011 1011 1011 1011 1011 1011 1011 1011 1011 
1011 1011 1011 1011 1011 1011 1011 1011 1011 
1011 1011 1011 1011 1011 1011 1011 1011 1011 
1011 1011 1011 1011 1011 1011 1011 1011 1011 
1011 1011 1011 1011 1011 1011 1011 1011 1011 
1011 1011 1011 1011 1011 1011 1011 1011 1011 
1011 1011 1011 1011 1011 1011 1011 1011 1011 
1011 1011 1011 1011 1011 1011 1011 1011 1011 
1011 1011 1011 1011 1011 1011 1011 1011 1011 
1011 1011 1011 1011 1011 1011 1011 1011 1011 
1011 1011 1011 1011 1011 1011 1011 1011 1011 
1011 1011 1011 1011 1011 1011 1011 1011 1011 
1011 1011 1011 1011 1011 1011 1011 1011 1011 
1011 1011 1011 1011 1011 1011 1011 1011 1011 
1011 1011 1011 1011 1011 1011 1011 1011 1011 
1011 1011 1011 1011 1011 1011 1011 1011 1011 
1011 1011 1011 1011 1011 1011 1011 1011 1011 
1011 1011 1011 1011 1011 1011 1011 1011 1011 
1011 1011 1011 1011 1011 1011 1011 1011 1011 
1011 1011 1011 1011 1011 1011 1011 1011 1011 
1011 1011 1011 1011 1011 1011 1011 1011 1011 
1011 1011 1011 1011 1011 1011 1011 1011 1011 
1011 1011 1011 1011 1011 1011 1011 1011 1011 
1011 1011 1011 1011 1011 1011 1011 1011 1011 
1011 1011 1011 1011 1011 1011 1011 1011 1011 
1011 1011 1011 1011 1011 1011 1011 1011 1011 
1011 1011 1011 1011 1011 1011 1011 1011 1011 
1011 1011 1011 1011 1011 1011 1011 1011 1011 
1011 1011 1011 1011 1011 1011 1011 1011 1011 
1011 1011 1011 1011 1011 1011 1011 1011 1011 
1011 1011 1011 1011 1011 1011 1011 1011 1011 
1011 1011 1011 1011 1011 1011 1011 1011 1011 
1011 1011 1011 1011 1011 1011 1011 1011 1011 
1011 1011 1011 1011 1011 1011 1011 1011 1011 
1011 1011 1011 1011 1011 1011 1011 1011 1011 
1011 1011 1011 1011 1011 1011 1011 1011 1011 
1011 1011 1011 1011 1011 1011 1011 1011 1011 
1011 1011 1011 1011 1011 1011 1011 1011 1011 
1011 1011 1011 1011 1011 1011 1011 1011 1011 
1011 1011 1011 1011 1011 1011 1011 1011 1011 
1011 1011 1011 1011 1011 1011 1011 1011 1011 
1011 1011 1011 1011 1011 1011 1011 1011 1011 
1011 1011 1011 1011 1011 1011 1011 1011 1011 
1011 1011 1011 1011 1011 1011 1011 1011 1011 
1011 1011 1011 1011 1011 1011 1011 1011 1011 
1011 1011 1011 1011 1011 1011 1011 1011 1011 
1011 1011 1011 1011 1011 1011 1011 1011 1011 
1011 1011 1011 1011 1011 1011 1011 1011 1011 
1011 1011 1011 1011 1011 1011 1011 1011 1011 
1011 1011 1011 1011 1011 1011 1011 1011 1011 
1011 1011 1011 1011 1011 1011 1011 1011 1011 
1011 1011 1011 1011 1011 1011 1011 1011 1011 
1011 1011 1011 1011 1011 1011 1011 1011 1011 
1011 1011 1011 1011 1011 1011 1011 1011 1011 
1011 1011 1011 1011 1011 1011 1011 1011 1011 
1011 1011 1011 1011 1011 1011 1011 1011 1011 
1011 1011 1011 1011 1011 1011 1011 1011 1011 
1011 1011 1011 1011 1011 1011 1011 1011 1011 
1011 1011 1011 1011 1011 1011 1011 1011 1011 
1011 1011 1011 1011 1011 1011 1011 1011 1011 
1011 1011 1011 1011 1011 1011 1011 1011 1011 
1011 1011 1011 1011 1011 1011 1011 1011 1011 
1011 1011 1011 1011 1011 1011 1011 1011 1011 
1011 1011 1011 1011 1011 1011 1011 1011 1011 
1011 1011 1011 1011 1011 1011 1011 1011 1011 
1011 1011 1011 1011 1011 1011 1011 1011 1011 
1011 1011 1011 1011 1011 1011 1011 1011 1011 
1011 1011 1011 1011 1011 1011 1011 1011 1011 
1011 1011 1011 1011 1011 1011 1011 1011 1011 
1011 1011 1011 1011 1011 1011 1011 1011 1011 
1011 1011 1011 1011 1011 1011 1011 1011 1011 
1011 1011 1011 1011 1011 1011 1011 1011 1011 
1011 1011 1011 1011 1011 1011 1011 1011 1011 
1011 1011 1011 1011 1011 1011 1011 1011 1011 
1011 1011 1011 1011 1011 1011 1011 1011 1011 
1011 1011 1011 1011 1011 1011 1011 1011 1011 
1011 1011 1011 1011 1011 1011 1011 1011 1011 
1011 1011 1011 1011 1011 1011 1011 1011 1011 
1011 1011 1011 1011 1011 1011 1011 1011 1011 
1011 1011 1011 1011 1011 1011 1011 1011 1011 
1011 1011 1011 1011 1011 1011 1011 1011 1011 
1011 1011 1011 1011 1011 1011 1011 1011 1011 
1011 1011 1011 1011 1011 1011 1011 1011 1011 
1011 1011 1011 1011 1011 1011 1011 1011 1011 
1011 1011 1011 1011 1011 1011 1011 1011 1011 
1011 1011 1011 1011 1011 1011 1011 1011 1011 
1011 1011 1011 1011 1011 1011 1011 1011 1011 
1011 1011 1011 1011 1011 1011 1011 1011 1011 
1011 1011 1011 1011 1011 1011 1011 1011 1011 
1011 1011 1011 1011 1011 1011 1011 1011 1011 
1011 1011 1011 1011 1011 1011 1011 1011 1011 
1011 1011 1011 1011 1011 1011 1011 1011 1011 
1011 1011 1011 1011 1011 1011 1011 1011 1011 
1011 1011 1011 1011 1011 1011 1011 1011 1011 
1011 1011 1011 1011 1011 1011 1011 1011 1011 
1011 1011 1011 1011 1011 1011 1011 1011 1011 
1011 1011 1011 1011 1011 1011 1011 1011 1011 
1011 1011 1011 1011 1011 1011 1011 1011 1011 
1011 1011 1011 1011 1011 1011 1011 1011 1011 
1011 1011 1011 1011 1011 1011 1011 1011 1011 
1011 1011 1011 1011 1011 1011 1011 1011 1011 
1011 1011 1011 1011 1011 1011 1011 1011 1011 
1011 1011 1011 1011 1011 1011 1011 1011 1011 
1011 1011 1011 1011 1011 1011 1011 1011 1011 
1011 1011 1011 1011 1011 1011 1011 1011 1011 
1011 1011 1011 1011 1011 1011 1011 1011 1011 
1011 1011 1011 1011 1011 1011 1011 1011 1011 
1011 1011 1011 1011 1011 1011 1011 1011 1011 
1011 1011 1011 1011 1011 1011 1011 1011 1011 
1011 1011 1011 1011 1011 1011 1011 1011 1011 
1011 1011 1011 1011 1011 1011 1011 1011 1011 
1011 1011 1011 1011 1011 1011 1011 1011 1011 
1011 1011 1011 1011 1011 1011 1011 1011 1011 
1011 1011 1011 1011 1011 1011 1011 1011 1011 
1011 1011 1011 1011 1011 1011 1011 1011 1011 
1011 1011 1011 1011 1011 1011 1011 1011 1011 
1011 1011 1011 1011 1011 1011 1011 1011 1011 
1011 1011 1011 1011 1011 1011 1011 1011 1011 
1011 1011 1011 1011 1011 1011 1011 1011 1011 
1011 1011 1011 1011 1011 1011 1011 1011 1011 
1011 1011 1011 1011 1011 1011 1011 1011 1011 
1011 1011 1011 1011 1011 1011 1011 1011 1011 
1011 1011 1011 1011 1011 1011 1011 1011 1011 
1011 1011 1011 1011 1011 1011 1011 1011 1011 
1011 1011 1011 1011 1011 1011 1011 1011 1011 
1011 1011 1011 1011 1011 1011 1011 1011 1011 
1011 1011 1011 1011 1011 1011 1011 1011 1011 
1011 1011 1011 1011 1011 1011 1011 1011 1011 
1011 1011 1011 1011 1011 1011 1011 1011 1011 
1011 1011 1011 1011 1011 1011 1011 1011 1011 
1011 1011 1011 1011 1011 1011 1011 1011 1011 
1011 1011 1011 1011 1011 1011 1011 1011 1011 
1011 1011 1011 1011 1011 1011 1011 1011 1011 
1011 1011 1011 1011 1011 1011 1011 1011 1011 
1011 1011 1011 1011 1011 1011 1011 1011 1011 
1011 1011 1011 1011 1011 1011 1011 1011 1011 
1011 1011 1011 1011 1011 1011 1011 1011 1011 
1011 1011 1011 1011 1011 1011 1011 1011 1011 
1011 1011 1011 1011 1011 1011 1011 1011 1011 
1011 1011 1011 1011 1011 1011 1011 1011 1011 
1011 1011 1011 1011 1011 1011 1011 1011 1011 
1011 1011 1011 1011 1011 1011 1011 1011 1011 
1011 1011 1011 1011 1011 1011 1011 1011 1011 
1011 1011 1011 1011 1011 1011 1011 1011 1011 
1011 1011 1011 1011 1011 1011 1011 1011 1011 
1011 1011 1011 1011 1011 1011 1011 1011 1011 
1011 1011 1011 1011 1011 1011 1011 1011 1011 
1011 1011 1011 1011 1011 1011 1011 1011 1011 
1011 1011 1011 1011 1011 1011 1011 1011 1011 
1011 1011 1011 1011 1011 1011 1011 1011 1011 
1011 1011 1011 1011 1011 1011 1011 1011 1011 
1011 1011 1011 1011 1011 1011 1011 1011 1011 
1011 1011 1011 1011 1011 1011 1011 1011 1011 
1011 1011 1011 1011 1011 1011 1011 1011 1011 
1011 1011 1011 1011 1011 1011 1011 1011 1011 
1011 1011 1011 1011 1011 1011 1011 1011 1011 
1011 1011 1011 1011 1011 1011 1011 1011 1011 
1011 1011 1011 1011 1011 1011 1011 1011 1011 
1011 1011 1011 1011 1011 1011 1011 1011 1011 
1011 1011 1011 1011 1011 1011 1011 1011 1011 
1011 1011 1011 1011 1011 1011 1011 1011 1011 
1011 1011 1011 1011 1011 1011 1011 1011 1011 
1011 1011 1011 1011 1011 1011 1011 1011 1011 
1011 1011 1011 1011 1011 1011 1011 1011 1011 
1011 1011 1011 1011 1011 1011 1011 1011 1011 
1011 1011 1011 1011 1011 1011 1011 1011 1011 
1011 1011 1011 1011 1011 1011 1011 1011 1011 
1011 1011 1011 1011 1011 1011 1011 1011 1011 
1011 1011 1011 1011 1011 1011 1011 1011 1011 
1011 1011 1011 1011 1011 1011 1011 1011 1011 
1011 1011 1011 1011 1011 1011 1011 1011 1011 
1011 1011 1011 1011 1011 1011 1011 1011 1011 
1011 1011 1011 1011 1011 1011 1011 1011 1011 
1011 1011 1011 1011 1011 1011 1011 1011 1011 
1011 1011 1011 1011 1011 1011 1011 1011 1011 
1011 1011 1011 1011 1011 1011 1011 1011 1011 
1011 1011 1011 1011 1011 1011 1011 1011 1011 
1011 1011 1011 1011 1011 1011 1011 1011 1011 
1011 1011 1011 1011 1011 1011 1011 1011 1011 
1011 1011 1011 1011 1011 1011 1011 1011 1011 
1011 1011 1011 1011 1011 1011 1011 1011 1011 
1011 1011 1011 1011 1011 1011 1011 1011 1011 
1011 1011 1011 1011 1011 1011 1011 1011 1011 
1011 1011 1011 1011 1011 1011 1011 1011 1011 
1011 1011 1011 1011 1011 1011 1011 1011 1011 
1011 1011 1011 1011 1011 1011 1011 1011 1011 
1011 1011 1011 1011 1011 1011 1011 1011 1011 
1011 1011 1011 1011 1011 1011 1011 1011 1011 
1011 1011 1011 1011 1011 1011 1011 1011 1011 
1011 1011 1011 1011 1011 1011 1011 1011 1011 
1011 1011 1011 1011 1011 1011 1011 1011 1011 
1011 1011 1011 1011 1011 1011 1011 1011 1011 
1011 1011 1011 1011 1011 1011 1011 1011 1011 
1011 1011 1011 1011 1011 1011 1011 1011 1011 
1011 1011 1011 1011 1011 1011 1011 1011 1011 
1011 1011 1011 1011 1011 1011 1011 1011 1011 
1011 1011 1011 1011 1011 1011 1011 1011 1011 
1011 1011 1011 1011 1011 1011 1011 1011 1011 
1011 1011 1011 1011 1011 1011 1011 1011 1011 
1011 1011 1011 1011 1011 1011 1011 1011 1011 
1011 1011 1011 1011 1011 1011 1011 1011 1011 
1011 1011 1011 1011 1011 1011 1011 1011 1011 
1011 1011 1011 1011 1011 1011 1011 1011 1011 
1011 1011 1011 1011 1011 1011 1011 1011 1011 
1011 1011 1011 1011 1011 1011 1011 1011 1011 
1011 1011 1011 1011 1011 1011 1011 1011 1011 
1011 1011 1011 1011 1011 1011 1011 1011 1011 
1011 1011 1011 1011 1011 1011 1011 1011 1011 
1011 1011 1011 1011 1011 1011 1011 1011 1011 
1011 1011 1011 1011 1011 1011 1011 1011 1011 
1011 1011 1011 1011 1011 1011 1011 1011 1011 
1011 1011 1011 1011 1011 1011 1011 1011 1011 
1011 1011 1011 1011 1011 1011 1011 1011 1011 
1011 1011 1011 1011 1011 1011 1011 1011 1011 
1011 1011 1011 1011 1011 1011 1011 1011 1011 
1011 1011 1011 1011 1011 1011 1011 1011 1011 
1011 1011 1011 1011 1011 1011 1011 1011 1011 
1011 1011 1011 1011 1011 1011 1011 1011 1011 
1011 1011 1011 1011 1011 1011 1011 1011 1011 
1011 1011 1011 1011 1011 1011 1011 1011 1011 
1011 1011 1011 1011 1011 1011 1011 1011 1011 
1011 1011 1011 1011 1011 1011 1011 1011 1011 
1011 1011 1011 1011 1011 1011 1011 1011 1011 
1011 1011 1011 1011 1011 1011 1011 1011 1011 
1011 1011 1011 1011 1011 1011 1011 1011 1011 
1011 1011 1011 1011 1011 1011 1011 1011 1011 
1011 1011 1011 1011 1011 1011 1011 1011 1011 
1011 1011 1011 1011 1011 1011 1011 1011 1011 
1011 1011 1011 1011 1011 1011 1011 1011 1011 
1011 1011 1011 1011 1011 1011 1011 1011 1011 
1011 1011 1011 1011 1011 1011 1011 1011 1011 
1011 1011 1011 1011 1011 1011 1011 1011 1011 
1011 1011 1011 1011 1011 1011 1011 1011 1011 
1011 1011 1011 1011 1011 1011 1011 1011 1011 
1011 1011 1011 1011 1011 1011 1011 1011 1011 
1011 1011 1011 1011 1011 1011 1011 1011 1011 
1011 1011 1011 1011 1011 1011 1011 1011 1011 
1011 1011 1011 1011 1011 1011 1011 1011 1011 
1011 1011 1011 1011 1011 1011 1011 1011 1011 
1011 1011 1011 1011 1011 1011 1011 1011 1011 
1011 1011 1011 1011 1011 1011 1011 1011 1011 
1011 1011 1011 1011 1011 1011 1011 1011 1011 
1011 1011 1011 1011 1011 1011 1011 1011 1011 
1011 1011 1011 1011 1011 1011 1011 1011 1011 
1011 1011 1011 1011 1011 1011 1011 1011 1011 
1011 1011 1011 1011 1011 1011 1011 1011 1011 
1011 1011 1011 1011 1011 1011 1011 1011 1011 
1011 1011 1011 1011 1011 1011 1011 1011 1011 
1011 1011 1011 1011 1011 1011 1011 1011 1011 
1011 1011 1011 1011 1011 1011 1011 1011 1011 
1011 1011 1011 1011 1011 1011 1011 1011 1011 
1011 1011 1011 1011 1011 1011 1011 1011 1011 
1011 1011 1011 1011 1011 1011 1011 1011 1011 
1011 1011 1011 1011 1011 1011 1011 1011 1011 
1011 1011 1011 1011 1011 1011 1011 1011 1011 
1011 1011 1011 1011 1011 1011 1011 1011 1011 
1011 1011 1011 1011 1011 1011 1011 1011 1011 
1011 1011 1011 1011 1011 1011 1011 1011 1011 
1011 1011 1011 1011 1011 1011 1011 1011 1011 
1011 1011 1011 1011 1011 1011 1011 1011 1011 
1011 1011 1011 1011 1011 1011 1011 1011 1011 
1011 1011 1011 1011 1011 1011 1011 1011 1011 
1011 1011 1011 1011 1011 1011 1011 1011 1011 
1011 1011 1011 1011 1011 1011 1011 1011 1011 
1011 1011 1011 1011 1011 1011 1011 1011 1011 
1011 1011 1011 1011 1011 1011 1011 1011 1011 
1011 1011 1011 1011 1011 1011 1011 1011 1011 
1011 1011 1011 1011 1011 1011 1011 1011 1011 
1011 1011 1011 1011 1011 1011 1011 1011 1011 
1011 1011 1011 1011 1011 1011 1011 1011 1011 
1011 1011 1011 1011 1011 1011 1011 1011 1011 
1011 1011 1011 1011 1011 1011 1011 1011 1011 
1011 1011 1011 1011 1011 1011 1011 1011 1011 
1011 1011 1011 1011 1011 1011 1011 1011 1011 
1011 1011 1011 1011 1011 1011 1011 1011 1011 
1011 1011 1011 1011 1011 1011 1011 1011 1011 
1011 1011 1011 1011 1011 1011 1011 1011 1011 
1011 1011 1011 1011 1011 1011 1011 1011 1011 
1011 1011 1011 1011 1011 1011 1011 1011 1011 
1011 1011 1011 1011 1011 1011 1011 1011 1011 
1011 1011 1011 1011 1011 1011 1011 1011 1011 
1011 1011 1011 1011 1011 1011 1011 1011 1011 
1011 1011 1011 1011 1011 1011 1011 1011 1011 
1011 1011 1011 1011 1011 1011 1011 1011 1011 
1011 1011 1011 1011 1011 1011 1011 1011 1011 
1011 1011 1011 1011 1011 1011 1011 1011 1011 
1011 1011 1011 1011 1011 1011 1011 1011 1011 
1011 1011 1011 1011 1011 1011 1011 1011 1011 
1011 1011 1011 1011 1011 1011 1011 1011 1011 
1011 1011 1011 1011 1011 1011 1011 1011 1011 
1011 1011 1011 1011 1011 1011 1011 1011 1011 
1011 1011 1011 1011 1011 1011 1011 1011 1011 
1011 1011 1011 1011 1011 1011 1011 1011 1011 
1011 1011 1011 1011 1011 1011 1011 1011 1011 
1011 1011 1011 1011 1011 1011 1011 1011 1011 
1011 1011 1011 1011 1011 1011 1011 1011 1011 
1011 1011 1011 1011 1011 1011 1011 1011 1011 
1011 1011 1011 1011 1011 1011 1011 1011 1011 
1011 1011 1011 1011 1011 1011 1011 1011 1011 
1011 1011 1011 1011 1011 1011 1011 1011 1011 
1011 1011 1011 1011 1011 1011 1011 1011 1011 
1011 1011 1011 1011 1011 1011 1011 1011 1011 
1011 1011 1011 1011 1011 1011 1011 1011 1011 
1011 1011 1011 1011 1011 1011 1011 1011 1011 
1011 1011 1011 1011 1011 1011 1011 1011 1011 
1011 1011 1011 1011 1011 1011 1011 1011 1011 
1011 1011 1011 1011 1011 1011 1011 1011 1011 
1011 1011 1011 1011 1011 1011 1011 1011 1011 
1011 1011 1011 1011 1011 1011 1011 1011 1011 
1011 1011 1011 1011 1011 1011 1011 1011 1011 