# vtk DataFile Version 4.2
vtk output
ASCII
DATASET POLYDATA
POINTS 17734 float
-23.8057 -44.0687 3.46131 -23.7437 -43.9257 3.17568 -23.6181 -44.0736 3.39311 
-24.0657 -44.0519 3.28774 -23.7383 -44.2387 3.25705 -21.4463 -43.6355 2.89896 
-21.4136 -43.3847 2.75212 -21.1259 -43.573 2.6201 -21.5624 -43.486 2.66092 
-21.3439 -43.9589 2.89571 -21.2131 -44.2152 2.58314 -21.6447 -43.8876 2.67616 
-23.3414 -44.0818 3.07267 -23.1511 -43.8907 2.6539 -23.0075 -44.1689 2.68735 
-23.778 -43.7281 2.57163 -24.3256 -44.2784 3.01521 -24.3863 -43.9005 2.79476 
-24.7915 -44.0874 2.64342 -21.4645 -44.2515 2.73262 -23.3285 -44.4177 2.84876 
-23.8336 -44.6028 2.942 -23.5427 -44.806 2.65708 -24.2882 -44.6932 2.86803 
-24.7182 -44.4917 2.71586 -24.0168 -44.9732 2.68796 -24.4823 -44.8894 2.67309 
-25.1132 -45.452 2.88056 -25.0623 -45.1501 2.76335 -24.8241 -45.4429 2.73461 
-25.2461 -45.1825 2.60189 -21.5766 -45.9853 2.97154 -21.4128 -45.7381 2.61528 
-21.2306 -46.0327 2.77229 -21.9916 -46.0464 2.917 -21.8225 -45.6218 2.61785 
-22.2503 -45.8177 2.54645 -24.7678 -45.9552 2.66158 -25.0283 -45.7984 2.88479 
-25.2483 -45.7269 2.69176 -21.37 -46.3501 2.96082 -21.216 -46.4378 2.56886 
-21.7877 -46.4411 2.97646 -22.2799 -46.3148 2.62095 -23.2436 -46.5412 2.82749 
-23.2294 -46.3695 2.77281 -23.0324 -46.5149 2.63221 -23.4016 -46.4496 2.712 
-25.0132 -46.0957 2.57411 -21.5809 -46.7113 2.69014 -22.1208 -46.7247 2.609 
-23.3119 -46.7144 2.5293 -20.9164 -43.0322 2.33124 -20.8384 -42.6307 1.95933 
-20.5261 -43.0919 2.00244 -21.1734 -42.8133 2.06384 -23.3822 -42.9393 2.3178 
-23.1619 -42.7278 2.02738 -23.063 -42.9319 2.0242 -23.8066 -43.0253 2.31681 
-23.5704 -42.7618 2.12184 -23.9193 -42.9912 2.06356 -20.7522 -43.3468 2.3326 
-20.6536 -43.4974 1.96353 -21.3519 -43.1828 2.38238 -21.6972 -43.4624 2.05814 
-23.3446 -43.1601 2.1201 -23.5436 -43.464 2.13213 -23.7652 -43.3812 2.35062 
-24.1201 -43.3204 2.10939 -20.8522 -43.6734 2.16992 -21.0352 -44.0424 2.11505 
-22.0647 -43.864 2.1023 -22.0054 -44.2449 2.44534 -22.6692 -44.1656 2.44794 
-22.6503 -43.8872 2.1201 -23.2882 -43.7173 2.11219 -24.4127 -43.6849 2.2225 
-25.0887 -44.2591 2.3615 -24.9289 -43.9062 2.24413 -25.2307 -44.0864 1.95148 
-21.5465 -44.6441 2.4229 -21.191 -44.6239 2.05515 -22.0845 -44.7761 2.39822 
-22.5755 -44.6765 2.38965 -23.1047 -44.6536 2.49355 -24.9426 -44.859 2.55985 
-25.3102 -44.612 2.09254 -21.5195 -45.0404 2.14455 -21.6658 -45.3384 2.1984 
-22.0188 -45.2512 2.36039 -22.6183 -45.2462 2.33694 -23.2054 -45.2838 2.37441 
-23.7781 -45.2784 2.45511 -24.4033 -45.2409 2.54674 -25.3693 -45.2951 2.14448 
-21.3976 -45.5845 2.20025 -21.1024 -46.043 2.27788 -22.6036 -45.7016 2.20527 
-22.4895 -45.9856 2.22218 -22.7772 -46.0136 2.11739 -23.1638 -46.0212 2.43659 
-23.7459 -45.8316 2.39392 -24.3055 -45.9106 2.43136 -25.2409 -45.8724 2.19602 
-21.1504 -46.6004 2.12937 -22.5866 -46.1563 2.16571 -22.6598 -46.4291 2.40707 
-23.7732 -46.3969 2.41711 -24.1129 -46.4595 2.16689 -24.4529 -46.2712 2.11947 
-24.8931 -46.1458 2.01769 -21.5238 -46.8746 2.08789 -22.0165 -46.8807 2.13126 
-22.7167 -46.8036 2.22171 -23.2235 -46.8654 2.12273 -23.6462 -46.7211 2.03866 
-19.5995 -41.6457 1.63255 -19.6233 -41.5196 1.36761 -19.4464 -41.8077 1.40327 
-19.8332 -41.6066 1.49141 -19.6693 -41.8048 1.52604 -20.3476 -42.0369 1.41977 
-19.9507 -42.3872 1.49563 -20.3346 -42.275 1.68072 -20.6598 -42.3429 1.77599 
-20.7783 -42.0756 1.44048 -21.125 -42.2661 1.52617 -20.2686 -42.6795 1.78724 
-19.9276 -42.822 1.52165 -21.462 -42.9553 1.9016 -21.3284 -42.5904 1.67056 
-21.6265 -42.8536 1.43376 -23.3198 -42.5787 1.48958 -22.9866 -42.8266 1.4785 
-23.5856 -43.0246 1.81396 -23.5379 -42.8362 1.4186 -24.424 -43.0343 1.60561 
-24.2719 -42.7448 1.35303 -24.1523 -42.9026 1.51064 -24.5879 -42.888 1.36267 
-19.5609 -43.5452 1.6171 -19.5227 -43.2962 1.44917 -19.4405 -43.4714 1.37129 
-20.1468 -43.1273 1.54655 -19.785 -43.5685 1.40145 -20.5168 -43.5238 1.55595 
-21.7752 -43.4278 1.35728 -23.2643 -43.0328 1.59933 -24.0284 -43.1375 1.70632 
-23.5543 -43.4141 1.58635 -24.4793 -43.4451 1.79747 -24.7471 -43.3515 1.36473 
-19.5887 -43.6548 1.49789 -20.8244 -43.8447 1.68915 -20.9628 -44.2734 1.63285 
-22.0716 -43.7728 1.51778 -22.5966 -43.8474 1.50549 -23.1316 -43.7349 1.49082 
-24.9571 -43.7896 1.68383 -25.2859 -44.1603 1.47505 -20.3939 -44.796 1.66356 
-20.1936 -44.4051 1.39499 -19.9961 -44.7339 1.43319 -20.8952 -44.7661 1.7347 
-20.6213 -44.3744 1.46667 -25.3629 -44.7006 1.49645 -20.2517 -45.302 1.72703 
-19.9739 -45.2647 1.4342 -20.709 -45.2144 1.79588 -21.2203 -45.2276 1.9287 
-25.2516 -45.3658 1.59224 -20.2362 -45.9106 1.74277 -19.9898 -45.9204 1.52874 
-20.8098 -45.7326 1.89662 -22.6424 -45.9196 1.99831 -25.1002 -45.8605 1.78327 
-24.8265 -45.8869 1.54783 -25.054 -45.6379 1.5141 -20.2138 -46.4882 1.69892 
-20.0223 -46.3907 1.49674 -20.7682 -46.481 1.88549 -23.9554 -46.5284 1.84219 
-23.5775 -46.5966 1.57652 -23.7923 -46.3458 1.41943 -24.3605 -46.1421 1.47657 
-20.2268 -46.8021 1.55203 -20.5328 -47.0884 1.4651 -20.6519 -47.0134 1.67651 
-21.2196 -47.0764 1.767 -21.587 -47.1375 1.58075 -21.8392 -46.9391 1.46129 
-22.4251 -46.7903 1.45356 -23.1171 -46.7483 1.63079 -20.951 -47.2883 1.52288 
-21.3042 -47.2839 1.44929 -19.5473 -41.405 0.793776 -19.2679 -41.7553 0.919011 
-20.1052 -41.833 1.27937 -20.1273 -41.4632 0.994569 -20.5781 -41.6182 0.83177 
-19.6199 -42.1601 1.3342 -19.348 -42.2813 1.02872 -20.8018 -41.8587 0.978625 
-21.4893 -42.3563 1.25534 -21.2837 -42.0745 1.03341 -21.6115 -42.3606 0.858604 
-23.1704 -42.2637 1.10722 -23.2319 -41.9512 0.742213 -22.9466 -42.3544 0.96866 
-23.4992 -42.2648 0.927063 -19.6992 -42.9122 1.31032 -19.3023 -42.9363 1.0031 
-21.7666 -42.8781 0.874622 -22.9339 -42.8341 0.754752 -23.7158 -43.0227 1.29518 
-23.8882 -42.5835 1.03128 -24.427 -42.6764 1.02735 -24.656 -42.9609 0.909677 
-19.3593 -43.3407 0.842935 -20.2022 -43.5519 1.30313 -21.8294 -43.4031 0.93289 
-23.2129 -43.1412 1.03349 -23.4152 -43.4699 0.927219 -24.8383 -43.3437 0.762076 
-19.7294 -43.7213 0.989369 -20.1983 -44.0027 1.22639 -19.9952 -44.1919 0.974149 
-20.6591 -43.9583 1.33697 -22.0578 -43.7368 0.968871 -22.6046 -43.8646 0.904459 
-23.1502 -43.7741 0.871751 -25.1146 -43.7389 0.912332 -25.3696 -44.2261 0.854475 
-19.9835 -44.6451 1.0064 -25.2431 -44.8072 1.01114 -20.0949 -45.0234 1.01873 
-20.1318 -45.4931 1.18142 -20.3437 -45.1439 0.749725 -24.9682 -45.383 1.20152 
-24.7253 -45.4042 0.884294 -25.0092 -45.0216 0.699751 -20.2514 -46.0963 1.21502 
-20.5023 -45.701 0.789601 -24.5549 -45.7731 1.16179 -24.1671 -45.9663 0.988124 
-24.3066 -45.6529 0.700186 -20.3113 -46.6828 1.33748 -20.8007 -46.1596 0.768645 
-20.8246 -46.6291 1.08696 -21.1442 -46.4867 0.771016 -22.7916 -46.5248 1.11808 
-22.3424 -46.5667 0.950404 -22.5561 -46.311 0.817525 -23.1405 -46.2164 0.923383 
-23.2725 -46.4855 1.26315 -23.769 -46.1074 0.97148 -20.86 -47.0984 1.30887 
-21.454 -46.7665 0.982965 -21.3813 -47.0537 1.26182 -21.9621 -46.7072 0.958182 
-19.0563 -41.5861 0.605566 -19.0979 -41.4494 0.248071 -18.8178 -41.8067 0.168159 
-19.6757 -41.335 0.255473 -20.2053 -41.3545 0.353206 -20.9403 -41.6966 0.539278 
-20.6836 -41.4854 0.423688 -21.112 -41.673 0.0901062 -23.1892 -41.626 0.490581 
-23.215 -41.4927 0.136299 -22.9677 -41.8222 0.462552 -23.4964 -41.635 0.331801 
-18.9955 -41.8937 0.430179 -19.1109 -42.4444 0.336653 -21.3351 -41.9658 0.461009 
-21.7339 -42.3455 0.244519 -22.8402 -42.2895 0.336777 -23.9088 -42.333 0.561086 
-23.6969 -42.0082 0.469144 -24.0841 -42.1969 0.0750275 -19.0812 -42.909 0.493634 
-18.9677 -42.7107 0.290648 -18.9093 -42.8487 0.298087 -21.9449 -42.707 0.369557 
-21.9722 -43.1214 0.59192 -22.1447 -42.9021 0.185481 -22.9938 -42.7596 0.175969 
-24.3842 -42.6031 0.393233 -24.7794 -42.9624 0.322929 -19.037 -42.9797 0.289806 
-19.5379 -43.2979 0.198395 -19.5722 -43.5024 0.625708 -19.8308 -43.5362 0.402544 
-22.064 -43.5449 0.638164 -22.313 -43.3379 0.210979 -23.3035 -43.1761 0.315271 
-23.5341 -43.561 0.304857 -24.9527 -43.2697 0.354066 -24.9905 -43.5046 0.56646 
-25.2137 -43.4729 0.320952 -20.1993 -43.7679 0.292749 -20.1975 -44.266 0.548282 
-20.5001 -44.0702 0.166882 -22.5556 -43.7616 0.381285 -23.2815 -43.7887 0.24164 
-25.7031 -44.13 0.470457 -25.5238 -43.7963 0.432362 -26.237 -44.1152 0.439151 
-26.0417 -43.7838 0.301648 -26.7105 -44.1504 0.438135 -26.6137 -43.8297 0.328619 
-26.9988 -44.0127 0.309503 -20.2084 -44.7074 0.704091 -20.4969 -44.6188 0.337779 
-25.3492 -44.5732 0.480817 -25.8149 -44.4268 0.315651 -26.3921 -44.4034 0.318544 
-26.8972 -44.3109 0.300224 -20.6145 -45.2559 0.36714 -24.6605 -45.2903 0.471098 
-25.0153 -44.9662 0.11337 -20.7496 -45.6731 0.389346 -20.7757 -45.9092 0.574663 
-21.0023 -45.8898 0.335248 -22.0389 -45.9906 0.451895 -21.648 -46.0155 0.324884 
-21.9441 -45.6986 0.229074 -22.436 -45.5891 0.282573 -22.645 -45.9634 0.573862 
-23.0494 -45.5702 0.298782 -23.3525 -45.8966 0.594951 -23.7361 -45.5885 0.344801 
-23.8633 -45.8812 0.683501 -24.2503 -45.4447 0.298659 -21.2646 -46.1755 0.43678 
-21.6092 -46.4192 0.612437 -22.1274 -46.3542 0.687346 -19.0967 -41.4747 -0.376328 
-18.7742 -41.7506 -0.238609 -19.5786 -41.346 -0.262166 -20.2228 -41.3435 -0.279817 
-20.8369 -41.4389 -0.235945 -21.2498 -41.6246 -0.368491 -23.2556 -41.4305 -0.443216 
-22.9378 -41.7408 -0.114743 -23.8487 -41.767 0.0790558 -23.6429 -41.4798 -0.164571 
-23.9947 -41.7731 -0.355513 -18.9196 -42.1746 0.0346939 -18.779 -42.3023 -0.380475 
-21.537 -41.9134 -0.287897 -21.8388 -42.2324 -0.340727 -22.9674 -42.2214 -0.31274 
-24.2247 -42.1365 -0.462396 -19.0883 -42.9218 0.0960938 -19.0036 -42.5447 -0.245728 
-19.1058 -42.9375 -0.286995 -22.1072 -42.5283 -0.260289 -22.3809 -42.9248 -0.236064 
-23.1502 -42.6572 -0.207893 -23.206 -42.9234 0.000480652 -23.4069 -42.8222 -0.372661 
-24.3983 -42.4489 -0.194572 -25.1873 -43.0175 -0.000709534 -24.8169 -42.6105 -0.204231 
-25.7701 -42.9597 -0.0971146 -25.4186 -42.5965 -0.30975 -26.3759 -42.9611 -0.0645676 
-26.1177 -42.5802 -0.352295 -26.952 -43.0153 -0.0899689 -26.7416 -42.6949 -0.340961 
[...]
CELL_DATA 35572
SCALARS scalars float
LOOKUP_TABLE default
1009 1009 1009 1009 1009 1009 1009 1009 1009 
1009 1009 1009 1009 1009 1009 1009 1009 1009 
1009 1009 1009 1009 1009 1009 1009 1009 1009 
1009 1009 1009 1009 1009 1009 1009 1009 1009 
1009 1009 1009 1009 1009 1009 1009 1009 1009 
1009 1009 1009 1009 1009 1009 1009 1009 1009 
1009 1009 1009 1009 1009 1009 1009 1009 1009 
1009 1009 1009 1009 1009 1009 1009 1009 1009 
1009 1009 1009 1009 1009 1009 1009 1009 1009 
1009 1009 1009 1009 1009 1009 1009 1009 1009 
1009 1009 1009 1009 1009 1009 1009 1009 1009 
1009 1009 1009 1009 1009 1009 1009 1009 1009 
1009 1009 1009 1009 1009 1009 1009 1009 1009 
1009 1009 1009 1009 1009 1009 1009 1009 1009 
1009 1009 1009 1009 1009 1009 1009 1009 1009 
1009 1009 1009 1009 1009 1009 1009 1009 1009 
1009 1009 1009 1009 1009 1009 1009 1009 1009 
1009 1009 1009 1009 1009 1009 1009 1009 1009 
1009 1009 1009 1009 1009 1009 1009 1009 1009 
1009 1009 1009 1009 1009 1009 1009 1009 1009 
1009 1009 1009 1009 1009 1009 1009 1009 1009 
1009 1009 1009 1009 1009 1009 1009 1009 1009 
1009 1009 1009 1009 1009 1009 1009 1009 1009 
1009 1009 1009 1009 1009 1009 1009 1009 1009 
1009 1009 1009 1009 1009 1009 1009 1009 1009 
1009 1009 1009 1009 1009 1009 1009 1009 1009 
1009 1009 1009 1009 1009 1009 1009 1009 1009 
1009 1009 1009 1009 1009 1009 1009 1009 1009 
1009 1009 1009 1009 1009 1009 1009 1009 1009 
1009 1009 1009 1009 1009 1009 1009 1009 1009 
1009 1009 1009 1009 1009 1009 1009 1009 1009 
1009 1009 1009 1009 1009 1009 1009 1009 1009 
1009 1009 1009 1009 1009 1009 1009 1009 1009 
1009 1009 1009 1009 1009 1009 1009 1009 1009 
1009 1009 1009 1009 1009 1009 1009 1009 1009 
1009 1009 1009 1009 1009 1009 1009 1009 1009 
1009 1009 1009 1009 1009 1009 1009 1009 1009 
1009 1009 1009 1009 1009 1009 1009 1009 1009 
1009 1009 1009 1009 1009 1009 1009 1009 1009 
1009 1009 1009 1009 1009 1009 1009 1009 1009 
1009 1009 1009 1009 1009 1009 1009 1009 1009 
1009 1009 1009 1009 1009 1009 1009 1009 1009 
1009 1009 1009 1009 1009 1009 1009 1009 1009 
1009 1009 1009 1009 1009 1009 1009 1009 1009 
1009 1009 1009 1009 1009 1009 1009 1009 1009 
1009 1009 1009 1009 1009 1009 1009 1009 1009 
1009 1009 1009 1009 1009 1009 1009 1009 1009 
1009 1009 1009 1009 1009 1009 1009 1009 1009 
1009 1009 1009 1009 1009 1009 1009 1009 1009 
1009 1009 1009 1009 1009 1009 1009 1009 1009 
1009 1009 1009 1009 1009 1009 1009 1009 1009 
1009 1009 1009 1009 1009 1009 1009 1009 1009 
1009 1009 1009 1009 1009 1009 1009 1009 1009 
1009 1009 1009 1009 1009 1009 1009 1009 1009 
1009 1009 1009 1009 1009 1009 1009 1009 1009 
1009 1009 1009 1009 1009 1009 1009 1009 1009 
1009 1009 1009 1009 1009 1009 1009 1009 1009 
1009 1009 1009 1009 1009 1009 1009 1009 1009 
1009 1009 1009 1009 1009 1009 1009 1009 1009 
1009 1009 1009 1009 1009 1009 1009 1009 1009 
1009 1009 1009 1009 1009 1009 1009 1009 1009 
1009 1009 1009 1009 1009 1009 1009 1009 1009 
1009 1009 1009 1009 1009 1009 1009 1009 1009 
1009 1009 1009 1009 1009 1009 1009 1009 1009 
1009 1009 1009 1009 1009 1009 1009 1009 1009 
1009 1009 1009 1009 1009 1009 1009 1009 1009 
1009 1009 1009 1009 1009 1009 1009 1009 1009 
1009 1009 1009 1009 1009 1009 1009 1009 1009 
1009 1009 1009 1009 1009 1009 1009 1009 1009 
1009 1009 1009 1009 1009 1009 1009 1009 1009 
1009 1009 1009 1009 1009 1009 1009 1009 1009 
1009 1009 1009 1009 1009 1009 1009 1009 1009 
1009 1009 1009 1009 1009 1009 1009 1009 1009 
1009 1009 1009 1009 1009 1009 1009 1009 1009 
1009 1009 1009 1009 1009 1009 1009 1009 1009 
1009 1009 1009 1009 1009 1009 1009 1009 1009 
1009 1009 1009 1009 1009 1009 1009 1009 1009 
1009 1009 1009 1009 1009 1009 1009 1009 1009 
1009 1009 1009 1009 1009 1009 1009 1009 1009 
1009 1009 1009 1009 1009 1009 1009 1009 1009 
1009 1009 1009 1009 1009 1009 1009 1009 1009 
1009 1009 1009 1009 1009 1009 1009 1009 1009 
1009 1009 1009 1009 1009 1009 1009 1009 1009 
1009 1009 1009 1009 1009 1009 1009 1009 1009 
1009 1009 1009 1009 1009 1009 1009 1009 1009 
1009 1009 1009 1009 1009 1009 1009 1009 1009 
1009 1009 1009 1009 1009 1009 1009 1009 1009 
1009 1009 1009 1009 1009 1009 1009 1009 1009 
1009 1009 1009 1009 1009 1009 1009 1009 1009 
1009 1009 1009 1009 1009 1009 1009 1009 1009 
1009 1009 1009 1009 1009 1009 1009 1009 1009 
1009 1009 1009 1009 1009 1009 1009 1009 1009 
1009 1009 1009 1009 1009 1009 1009 1009 1009 
1009 1009 1009 1009 1009 1009 1009 1009 1009 
1009 1009 1009 1009 1009 1009 1009 1009 1009 
1009 1009 1009 1009 1009 1009 1009 1009 1009 
1009 1009 1009 1009 1009 1009 1009 1009 1009 
1009 1009 1009 1009 1009 1009 1009 1009 1009 
1009 1009 1009 1009 1009 1009 1009 1009 1009 
1009 1009 1009 1009 1009 1009 1009 1009 1009 
1009 1009 1009 1009 1009 1009 1009 1009 1009 
1009 1009 1009 1009 1009 1009 1009 1009 1009 
1009 1009 1009 1009 1009 1009 1009 1009 1009 
1009 1009 1009 1009 1009 1009 1009 1009 1009 
1009 1009 1009 1009 1009 1009 1009 1009 1009 
1009 1009 1009 1009 1009 1009 1009 1009 1009 
1009 1009 1009 1009 1009 1009 1009 1009 1009 
1009 1009 1009 1009 1009 1009 1009 1009 1009 
1009 1009 1009 1009 1009 1009 1009 1009 1009 
1009 1009 1009 1009 1009 1009 1009 1009 1009 
1009 1009 1009 1009 1009 1009 1009 1009 1009 
1009 1009 1009 1009 1009 1009 1009 1009 1009 
1009 1009 1009 1009 1009 1009 1009 1009 1009 
1009 1009 1009 1009 1009 1009 1009 1009 1009 
1009 1009 1009 1009 1009 1009 1009 1009 1009 
1009 1009 1009 1009 1009 1009 1009 1009 1009 
1009 1009 1009 1009 1009 1009 1009 1009 1009 
1009 1009 1009 1009 1009 1009 1009 1009 1009 
1009 1009 1009 1009 1009 1009 1009 1009 1009 
1009 1009 1009 1009 1009 1009 1009 1009 1009 
1009 1009 1009 1009 1009 1009 1009 1009 1009 
1009 1009 1009 1009 1009 1009 1009 1009 1009 
1009 1009 1009 1009 1009 1009 1009 1009 1009 
1009 1009 1009 1009 1009 1009 1009 1009 1009 
1009 1009 1009 1009 1009 1009 1009 1009 1009 
1009 1009 1009 1009 1009 1009 1009 1009 1009 
1009 1009 1009 1009 1009 1009 1009 1009 1009 
1009 1009 1009 1009 1009 1009 1009 1009 1009 
1009 1009 1009 1009 1009 1009 1009 1009 1009 
1009 1009 1009 1009 1009 1009 1009 1009 1009 
1009 1009 1009 1009 1009 1009 1009 1009 1009 
1009 1009 1009 1009 1009 1009 1009 1009 1009 
1009 1009 1009 1009 1009 1009 1009 1009 1009 
1009 1009 1009 1009 1009 1009 1009 1009 1009 
1009 1009 1009 1009 1009 1009 1009 1009 1009 
1009 1009 1009 1009 1009 1009 1009 1009 1009 
1009 1009 1009 1009 1009 1009 1009 1009 1009 
1009 1009 1009 1009 1009 1009 1009 1009 1009 
1009 1009 1009 1009 1009 1009 1009 1009 1009 
1009 1009 1009 1009 1009 1009 1009 1009 1009 
1009 1009 1009 1009 1009 1009 1009 1009 1009 
1009 1009 1009 1009 1009 1009 1009 1009 1009 
1009 1009 1009 1009 1009 1009 1009 1009 1009 
1009 1009 1009 1009 1009 1009 1009 1009 1009 
1009 1009 1009 1009 1009 1009 1009 1009 1009 
1009 1009 1009 1009 1009 1009 1009 1009 1009 
1009 1009 1009 1009 1009 1009 1009 1009 1009 
1009 1009 1009 1009 1009 1009 1009 1009 1009 
1009 1009 1009 1009 1009 1009 1009 1009 1009 
1009 1009 1009 1009 1009 1009 1009 1009 1009 
1009 1009 1009 1009 1009 1009 1009 1009 1009 
1009 1009 1009 1009 1009 1009 1009 1009 1009 
1009 1009 1009 1009 1009 1009 1009 1009 1009 
1009 1009 1009 1009 1009 1009 1009 1009 1009 
1009 1009 1009 1009 1009 1009 1009 1009 1009 
1009 1009 1009 1009 1009 1009 1009 1009 1009 
1009 1009 1009 1009 1009 1009 1009 1009 1009 
1009 1009 1009 1009 1009 1009 1009 1009 1009 
1009 1009 1009 1009 1009 1009 1009 1009 1009 
1009 1009 1009 1009 1009 1009 1009 1009 1009 
1009 1009 1009 1009 1009 1009 1009 1009 1009 
1009 1009 1009 1009 1009 1009 1009 1009 1009 
1009 1009 1009 1009 1009 1009 1009 1009 1009 
1009 1009 1009 1009 1009 1009 1009 1009 1009 
1009 1009 1009 1009 1009 1009 1009 1009 1009 
1009 1009 1009 1009 1009 1009 1009 1009 1009 
1009 1009 1009 1009 1009 1009 1009 1009 1009 
1009 1009 1009 1009 1009 1009 1009 1009 1009 
1009 1009 1009 1009 1009 1009 1009 1009 1009 
1009 1009 1009 1009 1009 1009 1009 1009 1009 
1009 1009 1009 1009 1009 1009 1009 1009 1009 
1009 1009 1009 1009 1009 1009 1009 1009 1009 
1009 1009 1009 1009 1009 1009 1009 1009 1009 
1009 1009 1009 1009 1009 1009 1009 1009 1009 
1009 1009 1009 1009 1009 1009 1009 1009 1009 
1009 1009 1009 1009 1009 1009 1009 1009 1009 
1009 1009 1009 1009 1009 1009 1009 1009 1009 
1009 1009 1009 1009 1009 1009 1009 1009 1009 
1009 1009 1009 1009 1009 1009 1009 1009 1009 
1009 1009 1009 1009 1009 1009 1009 1009 1009 
1009 1009 1009 1009 1009 1009 1009 1009 1009 
1009 1009 1009 1009 1009 1009 1009 1009 1009 
1009 1009 1009 1009 1009 1009 1009 1009 1009 
1009 1009 1009 1009 1009 1009 1009 1009 1009 
1009 1009 1009 1009 1009 1009 1009 1009 1009 
1009 1009 1009 1009 1009 1009 1009 1009 1009 
1009 1009 1009 1009 1009 1009 1009 1009 1009 
1009 1009 1009 1009 1009 1009 1009 1009 1009 
1009 1009 1009 1009 1009 1009 1009 1009 1009 
1009 1009 1009 1009 1009 1009 1009 1009 1009 
1009 1009 1009 1009 1009 1009 1009 1009 1009 
1009 1009 1009 1009 1009 1009 1009 1009 1009 
1009 1009 1009 1009 1009 1009 1009 1009 1009 
1009 1009 1009 1009 1009 1009 1009 1009 1009 
1009 1009 1009 1009 1009 1009 1009 1009 1009 
1009 1009 1009 1009 1009 1009 1009 1009 1009 
1009 1009 1009 1009 1009 1009 1009 1009 1009 
1009 1009 1009 1009 1009 1009 1009 1009 1009 
1009 1009 1009 1009 1009 1009 1009 1009 1009 
1009 1009 1009 1009 1009 1009 1009 1009 1009 
1009 1009 1009 1009 1009 1009 1009 1009 1009 
1009 1009 1009 1009 1009 1009 1009 1009 1009 
1009 1009 1009 1009 1009 1009 1009 1009 1009 
1009 1009 1009 1009 1009 1009 1009 1009 1009 
1009 1009 1009 1009 1009 1009 1009 1009 1009 
1009 1009 1009 1009 1009 1009 1009 1009 1009 
1009 1009 1009 1009 1009 1009 1009 1009 1009 
1009 1009 1009 1009 1009 1009 1009 1009 1009 
1009 1009 1009 1009 1009 1009 1009 1009 1009 
1009 1009 1009 1009 1009 1009 1009 1009 1009 
1009 1009 1009 1009 1009 1009 1009 1009 1009 
1009 1009 1009 1009 1009 1009 1009 1009 1009 
1009 1009 1009 1009 1009 1009 1009 1009 1009 
1009 1009 1009 1009 1009 1009 1009 1009 1009 
1009 1009 1009 1009 1009 1009 1009 1009 1009 
1009 1009 1009 1009 1009 1009 1009 1009 1009 
1009 1009 1009 1009 1009 1009 1009 1009 1009 
1009 1009 1009 1009 1009 1009 1009 1009 1009 
1009 1009 1009 1009 1009 1009 1009 1009 1009 
1009 1009 1009 1009 1009 1009 1009 1009 1009 
1009 1009 1009 1009 1009 1009 1009 1009 1009 
1009 1009 1009 1009 1009 1009 1009 1009 1009 
1009 1009 1009 1009 1009 1009 1009 1009 1009 
1009 1009 1009 1009 1009 1009 1009 1009 1009 
1009 1009 1009 1009 1009 1009 1009 1009 1009 
1009 1009 1009 1009 1009 1009 1009 1009 1009 
1009 1009 1009 1009 1009 1009 1009 1009 1009 
1009 1009 1009 1009 1009 1009 1009 1009 1009 
1009 1009 1009 1009 1009 1009 1009 1009 1009 
1009 1009 1009 1009 1009 1009 1009 1009 1009 
1009 1009 1009 1009 1009 1009 1009 1009 1009 
1009 1009 1009 1009 1009 1009 1009 1009 1009 
1009 1009 1009 1009 1009 1009 1009 1009 1009 
1009 1009 1009 1009 1009 1009 1009 1009 1009 
1009 1009 1009 1009 1009 1009 1009 1009 1009 
1009 1009 1009 1009 1009 1009 1009 1009 1009 
1009 1009 1009 1009 1009 1009 1009 1009 1009 
1009 1009 1009 1009 1009 1009 1009 1009 1009 
1009 1009 1009 1009 1009 1009 1009 1009 1009 
1009 1009 1009 1009 1009 1009 1009 1009 1009 
1009 1009 1009 1009 1009 1009 1009 1009 1009 
1009 1009 1009 1009 1009 1009 1009 1009 1009 
1009 1009 1009 1009 1009 1009 1009 1009 1009 
1009 1009 1009 1009 1009 1009 1009 1009 1009 
1009 1009 1009 1009 1009 1009 1009 1009 1009 
1009 1009 1009 1009 1009 1009 1009 1009 1009 
1009 1009 1009 1009 1009 1009 1009 1009 1009 
1009 1009 1009 1009 1009 1009 1009 1009 1009 
1009 1009 1009 1009 1009 1009 1009 1009 1009 
1009 1009 1009 1009 1009 1009 1009 1009 1009 
1009 1009 1009 1009 1009 1009 1009 1009 1009 
1009 1009 1009 1009 1009 1009 1009 1009 1009 
1009 1009 1009 1009 1009 1009 1009 1009 1009 
1009 1009 1009 1009 1009 1009 1009 1009 1009 
1009 1009 1009 1009 1009 1009 1009 1009 1009 
1009 1009 1009 1009 1009 1009 1009 1009 1009 
1009 1009 1009 1009 1009 1009 1009 1009 1009 
1009 1009 1009 1009 1009 1009 1009 1009 1009 
1009 1009 1009 1009 1009 1009 1009 1009 1009 
1009 1009 1009 1009 1009 1009 1009 1009 1009 
1009 1009 1009 1009 1009 1009 1009 1009 1009 
1009 1009 1009 1009 1009 1009 1009 1009 1009 
1009 1009 1009 1009 1009 1009 1009 1009 1009 
1009 1009 1009 1009 1009 1009 1009 1009 1009 
1009 1009 1009 1009 1009 1009 1009 1009 1009 
1009 1009 1009 1009 1009 1009 1009 1009 1009 
1009 1009 1009 1009 1009 1009 1009 1009 1009 
1009 1009 1009 1009 1009 1009 1009 1009 1009 
1009 1009 1009 1009 1009 1009 1009 1009 1009 
1009 1009 1009 1009 1009 1009 1009 1009 1009 
1009 1009 1009 1009 1009 1009 1009 1009 1009 
1009 1009 1009 1009 1009 1009 1009 1009 1009 
1009 1009 1009 1009 1009 1009 1009 1009 1009 
1009 1009 1009 1009 1009 1009 1009 1009 1009 
1009 1009 1009 1009 1009 1009 1009 1009 1009 
1009 1009 1009 1009 1009 1009 1009 1009 1009 
1009 1009 1009 1009 1009 1009 1009 1009 1009 
1009 1009 1009 1009 1009 1009 1009 1009 1009 
1009 1009 1009 1009 1009 1009 1009 1009 1009 
1009 1009 1009 1009 1009 1009 1009 1009 1009 
1009 1009 1009 1009 1009 1009 1009 1009 1009 
1009 1009 1009 1009 1009 1009 1009 1009 1009 
1009 1009 1009 1009 1009 1009 1009 1009 1009 
1009 1009 1009 1009 1009 1009 1009 1009 1009 
1009 1009 1009 1009 1009 1009 1009 1009 1009 
1009 1009 1009 1009 1009 1009 1009 1009 1009 
1009 1009 1009 1009 1009 1009 1009 1009 1009 
1009 1009 1009 1009 1009 1009 1009 1009 1009 
1009 1009 1009 1009 1009 1009 1009 1009 1009 
1009 1009 1009 1009 1009 1009 1009 1009 1009 
1009 1009 1009 1009 1009 1009 1009 1009 1009 
1009 1009 1009 1009 1009 1009 1009 1009 1009 
1009 1009 1009 1009 1009 1009 1009 1009 1009 
1009 1009 1009 1009 1009 1009 1009 1009 1009 
1009 1009 1009 1009 1009 1009 1009 1009 1009 
1009 1009 1009 1009 1009 1009 1009 1009 1009 
1009 1009 1009 1009 1009 1009 1009 1009 1009 
1009 1009 1009 1009 1009 1009 1009 1009 1009 
1009 1009 1009 1009 1009 1009 1009 1009 1009 
1009 1009 1009 1009 1009 1009 1009 1009 1009 
1009 1009 1009 1009 1009 1009 1009 1009 1009 
1009 1009 1009 1009 1009 1009 1009 1009 1009 
1009 1009 1009 1009 1009 1009 1009 1009 1009 
1009 1009 1009 1009 1009 1009 1009 1009 1009 
1009 1009 1009 1009 1009 1009 1009 1009 1009 
1009 1009 1009 1009 1009 1009 1009 1009 1009 
1009 1009 1009 1009 1009 1009 1009 1009 1009 
1009 1009 1009 1009 1009 1009 1009 1009 1009 
1009 1009 1009 1009 1009 1009 1009 1009 1009 
1009 1009 1009 1009 1009 1009 1009 1009 1009 
1009 1009 1009 1009 1009 1009 1009 1009 1009 
1009 1009 1009 1009 1009 1009 1009 1009 1009 
1009 1009 1009 1009 1009 1009 1009 1009 1009 
1009 1009 1009 1009 1009 1009 1009 1009 1009 
1009 1009 1009 1009 1009 1009 1009 1009 1009 
1009 1009 1009 1009 1009 1009 1009 1009 1009 
1009 1009 1009 1009 1009 1009 1009 1009 1009 
1009 1009 1009 1009 1009 1009 1009 1009 1009 
1009 1009 1009 1009 1009 1009 1009 1009 1009 
1009 1009 1009 1009 1009 1009 1009 1009 1009 
1009 1009 1009 1009 1009 1009 1009 1009 1009 
1009 1009 1009 1009 1009 1009 1009 1009 1009 
1009 1009 1009 1009 1009 1009 1009 1009 1009 
1009 1009 1009 1009 1009 1009 1009 1009 1009 
1009 1009 1009 1009 1009 1009 1009 1009 1009 
1009 1009 1009 1009 1009 1009 1009 1009 1009 
1009 1009 1009 1009 1009 1009 1009 1009 1009 
1009 1009 1009 1009 1009 1009 1009 1009 1009 
1009 1009 1009 1009 1009 1009 1009 1009 1009 
1009 1009 1009 1009 1009 1009 1009 1009 1009 
1009 1009 1009 1009 1009 1009 1009 1009 1009 
1009 1009 1009 1009 1009 1009 1009 1009 1009 
1009 1009 1009 1009 1009 1009 1009 1009 1009 
1009 1009 1009 1009 1009 1009 1009 1009 1009 
1009 1009 1009 1009 1009 1009 1009 1009 1009 
1009 1009 1009 1009 1009 1009 1009 1009 1009 
1009 1009 1009 1009 1009 1009 1009 1009 1009 
1009 1009 1009 1009 1009 1009 1009 1009 1009 
1009 1009 1009 1009 1009 1009 1009 1009 1009 
1009 1009 1009 1009 1009 1009 1009 1009 1009 
1009 1009 1009 1009 1009 1009 1009 1009 1009 
1009 1009 1009 1009 1009 1009 1009 1009 1009 
1009 1009 1009 1009 1009 1009 1009 1009 1009 
1009 1009 1009 1009 1009 1009 1009 1009 1009 
1009 1009 1009 1009 1009 1009 1009 1009 1009 
1009 1009 1009 1009 1009 1009 1009 1009 1009 
1009 1009 1009 1009 1009 1009 1009 1009 1009 
1009 1009 1009 1009 1009 1009 1009 1009 1009 
1009 1009 1009 1009 1009 1009 1009 1009 1009 
1009 1009 1009 1009 1009 1009 1009 1009 1009 
1009 1009 1009 1009 1009 1009 1009 1009 1009 
1009 1009 1009 1009 1009 1009 1009 1009 1009 
1009 1009 1009 1009 1009 1009 1009 1009 1009 
1009 1009 1009 1009 1009 1009 1009 1009 1009 
1009 1009 1009 1009 1009 1009 1009 1009 1009 
1009 1009 1009 1009 1009 1009 1009 1009 1009 
1009 1009 1009 1009 1009 1009 1009 1009 1009 
1009 1009 1009 1009 1009 1009 1009 1009 1009 
1009 1009 1009 1009 1009 1009 1009 1009 1009 
1009 1009 1009 1009 1009 1009 1009 1009 1009 
1009 1009 1009 1009 1009 1009 1009 1009 1009 
1009 1009 1009 1009 1009 1009 1009 1009 1009 
1009 1009 1009 1009 1009 1009 1009 1009 1009 
1009 1009 1009 1009 1009 1009 1009 1009 1009 
1009 1009 1009 1009 1009 1009 1009 1009 1009 
1009 1009 1009 1009 1009 1009 1009 1009 1009 
1009 1009 1009 1009 1009 1009 1009 1009 1009 
1009 1009 1009 1009 1009 1009 1009 1009 1009 
1009 1009 1009 1009 1009 1009 1009 1009 1009 
1009 1009 1009 1009 1009 1009 1009 1009 1009 
1009 1009 1009 1009 1009 1009 1009 1009 1009 
1009 1009 1009 1009 1009 1009 1009 1009 1009 
1009 1009 1009 1009 1009 1009 1009 1009 1009 
1009 1009 1009 1009 1009 1009 1009 1009 1009 
1009 1009 1009 1009 1009 1009 1009 1009 1009 
1009 1009 1009 1009 1009 1009 1009 1009 1009 
1009 1009 1009 1009 1009 1009 1009 1009 1009 
1009 1009 1009 1009 1009 1009 1009 1009 1009 
1009 1009 1009 1009 1009 1009 1009 1009 1009 
1009 1009 1009 1009 1009 1009 1009 1009 1009 
1009 1009 1009 1009 1009 1009 1009 1009 1009 
1009 1009 1009 1009 1009 1009 1009 1009 1009 
1009 1009 1009 1009 1009 1009 1009 1009 1009 
1009 1009 1009 1009 1009 1009 1009 1009 1009 
1009 1009 1009 1009 1009 1009 1009 1009 1009 
1009 1009 1009 1009 1009 1009 1009 1009 1009 
1009 1009 1009 1009 1009 1009 1009 1009 1009 
1009 1009 1009 1009 1009 1009 1009 1009 1009 
1009 1009 1009 1009 1009 1009 1009 1009 1009 
1009 1009 1009 1009 1009 1009 1009 1009 1009 
1009 1009 1009 1009 1009 1009 1009 1009 1009 
1009 1009 1009 1009 1009 1009 1009 1009 1009 
1009 1009 1009 1009 1009 1009 1009 1009 1009 
1009 1009 1009 1009 1009 1009 1009 1009 1009 
1009 1009 1009 1009 1009 1009 1009 1009 1009 
1009 1009 1009 1009 1009 1009 1009 1009 1009 
1009 1009 1009 1009 1009 1009 1009 1009 1009 
1009 1009 1009 1009 1009 1009 1009 1009 1009 
1009 1009 1009 1009 1009 1009 1009 1009 1009 
1009 1009 1009 1009 1009 1009 1009 1009 1009 
1009 1009 1009 1009 1009 1009 1009 1009 1009 
1009 1009 1009 1009 1009 1009 1009 1009 1009 
1009 1009 1009 1009 1009 1009 1009 1009 1009 
1009 1009 1009 1009 1009 1009 1009 1009 1009 
1009 1009 1009 1009 1009 1009 1009 1009 1009 
1009 1009 1009 1009 1009 1009 1009 1009 1009 
1009 1009 1009 1009 1009 1009 1009 1009 1009 
1009 1009 1009 1009 1009 1009 1009 1009 1009 
1009 1009 1009 1009 1009 1009 1009 1009 1009 
1009 1009 1009 1009 1009 1009 1009 1009 1009 
1009 1009 1009 1009 1009 1009 1009 1009 1009 
1009 1009 1009 1009 1009 1009 1009 1009 1009 
1009 1009 1009 1009 1009 1009 1009 1009 1009 
1009 1009 1009 1009 1009 1009 1009 1009 1009 
1009 1009 1009 1009 1009 1009 1009 1009 1009 
1009 1009 1009 1009 1009 1009 1009 1009 1009 
1009 1009 1009 1009 1009 1009 1009 1009 1009 
1009 1009 1009 1009 1009 1009 1009 1009 1009 
1009 1009 1009 1009 1009 1009 1009 1009 1009 
1009 1009 1009 1009 1009 1009 1009 1009 1009 
1009 1009 1009 1009 1009 1009 1009 1009 1009 
1009 1009 1009 1009 1009 1009 1009 1009 1009 
1009 1009 1009 1009 1009 1009 1009 1009 1009 
1009 1009 1009 1009 1009 1009 1009 1009 1009 
1009 1009 1009 1009 1009 1009 1009 1009 1009 
1009 1009 1009 1009 1009 1009 1009 1009 1009 
1009 1009 1009 1009 1009 1009 1009 1009 1009 
1009 1009 1009 1009 1009 1009 1009 1009 1009 
1009 1009 1009 1009 1009 1009 1009 1009 1009 
1009 1009 1009 1009 1009 1009 1009 1009 1009 
1009 1009 1009 1009 1009 1009 1009 1009 1009 
1009 1009 1009 1009 1009 1009 1009 1009 1009 
1009 1009 1009 1009 1009 1009 1009 1009 1009 