# vtk DataFile Version 4.2
vtk output
ASCII
DATASET POLYDATA
POINTS 3578 float
37.843 -15.9933 -11.4998 37.9619 -15.699 -11.8676 38.1396 -15.9862 -11.6443 
37.6445 -15.7908 -11.7416 37.9234 -16.4668 -11.3992 38.2209 -16.4709 -11.7022 
37.4901 -16.0984 -11.5932 37.5024 -16.5165 -11.4555 37.1898 -16.4371 -11.686 
38.019 -16.992 -11.4248 38.3032 -17.2039 -11.8021 37.6112 -17.1503 -11.4282 
37.0906 -17.0685 -11.7752 37.9761 -17.5451 -11.4928 38.1719 -17.7463 -11.784 
37.6595 -17.6758 -11.5862 37.3583 -17.5137 -11.7272 37.844 -17.9085 -11.8066 
38.0464 -15.6251 -12.4693 38.2948 -15.9884 -12.1394 37.1842 -15.9639 -11.9128 
37.5307 -15.6182 -12.1588 36.6102 -15.9697 -12.0433 36.9678 -15.5601 -12.3598 
36.0687 -16.0314 -12.0786 36.3806 -15.5972 -12.2814 35.9364 -15.765 -12.2848 
40.2519 -16.5395 -12.072 40.3686 -16.1788 -12.3785 40.5975 -16.4454 -12.4086 
39.7051 -16.6757 -12.0523 39.8639 -16.3342 -12.3274 39.4357 -16.4777 -12.3659 
38.43 -16.6053 -12.1106 36.7687 -16.5631 -11.8837 36.267 -16.4117 -11.9602 
35.6757 -16.1436 -12.2177 35.7795 -16.5784 -12.1015 35.3383 -16.5462 -12.4295 
40.3732 -16.8066 -12.2133 40.1253 -17.2336 -12.4272 39.9523 -16.9679 -12.0361 
39.2259 -16.7176 -12.2265 39.2705 -17.0438 -12.0796 38.6677 -17.0834 -12.1015 
38.7915 -16.7437 -12.2796 36.7151 -17.0631 -11.966 36.2852 -16.9714 -12.0563 
35.8331 -17.037 -12.2181 35.5315 -16.8898 -12.3485 39.6446 -17.404 -12.2359 
39.0368 -17.4325 -12.2602 38.4337 -17.4744 -12.3631 38.2494 -17.6455 -12.1109 
37.4836 -17.8213 -11.9005 37.1285 -17.6494 -12.1137 36.6285 -17.4328 -12.3064 
36.0509 -17.3085 -12.4352 37.9255 -17.9242 -12.2241 37.3688 -17.9573 -12.3475 
34.3086 -18.4173 -12.0223 34.447 -18.0806 -12.4438 34.7857 -18.386 -12.1702 
33.688 -18.2818 -12.0034 33.794 -18.0557 -12.3113 33.2001 -18.3197 -12.0436 
33.295 -18.0719 -12.2252 32.6106 -18.2916 -12.0816 32.7823 -17.9809 -12.3278 
32.0134 -18.3064 -12.0694 32.158 -17.9863 -12.2155 31.5443 -18.3715 -12.1137 
31.4637 -18.0034 -12.3325 31.1441 -18.2843 -12.3059 34.8799 -18.7482 -12.0879 
35.0538 -18.595 -12.2204 35.2784 -18.8417 -12.3688 34.5078 -18.8997 -12.0226 
33.8169 -18.7589 -12.0509 33.0784 -18.6384 -12.3179 33.4431 -19.0079 -12.4336 
32.4295 -18.5073 -12.3198 31.8511 -18.5182 -12.3208 31.2755 -18.4955 -12.3916 
34.9957 -19.1025 -12.3257 34.3509 -19.2301 -12.3136 33.7892 -19.2201 -12.3464 
36.604 -15.2696 -12.6262 36.8078 -15.0895 -13.0861 37.0571 -15.3064 -12.7801 
36.0126 -15.3557 -12.5566 36.1841 -15.054 -12.9623 35.4105 -15.3652 -12.636 
35.6008 -15.0458 -12.9562 34.8667 -15.4411 -12.6874 35.0465 -15.0866 -12.9593 
34.6372 -15.2328 -12.9622 40.3499 -15.9037 -12.6793 40.4126 -15.7233 -13.0386 
40.648 -16.0277 -12.7145 40.0702 -15.823 -12.9673 38.5563 -15.9532 -12.6251 
38.5131 -15.7134 -12.9884 38.8606 -16.0073 -12.93 38.1187 -15.4874 -13.0284 
37.5242 -15.4458 -12.7309 35.5122 -15.8985 -12.4394 34.9896 -15.9009 -12.547 
34.4616 -15.5483 -12.8185 34.4846 -15.9485 -12.6658 34.1645 -15.8678 -12.8898 
40.6891 -16.4127 -12.9967 39.8634 -16.0753 -12.7996 38.9684 -16.3829 -12.5788 
39.3062 -16.2009 -12.8591 38.5802 -16.3306 -12.4384 35.0326 -16.3678 -12.5564 
34.5768 -16.439 -12.6761 34.1322 -16.3465 -12.8568 40.3977 -16.8204 -12.7813 
40.0948 -17.1381 -12.9042 35.6589 -17.1691 -12.5035 35.3157 -17.0237 -12.7094 
34.8223 -16.8378 -12.9008 34.243 -16.743 -13.0287 39.8502 -17.6627 -12.5479 
39.9739 -17.5386 -12.8167 39.3881 -17.7597 -12.5494 38.7902 -17.725 -12.6331 
38.3219 -17.6568 -12.8113 38.0623 -17.5996 -12.8159 37.9903 -17.7215 -12.5869 
37.823 -17.7681 -12.9996 36.8764 -17.793 -12.5326 36.5231 -17.7109 -12.7913 
36.1124 -17.53 -12.9216 35.5575 -17.3233 -12.9497 32.4064 -17.6696 -12.5897 
32.5259 -17.4797 -13.0922 32.8117 -17.713 -12.812 31.8338 -17.6708 -12.5372 
31.9986 -17.4214 -12.9661 31.4367 -17.6726 -12.6209 31.4275 -17.467 -12.9635 
31.0658 -17.6686 -12.8634 39.6497 -17.8839 -12.8938 39.0733 -17.9733 -12.9816 
38.454 -17.8912 -13.0609 37.4648 -17.9593 -12.945 36.7462 -17.9325 -12.9738 
35.0882 -18.3888 -12.4663 34.8153 -18.1059 -12.9168 35.2952 -18.3724 -12.7955 
34.3022 -17.9618 -12.9714 33.8068 -17.9542 -12.8685 33.2114 -17.9021 -12.7734 
30.7419 -18.3193 -12.5728 30.8356 -17.9973 -12.668 30.3205 -18.3385 -12.7597 
30.2186 -17.9832 -12.9762 29.9293 -18.2387 -12.9579 35.5509 -18.7291 -12.6852 
35.5469 -18.6301 -13.09 35.776 -18.9458 -13.0244 33.194 -18.8741 -12.6033 
32.9368 -18.824 -12.786 32.5522 -18.7002 -12.7975 31.9707 -18.6345 -12.9234 
31.4046 -18.578 -12.8896 30.725 -18.5218 -12.877 30.1443 -18.445 -12.9622 
29.6361 -18.7249 -12.8358 29.6914 -18.8595 -13.0326 29.6216 -18.8749 -12.7897 
29.47 -18.8016 -12.8674 35.5089 -19.0881 -12.7456 34.9948 -19.3246 -12.7853 
34.443 -19.4908 -12.6655 34.7049 -19.5199 -12.8884 33.9673 -19.5232 -12.606 
33.4996 -19.3999 -12.7175 33.1347 -19.1097 -12.8456 29.4346 -19.0277 -13.0086 
34.3678 -19.7711 -12.9881 33.7188 -19.7379 -12.9145 37.8053 -15.2706 -13.211 
37.9201 -15.1134 -13.6877 38.222 -15.3301 -13.4486 37.3456 -15.2308 -13.0656 
37.3166 -15.0643 -13.4997 36.6892 -14.9985 -13.5888 36.2881 -14.9832 -13.4079 
35.7483 -14.9088 -13.5037 35.1461 -14.8987 -13.3982 34.168 -15.391 -13.1372 
34.5548 -14.9727 -13.3791 33.6694 -15.3202 -13.2975 33.9259 -14.9748 -13.4846 
33.3086 -15.4579 -13.3656 33.3801 -15.0113 -13.4948 33.0177 -15.1829 -13.537 
40.3835 -15.6351 -13.6223 40.6914 -15.9574 -13.2937 39.706 -15.9267 -13.2416 
39.8784 -15.6831 -13.4665 39.4284 -15.8678 -13.6085 38.6272 -15.5948 -13.5972 
38.9282 -15.9134 -13.3261 33.7587 -15.9352 -13.1703 33.3487 -15.8837 -13.4369 
33.0486 -15.561 -13.5339 40.6827 -16.4244 -13.6592 39.3458 -16.0407 -13.3499 
33.8733 -16.5445 -13.1601 33.5145 -16.3542 -13.46 40.4548 -16.7147 -13.3954 
39.9177 -16.8122 -13.5148 39.7402 -17.2086 -13.1617 39.2463 -16.9217 -13.5247 
39.3479 -17.2793 -13.3189 38.9243 -17.0651 -13.5408 35.0717 -17.1621 -13.119 
34.716 -17.1046 -13.3847 34.2897 -16.9583 -13.5196 33.753 -16.7576 -13.5549 
39.6727 -17.6516 -13.1491 39.4295 -17.6869 -13.5327 39.1015 -17.3769 -13.6607 
38.052 -17.7455 -13.068 36.2801 -17.7596 -13.142 35.9912 -17.6712 -13.4448 
35.5822 -17.4792 -13.5714 34.9596 -17.3069 -13.5652 32.4587 -17.4907 -13.6309 
32.8712 -17.681 -13.2966 31.9994 -17.3485 -13.5207 31.386 -17.3347 -13.5063 
30.5466 -17.6598 -13.1343 30.7778 -17.4193 -13.4662 30.1983 -17.6589 -13.2655 
30.2776 -17.4968 -13.4982 29.9305 -17.7008 -13.5964 39.2658 -17.9799 -13.4465 
38.585 -18.0362 -13.5 37.9367 -17.9332 -13.3408 37.399 -17.9111 -13.6646 
36.7666 -18.0032 -13.5197 36.2539 -17.8929 -13.548 35.1208 -18.3157 -13.103 
34.7998 -18.2223 -13.398 34.3872 -18.049 -13.5382 33.8084 -17.975 -13.4702 
33.1782 -17.9105 -13.5121 29.5863 -18.4834 -13.1273 29.5651 -17.9975 -13.4441 
28.8293 -18.447 -13.2698 28.993 -18.0795 -13.5603 28.5905 -18.2055 -13.5613 
35.5178 -18.7091 -13.6727 35.8172 -19.0174 -13.518 35.098 -18.4671 -13.505 
32.6036 -19.1003 -13.0978 32.0609 -18.9365 -13.2126 31.6714 -18.849 -13.4287 
31.3564 -18.6867 -13.4505 30.8064 -18.6506 -13.4418 30.2308 -18.6184 -13.3392 
29.8548 -18.886 -13.4611 29.0071 -18.9058 -13.0985 28.4196 -18.5209 -13.4074 
28.4321 -18.9295 -13.2655 28.1573 -18.7584 -13.6122 35.5699 -19.2469 -13.2663 
35.0284 -19.5177 -13.1898 35.3606 -19.4972 -13.4906 33.1753 -19.6021 -13.0863 
32.6631 -19.6568 -13.2847 32.1541 -19.4011 -13.3433 31.6982 -19.2604 -13.5051 
29.5023 -19.1963 -13.4112 29.0002 -19.2968 -13.333 28.662 -19.5248 -13.4886 
28.509 -19.3514 -13.3196 28.1454 -19.3877 -13.6039 34.923 -19.8791 -13.6093 
34.4566 -20.1076 -13.2787 34.5976 -20.1527 -13.4682 33.848 -20.0818 -13.1909 
33.2164 -20.0766 -13.3149 32.9112 -20.044 -13.4477 32.5831 -19.8174 -13.591 
31.9891 -19.705 -13.6027 28.4468 -19.7328 -13.6553 34.2837 -20.2659 -13.4119 
33.8011 -20.2889 -13.484 33.3231 -20.2523 -13.533 28.3512 -20.6802 -13.3799 
28.4097 -20.4282 -13.5591 28.5174 -20.7573 -13.6742 28.2108 -20.6258 -13.6303 
28.3158 -20.9509 -13.5315 35.5914 -21.8902 -13.3773 35.4853 -21.7419 -13.5712 
35.841 -21.7633 -13.5441 35.3487 -21.8759 -13.5333 29.605 -21.8847 -13.4014 
29.5623 -21.7726 -13.677 29.7553 -22.0529 -13.6092 29.3581 -21.8332 -13.5498 
27.7631 -21.981 -13.3517 27.7792 -21.8074 -13.452 27.8791 -22.0308 -13.5023 
27.6704 -21.8892 -13.4532 35.6968 -22.0458 -13.5601 34.8406 -22.245 -13.6084 
35.1465 -22.416 -13.4908 34.9739 -22.4936 -13.387 34.7483 -22.4665 -13.5456 
29.5131 -22.0389 -13.4781 28.9813 -22.3531 -13.454 29.1456 -22.427 -13.5014 
29.0055 -22.5092 -13.4114 28.8513 -22.4367 -13.5132 27.806 -22.3091 -13.3602 
27.9513 -22.4873 -13.574 27.5369 -22.2466 -13.5291 35.0782 -22.6675 -13.5809 
34.2855 -22.8432 -13.6 34.6099 -23.0537 -13.5661 34.3958 -23.0815 -13.4012 
34.1328 -23.1689 -13.6038 29.075 -22.6623 -13.6057 27.6471 -22.6399 -13.5059 
34.4738 -23.2543 -13.574 29.0114 -23.768 -13.3739 29.078 -23.5123 -13.5181 
29.1735 -23.714 -13.6457 28.8386 -23.667 -13.4785 28.8627 -23.9075 -13.6013 
33.6546 -14.207 -13.8888 33.8336 -13.8827 -14.2797 34.1441 -14.172 -14.0432 
32.996 -14.1463 -13.8488 33.2017 -13.8443 -14.1598 32.4532 -14.2173 -13.8891 
32.64 -13.8762 -14.1525 32.2386 -14.0203 -14.1625 35.3635 -14.7035 -13.8312 
35.6945 -14.5295 -14.2601 35.7964 -14.7462 -13.9986 34.8239 -14.6795 -13.7858 
35.1558 -14.3982 -14.1932 34.2204 -14.5745 -13.7862 34.5801 -14.3367 -14.0796 
33.6758 -14.6612 -13.6876 33.1301 -14.6877 -13.691 32.5658 -14.6812 -13.7618 
32.0605 -14.3222 -14.0289 32.0612 -14.7088 -13.8917 31.7511 -14.624 -14.1074 
37.926 -15.0727 -14.2575 38.3196 -15.287 -13.9387 37.4163 -14.9908 -14.1091 
36.8834 -14.9851 -14.0038 36.2863 -14.8983 -14.0542 32.7343 -15.3302 -13.7023 
32.1741 -15.3346 -13.8798 31.6989 -15.1073 -14.075 40.3746 -15.6199 -14.2508 
40.6875 -15.9623 -13.9391 39.8376 -15.5526 -14.0831 39.0838 -15.8601 -13.6836 
39.1626 -15.6533 -14.0294 38.6087 -15.4902 -14.1899 33.0744 -15.9714 -13.6547 
32.655 -15.9789 -13.8871 32.219 -15.8376 -14.0417 31.8587 -15.5702 -14.099 
40.6774 -16.4325 -14.3048 39.6974 -16.5215 -13.9384 40.0015 -16.5697 -14.0555 
[...]
CELL_DATA 7196
SCALARS scalars float
LOOKUP_TABLE default
2001 2001 2001 2001 2001 2001 2001 2001 2001 
2001 2001 2001 2001 2001 2001 2001 2001 2001 
2001 2001 2001 2001 2001 2001 2001 2001 2001 
2001 2001 2001 2001 2001 2001 2001 2001 2001 
2001 2001 2001 2001 2001 2001 2001 2001 2001 
2001 2001 2001 2001 2001 2001 2001 2001 2001 
2001 2001 2001 2001 2001 2001 2001 2001 2001 
2001 2001 2001 2001 2001 2001 2001 2001 2001 
2001 2001 2001 2001 2001 2001 2001 2001 2001 
2001 2001 2001 2001 2001 2001 2001 2001 2001 
2001 2001 2001 2001 2001 2001 2001 2001 2001 
2001 2001 2001 2001 2001 2001 2001 2001 2001 
2001 2001 2001 2001 2001 2001 2001 2001 2001 
2001 2001 2001 2001 2001 2001 2001 2001 2001 
2001 2001 2001 2001 2001 2001 2001 2001 2001 
2001 2001 2001 2001 2001 2001 2001 2001 2001 
2001 2001 2001 2001 2001 2001 2001 2001 2001 
2001 2001 2001 2001 2001 2001 2001 2001 2001 
2001 2001 2001 2001 2001 2001 2001 2001 2001 
2001 2001 2001 2001 2001 2001 2001 2001 2001 
2001 2001 2001 2001 2001 2001 2001 2001 2001 
2001 2001 2001 2001 2001 2001 2001 2001 2001 
2001 2001 2001 2001 2001 2001 2001 2001 2001 
2001 2001 2001 2001 2001 2001 2001 2001 2001 
2001 2001 2001 2001 2001 2001 2001 2001 2001 
2001 2001 2001 2001 2001 2001 2001 2001 2001 
2001 2001 2001 2001 2001 2001 2001 2001 2001 
2001 2001 2001 2001 2001 2001 2001 2001 2001 
2001 2001 2001 2001 2001 2001 2001 2001 2001 
2001 2001 2001 2001 2001 2001 2001 2001 2001 
2001 2001 2001 2001 2001 2001 2001 2001 2001 
2001 2001 2001 2001 2001 2001 2001 2001 2001 
2001 2001 2001 2001 2001 2001 2001 2001 2001 
2001 2001 2001 2001 2001 2001 2001 2001 2001 
2001 2001 2001 2001 2001 2001 2001 2001 2001 
2001 2001 2001 2001 2001 2001 2001 2001 2001 
2001 2001 2001 2001 2001 2001 2001 2001 2001 
2001 2001 2001 2001 2001 2001 2001 2001 2001 
2001 2001 2001 2001 2001 2001 2001 2001 2001 
2001 2001 2001 2001 2001 2001 2001 2001 2001 
2001 2001 2001 2001 2001 2001 2001 2001 2001 
2001 2001 2001 2001 2001 2001 2001 2001 2001 
2001 2001 2001 2001 2001 2001 2001 2001 2001 
2001 2001 2001 2001 2001 2001 2001 2001 2001 
2001 2001 2001 2001 2001 2001 2001 2001 2001 
2001 2001 2001 2001 2001 2001 2001 2001 2001 
2001 2001 2001 2001 2001 2001 2001 2001 2001 
2001 2001 2001 2001 2001 2001 2001 2001 2001 
2001 2001 2001 2001 2001 2001 2001 2001 2001 
2001 2001 2001 2001 2001 2001 2001 2001 2001 
2001 2001 2001 2001 2001 2001 2001 2001 2001 
2001 2001 2001 2001 2001 2001 2001 2001 2001 
2001 2001 2001 2001 2001 2001 2001 2001 2001 
2001 2001 2001 2001 2001 2001 2001 2001 2001 
2001 2001 2001 2001 2001 2001 2001 2001 2001 
2001 2001 2001 2001 2001 2001 2001 2001 2001 
2001 2001 2001 2001 2001 2001 2001 2001 2001 
2001 2001 2001 2001 2001 2001 2001 2001 2001 
2001 2001 2001 2001 2001 2001 2001 2001 2001 
2001 2001 2001 2001 2001 2001 2001 2001 2001 
2001 2001 2001 2001 2001 2001 2001 2001 2001 
2001 2001 2001 2001 2001 2001 2001 2001 2001 
2001 2001 2001 2001 2001 2001 2001 2001 2001 
2001 2001 2001 2001 2001 2001 2001 2001 2001 
2001 2001 2001 2001 2001 2001 2001 2001 2001 
2001 2001 2001 2001 2001 2001 2001 2001 2001 
2001 2001 2001 2001 2001 2001 2001 2001 2001 
2001 2001 2001 2001 2001 2001 2001 2001 2001 
2001 2001 2001 2001 2001 2001 2001 2001 2001 
2001 2001 2001 2001 2001 2001 2001 2001 2001 
2001 2001 2001 2001 2001 2001 2001 2001 2001 
2001 2001 2001 2001 2001 2001 2001 2001 2001 
2001 2001 2001 2001 2001 2001 2001 2001 2001 
2001 2001 2001 2001 2001 2001 2001 2001 2001 
2001 2001 2001 2001 2001 2001 2001 2001 2001 
2001 2001 2001 2001 2001 2001 2001 2001 2001 
2001 2001 2001 2001 2001 2001 2001 2001 2001 
2001 2001 2001 2001 2001 2001 2001 2001 2001 
2001 2001 2001 2001 2001 2001 2001 2001 2001 
2001 2001 2001 2001 2001 2001 2001 2001 2001 
2001 2001 2001 2001 2001 2001 2001 2001 2001 
2001 2001 2001 2001 2001 2001 2001 2001 2001 
2001 2001 2001 2001 2001 2001 2001 2001 2001 
2001 2001 2001 2001 2001 2001 2001 2001 2001 
2001 2001 2001 2001 2001 2001 2001 2001 2001 
2001 2001 2001 2001 2001 2001 2001 2001 2001 
2001 2001 2001 2001 2001 2001 2001 2001 2001 
2001 2001 2001 2001 2001 2001 2001 2001 2001 
2001 2001 2001 2001 2001 2001 2001 2001 2001 
2001 2001 2001 2001 2001 2001 2001 2001 2001 
2001 2001 2001 2001 2001 2001 2001 2001 2001 
2001 2001 2001 2001 2001 2001 2001 2001 2001 
2001 2001 2001 2001 2001 2001 2001 2001 2001 
2001 2001 2001 2001 2001 2001 2001 2001 2001 
2001 2001 2001 2001 2001 2001 2001 2001 2001 
2001 2001 2001 2001 2001 2001 2001 2001 2001 
2001 2001 2001 2001 2001 2001 2001 2001 2001 
2001 2001 2001 2001 2001 2001 2001 2001 2001 
2001 2001 2001 2001 2001 2001 2001 2001 2001 
2001 2001 2001 2001 2001 2001 2001 2001 2001 
2001 2001 2001 2001 2001 2001 2001 2001 2001 
2001 2001 2001 2001 2001 2001 2001 2001 2001 
2001 2001 2001 2001 2001 2001 2001 2001 2001 
2001 2001 2001 2001 2001 2001 2001 2001 2001 
2001 2001 2001 2001 2001 2001 2001 2001 2001 
2001 2001 2001 2001 2001 2001 2001 2001 2001 
2001 2001 2001 2001 2001 2001 2001 2001 2001 
2001 2001 2001 2001 2001 2001 2001 2001 2001 
2001 2001 2001 2001 2001 2001 2001 2001 2001 
2001 2001 2001 2001 2001 2001 2001 2001 2001 
2001 2001 2001 2001 2001 2001 2001 2001 2001 
2001 2001 2001 2001 2001 2001 2001 2001 2001 
2001 2001 2001 2001 2001 2001 2001 2001 2001 
2001 2001 2001 2001 2001 2001 2001 2001 2001 
2001 2001 2001 2001 2001 2001 2001 2001 2001 
2001 2001 2001 2001 2001 2001 2001 2001 2001 
2001 2001 2001 2001 2001 2001 2001 2001 2001 
2001 2001 2001 2001 2001 2001 2001 2001 2001 
2001 2001 2001 2001 2001 2001 2001 2001 2001 
2001 2001 2001 2001 2001 2001 2001 2001 2001 
2001 2001 2001 2001 2001 2001 2001 2001 2001 
2001 2001 2001 2001 2001 2001 2001 2001 2001 
2001 2001 2001 2001 2001 2001 2001 2001 2001 
2001 2001 2001 2001 2001 2001 2001 2001 2001 
2001 2001 2001 2001 2001 2001 2001 2001 2001 
2001 2001 2001 2001 2001 2001 2001 2001 2001 
2001 2001 2001 2001 2001 2001 2001 2001 2001 
2001 2001 2001 2001 2001 2001 2001 2001 2001 
2001 2001 2001 2001 2001 2001 2001 2001 2001 
2001 2001 2001 2001 2001 2001 2001 2001 2001 
2001 2001 2001 2001 2001 2001 2001 2001 2001 
2001 2001 2001 2001 2001 2001 2001 2001 2001 
2001 2001 2001 2001 2001 2001 2001 2001 2001 
2001 2001 2001 2001 2001 2001 2001 2001 2001 
2001 2001 2001 2001 2001 2001 2001 2001 2001 
2001 2001 2001 2001 2001 2001 2001 2001 2001 
2001 2001 2001 2001 2001 2001 2001 2001 2001 
2001 2001 2001 2001 2001 2001 2001 2001 2001 
2001 2001 2001 2001 2001 2001 2001 2001 2001 
2001 2001 2001 2001 2001 2001 2001 2001 2001 
2001 2001 2001 2001 2001 2001 2001 2001 2001 
2001 2001 2001 2001 2001 2001 2001 2001 2001 
2001 2001 2001 2001 2001 2001 2001 2001 2001 
2001 2001 2001 2001 2001 2001 2001 2001 2001 
2001 2001 2001 2001 2001 2001 2001 2001 2001 
2001 2001 2001 2001 2001 2001 2001 2001 2001 
2001 2001 2001 2001 2001 2001 2001 2001 2001 
2001 2001 2001 2001 2001 2001 2001 2001 2001 
2001 2001 2001 2001 2001 2001 2001 2001 2001 
2001 2001 2001 2001 2001 2001 2001 2001 2001 
2001 2001 2001 2001 2001 2001 2001 2001 2001 
2001 2001 2001 2001 2001 2001 2001 2001 2001 
2001 2001 2001 2001 2001 2001 2001 2001 2001 
2001 2001 2001 2001 2001 2001 2001 2001 2001 
2001 2001 2001 2001 2001 2001 2001 2001 2001 
2001 2001 2001 2001 2001 2001 2001 2001 2001 
2001 2001 2001 2001 2001 2001 2001 2001 2001 
2001 2001 2001 2001 2001 2001 2001 2001 2001 
2001 2001 2001 2001 2001 2001 2001 2001 2001 
2001 2001 2001 2001 2001 2001 2001 2001 2001 
2001 2001 2001 2001 2001 2001 2001 2001 2001 
2001 2001 2001 2001 2001 2001 2001 2001 2001 
2001 2001 2001 2001 2001 2001 2001 2001 2001 
2001 2001 2001 2001 2001 2001 2001 2001 2001 
2001 2001 2001 2001 2001 2001 2001 2001 2001 
2001 2001 2001 2001 2001 2001 2001 2001 2001 
2001 2001 2001 2001 2001 2001 2001 2001 2001 
2001 2001 2001 2001 2001 2001 2001 2001 2001 
2001 2001 2001 2001 2001 2001 2001 2001 2001 
2001 2001 2001 2001 2001 2001 2001 2001 2001 
2001 2001 2001 2001 2001 2001 2001 2001 2001 
2001 2001 2001 2001 2001 2001 2001 2001 2001 
2001 2001 2001 2001 2001 2001 2001 2001 2001 
2001 2001 2001 2001 2001 2001 2001 2001 2001 
2001 2001 2001 2001 2001 2001 2001 2001 2001 
2001 2001 2001 2001 2001 2001 2001 2001 2001 
2001 2001 2001 2001 2001 2001 2001 2001 2001 
2001 2001 2001 2001 2001 2001 2001 2001 2001 
2001 2001 2001 2001 2001 2001 2001 2001 2001 
2001 2001 2001 2001 2001 2001 2001 2001 2001 
2001 2001 2001 2001 2001 2001 2001 2001 2001 
2001 2001 2001 2001 2001 2001 2001 2001 2001 
2001 2001 2001 2001 2001 2001 2001 2001 2001 
2001 2001 2001 2001 2001 2001 2001 2001 2001 
2001 2001 2001 2001 2001 2001 2001 2001 2001 
2001 2001 2001 2001 2001 2001 2001 2001 2001 
2001 2001 2001 2001 2001 2001 2001 2001 2001 
2001 2001 2001 2001 2001 2001 2001 2001 2001 
2001 2001 2001 2001 2001 2001 2001 2001 2001 
2001 2001 2001 2001 2001 2001 2001 2001 2001 
2001 2001 2001 2001 2001 2001 2001 2001 2001 
2001 2001 2001 2001 2001 2001 2001 2001 2001 
2001 2001 2001 2001 2001 2001 2001 2001 2001 
2001 2001 2001 2001 2001 2001 2001 2001 2001 
2001 2001 2001 2001 2001 2001 2001 2001 2001 
2001 2001 2001 2001 2001 2001 2001 2001 2001 
2001 2001 2001 2001 2001 2001 2001 2001 2001 
2001 2001 2001 2001 2001 2001 2001 2001 2001 
2001 2001 2001 2001 2001 2001 2001 2001 2001 
2001 2001 2001 2001 2001 2001 2001 2001 2001 
2001 2001 2001 2001 2001 2001 2001 2001 2001 
2001 2001 2001 2001 2001 2001 2001 2001 2001 
2001 2001 2001 2001 2001 2001 2001 2001 2001 
2001 2001 2001 2001 2001 2001 2001 2001 2001 
2001 2001 2001 2001 2001 2001 2001 2001 2001 
2001 2001 2001 2001 2001 2001 2001 2001 2001 
2001 2001 2001 2001 2001 2001 2001 2001 2001 
2001 2001 2001 2001 2001 2001 2001 2001 2001 
2001 2001 2001 2001 2001 2001 2001 2001 2001 
2001 2001 2001 2001 2001 2001 2001 2001 2001 
2001 2001 2001 2001 2001 2001 2001 2001 2001 
2001 2001 2001 2001 2001 2001 2001 2001 2001 
2001 2001 2001 2001 2001 2001 2001 2001 2001 
2001 2001 2001 2001 2001 2001 2001 2001 2001 
2001 2001 2001 2001 2001 2001 2001 2001 2001 
2001 2001 2001 2001 2001 2001 2001 2001 2001 
2001 2001 2001 2001 2001 2001 2001 2001 2001 
2001 2001 2001 2001 2001 2001 2001 2001 2001 
2001 2001 2001 2001 2001 2001 2001 2001 2001 
2001 2001 2001 2001 2001 2001 2001 2001 2001 
2001 2001 2001 2001 2001 2001 2001 2001 2001 
2001 2001 2001 2001 2001 2001 2001 2001 2001 
2001 2001 2001 2001 2001 2001 2001 2001 2001 
2001 2001 2001 2001 2001 2001 2001 2001 2001 
2001 2001 2001 2001 2001 2001 2001 2001 2001 
2001 2001 2001 2001 2001 2001 2001 2001 2001 
2001 2001 2001 2001 2001 2001 2001 2001 2001 
2001 2001 2001 2001 2001 2001 2001 2001 2001 
2001 2001 2001 2001 2001 2001 2001 2001 2001 
2001 2001 2001 2001 2001 2001 2001 2001 2001 
2001 2001 2001 2001 2001 2001 2001 2001 2001 
2001 2001 2001 2001 2001 2001 2001 2001 2001 
2001 2001 2001 2001 2001 2001 2001 2001 2001 
2001 2001 2001 2001 2001 2001 2001 2001 2001 
2001 2001 2001 2001 2001 2001 2001 2001 2001 
2001 2001 2001 2001 2001 2001 2001 2001 2001 
2001 2001 2001 2001 2001 2001 2001 2001 2001 
2001 2001 2001 2001 2001 2001 2001 2001 2001 
2001 2001 2001 2001 2001 2001 2001 2001 2001 
2001 2001 2001 2001 2001 2001 2001 2001 2001 
2001 2001 2001 2001 2001 2001 2001 2001 2001 
2001 2001 2001 2001 2001 2001 2001 2001 2001 
2001 2001 2001 2001 2001 2001 2001 2001 2001 
2001 2001 2001 2001 2001 2001 2001 2001 2001 
2001 2001 2001 2001 2001 2001 2001 2001 2001 
2001 2001 2001 2001 2001 2001 2001 2001 2001 
2001 2001 2001 2001 2001 2001 2001 2001 2001 
2001 2001 2001 2001 2001 2001 2001 2001 2001 
2001 2001 2001 2001 2001 2001 2001 2001 2001 
2001 2001 2001 2001 2001 2001 2001 2001 2001 
2001 2001 2001 2001 2001 2001 2001 2001 2001 
2001 2001 2001 2001 2001 2001 2001 2001 2001 
2001 2001 2001 2001 2001 2001 2001 2001 2001 
2001 2001 2001 2001 2001 2001 2001 2001 2001 
2001 2001 2001 2001 2001 2001 2001 2001 2001 
2001 2001 2001 2001 2001 2001 2001 2001 2001 
2001 2001 2001 2001 2001 2001 2001 2001 2001 
2001 2001 2001 2001 2001 2001 2001 2001 2001 
2001 2001 2001 2001 2001 2001 2001 2001 2001 
2001 2001 2001 2001 2001 2001 2001 2001 2001 
2001 2001 2001 2001 2001 2001 2001 2001 2001 
2001 2001 2001 2001 2001 2001 2001 2001 2001 
2001 2001 2001 2001 2001 2001 2001 2001 2001 
2001 2001 2001 2001 2001 2001 2001 2001 2001 
2001 2001 2001 2001 2001 2001 2001 2001 2001 
2001 2001 2001 2001 2001 2001 2001 2001 2001 
2001 2001 2001 2001 2001 2001 2001 2001 2001 
2001 2001 2001 2001 2001 2001 2001 2001 2001 
2001 2001 2001 2001 2001 2001 2001 2001 2001 
2001 2001 2001 2001 2001 2001 2001 2001 2001 
2001 2001 2001 2001 2001 2001 2001 2001 2001 
2001 2001 2001 2001 2001 2001 2001 2001 2001 
2001 2001 2001 2001 2001 2001 2001 2001 2001 
2001 2001 2001 2001 2001 2001 2001 2001 2001 
2001 2001 2001 2001 2001 2001 2001 2001 2001 
2001 2001 2001 2001 2001 2001 2001 2001 2001 
2001 2001 2001 2001 2001 2001 2001 2001 2001 
2001 2001 2001 2001 2001 2001 2001 2001 2001 
2001 2001 2001 2001 2001 2001 2001 2001 2001 
2001 2001 2001 2001 2001 2001 2001 2001 2001 
2001 2001 2001 2001 2001 2001 2001 2001 2001 
2001 2001 2001 2001 2001 2001 2001 2001 2001 
2001 2001 2001 2001 2001 2001 2001 2001 2001 
2001 2001 2001 2001 2001 2001 2001 2001 2001 
2001 2001 2001 2001 2001 2001 2001 2001 2001 
2001 2001 2001 2001 2001 2001 2001 2001 2001 
2001 2001 2001 2001 2001 2001 2001 2001 2001 
2001 2001 2001 2001 2001 2001 2001 2001 2001 
2001 2001 2001 2001 2001 2001 2001 2001 2001 
2001 2001 2001 2001 2001 2001 2001 2001 2001 
2001 2001 2001 2001 2001 2001 2001 2001 2001 
2001 2001 2001 2001 2001 2001 2001 2001 2001 
2001 2001 2001 2001 2001 2001 2001 2001 2001 
2001 2001 2001 2001 2001 2001 2001 2001 2001 
2001 2001 2001 2001 2001 2001 2001 2001 2001 
2001 2001 2001 2001 2001 2001 2001 2001 2001 
2001 2001 2001 2001 2001 2001 2001 2001 2001 
2001 2001 2001 2001 2001 2001 2001 2001 2001 
2001 2001 2001 2001 2001 2001 2001 2001 2001 
2001 2001 2001 2001 2001 2001 2001 2001 2001 
2001 2001 2001 2001 2001 2001 2001 2001 2001 
2001 2001 2001 2001 2001 2001 2001 2001 2001 
2001 2001 2001 2001 2001 2001 2001 2001 2001 
2001 2001 2001 2001 2001 2001 2001 2001 2001 
2001 2001 2001 2001 2001 2001 2001 2001 2001 
2001 2001 2001 2001 2001 2001 2001 2001 2001 
2001 2001 2001 2001 2001 2001 2001 2001 2001 
2001 2001 2001 2001 2001 2001 2001 2001 2001 
2001 2001 2001 2001 2001 2001 2001 2001 2001 
2001 2001 2001 2001 2001 2001 2001 2001 2001 
2001 2001 2001 2001 2001 2001 2001 2001 2001 
2001 2001 2001 2001 2001 2001 2001 2001 2001 
2001 2001 2001 2001 2001 2001 2001 2001 2001 
2001 2001 2001 2001 2001 2001 2001 2001 2001 
2001 2001 2001 2001 2001 2001 2001 2001 2001 
2001 2001 2001 2001 2001 2001 2001 2001 2001 
2001 2001 2001 2001 2001 2001 2001 2001 2001 
2001 2001 2001 2001 2001 2001 2001 2001 2001 
2001 2001 2001 2001 2001 2001 2001 2001 2001 
2001 2001 2001 2001 2001 2001 2001 2001 2001 
2001 2001 2001 2001 2001 2001 2001 2001 2001 
2001 2001 2001 2001 2001 2001 2001 2001 2001 
2001 2001 2001 2001 2001 2001 2001 2001 2001 
2001 2001 2001 2001 2001 2001 2001 2001 2001 
2001 2001 2001 2001 2001 2001 2001 2001 2001 
2001 2001 2001 2001 2001 2001 2001 2001 2001 
2001 2001 2001 2001 2001 2001 2001 2001 2001 
2001 2001 2001 2001 2001 2001 2001 2001 2001 
2001 2001 2001 2001 2001 2001 2001 2001 2001 
2001 2001 2001 2001 2001 2001 2001 2001 2001 
2001 2001 2001 2001 2001 2001 2001 2001 2001 
2001 2001 2001 2001 2001 2001 2001 2001 2001 
2001 2001 2001 2001 2001 2001 2001 2001 2001 
2001 2001 2001 2001 2001 2001 2001 2001 2001 
2001 2001 2001 2001 2001 2001 2001 2001 2001 
2001 2001 2001 2001 2001 2001 2001 2001 2001 
2001 2001 2001 2001 2001 2001 2001 2001 2001 
2001 2001 2001 2001 2001 2001 2001 2001 2001 
2001 2001 2001 2001 2001 2001 2001 2001 2001 
2001 2001 2001 2001 2001 2001 2001 2001 2001 
2001 2001 2001 2001 2001 2001 2001 2001 2001 
2001 2001 2001 2001 2001 2001 2001 2001 2001 
2001 2001 2001 2001 2001 2001 2001 2001 2001 
2001 2001 2001 2001 2001 2001 2001 2001 2001 
2001 2001 2001 2001 2001 2001 2001 2001 2001 
2001 2001 2001 2001 2001 2001 2001 2001 2001 
2001 2001 2001 2001 2001 2001 2001 2001 2001 
2001 2001 2001 2001 2001 2001 2001 2001 2001 
2001 2001 2001 2001 2001 2001 2001 2001 2001 
2001 2001 2001 2001 2001 2001 2001 2001 2001 
2001 2001 2001 2001 2001 2001 2001 2001 2001 
2001 2001 2001 2001 2001 2001 2001 2001 2001 
2001 2001 2001 2001 2001 2001 2001 2001 2001 
2001 2001 2001 2001 2001 2001 2001 2001 2001 
2001 2001 2001 2001 2001 2001 2001 2001 2001 
2001 2001 2001 2001 2001 2001 2001 2001 2001 
2001 2001 2001 2001 2001 2001 2001 2001 2001 
2001 2001 2001 2001 2001 2001 2001 2001 2001 
2001 2001 2001 2001 2001 2001 2001 2001 2001 
2001 2001 2001 2001 2001 2001 2001 2001 2001 
2001 2001 2001 2001 2001 2001 2001 2001 2001 
2001 2001 2001 2001 2001 2001 2001 2001 2001 
2001 2001 2001 2001 2001 2001 2001 2001 2001 
2001 2001 2001 2001 2001 2001 2001 2001 2001 
2001 2001 2001 2001 2001 2001 2001 2001 2001 
2001 2001 2001 2001 2001 2001 2001 2001 2001 
2001 2001 2001 2001 2001 2001 2001 2001 2001 
2001 2001 2001 2001 2001 2001 2001 2001 2001 
2001 2001 2001 2001 2001 2001 2001 2001 2001 
2001 2001 2001 2001 2001 2001 2001 2001 2001 
2001 2001 2001 2001 2001 2001 2001 2001 2001 
2001 2001 2001 2001 2001 2001 2001 2001 2001 
2001 2001 2001 2001 2001 2001 2001 2001 2001 
2001 2001 2001 2001 2001 2001 2001 2001 2001 
2001 2001 2001 2001 2001 2001 2001 2001 2001 
2001 2001 2001 2001 2001 2001 2001 2001 2001 
2001 2001 2001 2001 2001 2001 2001 2001 2001 
2001 2001 2001 2001 2001 2001 2001 2001 2001 
2001 2001 2001 2001 2001 2001 2001 2001 2001 
2001 2001 2001 2001 2001 2001 2001 2001 2001 
2001 2001 2001 2001 2001 2001 2001 2001 2001 
2001 2001 2001 2001 2001 2001 2001 2001 2001 
2001 2001 2001 2001 2001 2001 2001 2001 2001 
2001 2001 2001 2001 2001 2001 2001 2001 2001 
2001 2001 2001 2001 2001 2001 2001 2001 2001 
2001 2001 2001 2001 2001 2001 2001 2001 2001 
2001 2001 2001 2001 2001 2001 2001 2001 2001 
2001 2001 2001 2001 2001 2001 2001 2001 2001 
2001 2001 2001 2001 2001 2001 2001 2001 2001 
2001 2001 2001 2001 2001 2001 2001 2001 2001 
2001 2001 2001 2001 2001 2001 2001 2001 2001 
2001 2001 2001 2001 2001 2001 2001 2001 2001 
2001 2001 2001 2001 2001 2001 2001 2001 2001 
2001 2001 2001 2001 2001 2001 2001 2001 2001 
2001 2001 2001 2001 2001 2001 2001 2001 2001 
2001 2001 2001 2001 2001 2001 2001 2001 2001 
2001 2001 2001 2001 2001 2001 2001 2001 2001 
2001 2001 2001 2001 2001 2001 2001 2001 2001 
2001 2001 2001 2001 2001 2001 2001 2001 2001 
2001 2001 2001 2001 2001 2001 2001 2001 2001 
2001 2001 2001 2001 2001 2001 2001 2001 2001 
2001 2001 2001 2001 2001 2001 2001 2001 2001 
2001 2001 2001 2001 2001 2001 2001 2001 2001 
2001 2001 2001 2001 2001 2001 2001 2001 2001 
2001 2001 2001 2001 2001 2001 2001 2001 2001 
2001 2001 2001 2001 2001 2001 2001 2001 2001 
2001 2001 2001 2001 2001 2001 2001 2001 2001 
2001 2001 2001 2001 2001 2001 2001 2001 2001 
2001 2001 2001 2001 2001 2001 2001 2001 2001 
2001 2001 2001 2001 2001 2001 2001 2001 2001 
2001 2001 2001 2001 2001 2001 2001 2001 2001 
2001 2001 2001 2001 2001 2001 2001 2001 2001 
2001 2001 2001 2001 2001 2001 2001 2001 2001 
2001 2001 2001 2001 2001 2001 2001 2001 2001 
2001 2001 2001 2001 2001 2001 2001 2001 2001 
2001 2001 2001 2001 2001 2001 2001 2001 2001 
2001 2001 2001 2001 2001 2001 2001 2001 2001 
2001 2001 2001 2001 2001 2001 2001 2001 2001 
2001 2001 2001 2001 2001 2001 2001 2001 2001 
2001 2001 2001 2001 2001 2001 2001 2001 2001 
2001 2001 2001 2001 2001 2001 2001 2001 2001 
2001 2001 2001 2001 2001 2001 2001 2001 2001 
2001 2001 2001 2001 2001 2001 2001 2001 2001 
2001 2001 2001 2001 2001 2001 2001 2001 2001 
2001 2001 2001 2001 2001 2001 2001 2001 2001 
2001 2001 2001 2001 2001 2001 2001 2001 2001 
2001 2001 2001 2001 2001 2001 2001 2001 2001 
2001 2001 2001 2001 2001 2001 2001 2001 2001 
2001 2001 2001 2001 2001 2001 2001 2001 2001 
2001 2001 2001 2001 2001 2001 2001 2001 2001 
2001 2001 2001 2001 2001 2001 2001 2001 2001 
2001 2001 2001 2001 2001 2001 2001 2001 2001 
2001 2001 2001 2001 2001 2001 2001 2001 2001 