# vtk DataFile Version 4.2
vtk output
ASCII
DATASET POLYDATA
POINTS 4014 float
-34.2017 -17.766 77.7523 -34.2823 -17.2329 77.606 -34.6705 -17.6903 77.5553 
-33.9005 -17.5524 77.3754 -34.396 -18.3132 77.7586 -34.7474 -18.4277 77.6101 
-33.9556 -18.5088 77.3904 -34.5896 -18.8329 77.4086 -34.3241 -14.7592 76.7679 
-34.2731 -14.3191 76.5462 -34.6459 -14.5661 76.5158 -34.0619 -14.7037 76.2665 
-34.9366 -15.309 76.8111 -35.3345 -14.9359 76.253 -35.5525 -15.7207 76.2595 
-34.054 -15.6311 76.9538 -33.7732 -15.5418 76.3401 -35.1759 -16.0361 76.6135 
-35.1126 -16.6264 76.5958 -34.412 -16.6225 77.1144 -33.4047 -16.0991 76.6426 
-33.4015 -16.5717 76.8444 -33.0352 -16.8019 76.2652 -35.1463 -17.3245 76.892 
-35.4377 -16.923 76.3336 -35.633 -17.6016 76.356 -33.4439 -17.413 76.8718 
-32.9541 -17.4643 76.3252 -35.2087 -18.3315 77.0758 -35.688 -18.6114 76.1837 
-33.4766 -18.2659 76.7899 -33.1227 -18.1047 76.3317 -35.0968 -19.1365 76.7649 
-34.0936 -19.5602 77.025 -34.8772 -19.8932 76.3775 -33.4423 -19.0691 76.7281 
-33.2694 -19.8287 76.7787 -32.9625 -19.3702 76.2195 -34.1327 -20.5332 76.8757 
-34.577 -20.5683 76.3082 -33.3992 -20.6018 76.9456 -32.8914 -20.3239 76.3706 
-34.1204 -21.0963 76.5763 -33.7469 -21.6409 76.2453 -33.5342 -21.357 76.8414 
-32.9831 -21.2704 76.4504 -33.2117 -21.8046 76.3214 -35.9951 -14.6002 75.8371 
-36.3991 -14.1696 75.246 -36.6395 -14.4749 75.5768 -35.2028 -14.5454 75.8764 
-35.5244 -14.265 75.5303 -34.2701 -14.4001 76.2839 -34.8592 -14.4925 75.1881 
-36.6005 -14.9244 75.4011 -35.9711 -15.5499 75.5277 -34.4909 -14.7412 75.8211 
-33.941 -15.3853 75.4588 -35.4345 -16.3472 76.2392 -35.7229 -16.5795 75.7912 
-33.3402 -16.3772 76.0975 -33.5514 -16.2047 75.3387 -35.819 -17.5313 75.4977 
-33.1583 -16.8122 75.6478 -32.8202 -17.364 75.6349 -35.8244 -18.3664 75.3176 
-33.1498 -18.7002 76.2326 -32.7538 -18.4206 75.7178 -35.4513 -19.4297 76.0994 
-35.6977 -19.4705 75.2875 -32.6342 -19.5753 75.6036 -35.3136 -19.9655 75.6751 
-34.9448 -20.3966 75.7486 -32.64 -20.6232 75.6472 -34.5369 -21.0916 75.6542 
-34.0147 -21.6983 75.4668 -32.8015 -21.5037 75.6814 -31.3274 -21.5687 75.6396 
-31.3392 -21.353 75.4832 -31.7795 -21.4833 75.2681 -30.9475 -21.3856 75.4122 
-33.2613 -21.9274 75.4042 -31.1944 -21.8146 75.2198 -37.0872 -14.5062 75.0644 
-37.3337 -14.0561 74.4746 -37.5245 -14.5973 74.3422 -36.354 -13.8624 74.4142 
-35.4753 -14.1165 74.7743 -34.7155 -14.3459 74.3353 -37.0582 -15.0351 74.6432 
-36.4722 -15.4353 74.9339 -36.7033 -15.5332 74.168 -34.2901 -14.9731 74.7733 
-33.8044 -15.5598 74.5676 -32.3192 -15.8597 74.7426 -32.425 -15.2318 74.4243 
-32.8696 -15.7095 74.5663 -31.9288 -15.2727 74.245 -36.2007 -15.8483 74.5656 
-35.8972 -16.5102 74.6229 -33.3794 -15.9607 74.5974 -32.9165 -16.5827 75.0349 
-32.2528 -16.7175 74.8521 -31.8751 -16.2283 74.3981 -35.775 -17.5046 74.4763 
-32.3866 -17.6805 75.0101 -31.9301 -17.2805 74.4003 -35.7841 -18.5057 74.4925 
-32.3069 -18.8422 74.9795 -31.961 -18.2947 74.3497 -35.8179 -19.4014 74.3129 
-32.3002 -19.86 74.9489 -31.8373 -19.2583 74.2878 -35.2709 -20.4698 75.1557 
-35.6312 -20.3425 74.3111 -32.2205 -20.8811 75.0637 -31.7557 -20.167 74.4823 
-30.251 -20.8978 74.8447 -30.462 -20.268 74.3778 -30.7835 -20.5215 74.5325 
-29.8636 -20.3699 74.1373 -35.0862 -21.071 74.6536 -34.5201 -21.5215 74.9531 
-34.7565 -21.5761 74.1898 -32.5049 -21.6188 75.1952 -31.3054 -20.8809 74.8843 
-30.3632 -21.5548 75.172 -29.3687 -20.9763 74.5178 -29.3656 -21.4661 74.8413 
-28.494 -21.6271 74.7008 -28.6315 -21.1225 74.3588 -27.934 -21.5952 74.3185 
-34.0017 -21.9194 74.5644 -33.1536 -22.0759 74.355 -32.1814 -21.966 74.6418 
-31.1429 -22.0373 74.3506 -30.1468 -21.9267 74.5452 -28.9352 -21.9108 74.4323 
-28.2961 -21.8623 74.4723 -41.3312 -11.5483 73.6571 -41.2704 -11.1491 73.299 
-41.6168 -11.5302 73.5752 -40.9117 -11.4693 73.3853 -41.4332 -11.8083 73.358 
-40.241 -12.2612 73.5683 -40.5049 -12.4056 73.4698 -40.2606 -12.5177 73.6463 
-40.0421 -12.4104 73.4813 -40.4034 -12.798 73.299 -38.0054 -13.6323 73.801 
-38.3788 -13.1894 73.4513 -38.6179 -13.536 73.4972 -37.0536 -13.5398 73.9807 
-37.4363 -13.033 73.4038 -36.2309 -13.5934 73.81 -36.3954 -13.2527 73.3446 
-35.7277 -13.4522 73.3248 -34.2287 -13.8437 73.7359 -34.4074 -13.2388 73.1419 
-34.8025 -13.5262 73.4766 -33.6771 -13.4217 73.3273 -38.5792 -13.9513 73.3277 
-37.9353 -14.3203 73.7791 -35.3548 -13.7919 73.837 -34.0071 -14.7407 74.1228 
-33.1756 -13.821 73.4309 -33.2507 -14.3657 73.834 -32.3848 -14.7151 73.9952 
-32.4951 -14.2009 73.5223 -31.9246 -14.6097 73.4509 -37.4912 -15.0353 73.6084 
-36.8959 -15.5416 73.5667 -33.1856 -15.1899 74.1944 -31.614 -15.5334 73.3908 
-36.4345 -16.007 73.5635 -35.9165 -16.8312 73.3954 -31.7484 -16.6707 73.7338 
-35.753 -17.6934 73.6423 -31.8092 -17.562 73.5459 -24.3182 -17.4621 73.7039 
-24.4211 -17.2644 73.36 -24.5272 -17.72 73.3249 -24.1086 -17.523 73.2385 
-35.9093 -18.6442 73.4998 -31.709 -18.5455 73.383 -24.2172 -17.9132 73.4263 
-35.9338 -19.8311 73.4253 -31.1801 -19.0868 73.4517 -31.1957 -19.6089 73.9839 
-30.4689 -19.7769 73.9727 -30.4034 -19.2249 73.3801 -29.8387 -19.6404 73.4449 
-27.1758 -19.6428 73.8484 -27.3855 -19.0995 73.1704 -27.947 -19.6021 73.5333 
-26.0983 -19.5689 73.9211 -26.4957 -19.0989 73.5568 -25.0375 -19.5983 73.9224 
-25.3621 -19.153 73.3781 -24.1396 -19.5048 73.8814 -24.283 -19.0779 73.4908 
-23.5544 -19.7441 73.7531 -23.3662 -19.1965 73.3926 -22.8752 -19.456 73.3318 
-35.6752 -20.5747 73.3343 -31.0562 -20.2066 74.2775 -29.5571 -20.2473 73.457 
-27.9701 -20.5148 73.9463 -28.507 -20.0714 73.3948 -28.7383 -20.6151 73.6456 
-27.1427 -20.621 74.0358 -26.3536 -20.4615 74.0352 -25.3287 -20.4826 74.0544 
-24.1677 -20.4476 73.9448 -23.5543 -20.3354 73.6114 -23.0983 -19.9299 73.442 
-35.3142 -21.0749 73.7419 -34.8622 -21.5835 73.2326 -29.2322 -20.7545 73.8302 
-27.2086 -21.5093 74.0957 -26.3058 -21.5403 74.0549 -25.3125 -21.5422 74.0624 
-24.2886 -21.5372 74.0562 -23.3533 -20.8395 73.631 -23.297 -21.4251 73.9096 
-22.4859 -21.8546 73.771 -22.5852 -21.1177 73.5394 -21.9393 -21.4515 73.2118 
-34.1787 -21.9223 73.4754 -33.3095 -22.0487 73.4861 -32.3172 -22.0467 73.4529 
-31.2852 -22.0456 73.475 -30.4355 -22.0558 73.6507 -29.3541 -22.1586 73.5233 
-28.2403 -22.1597 73.8796 -27.3915 -22.2712 73.9056 -27.8324 -22.6074 73.3786 
-26.3961 -22.5464 73.9404 -25.282 -22.5873 74.0598 -24.4227 -22.4389 74.0697 
-23.4204 -22.5466 73.9099 -22.5764 -22.6654 73.3931 -22.0906 -22.1675 73.4219 
-27.1622 -22.8506 73.3888 -26.3818 -23.215 73.4856 -25.9229 -23.6674 73.4079 
-25.4981 -23.3637 73.8632 -24.406 -23.3745 73.8893 -23.631 -23.4777 73.6248 
-23.1263 -23.1943 73.4243 -25.1038 -23.9675 73.305 -24.0658 -23.9458 73.2635 
-42.0628 -9.743 72.8256 -42.0952 -9.0668 72.3395 -42.7095 -9.6544 72.5482 
-41.7034 -9.40638 72.3979 -42.3634 -10.362 72.9542 -42.868 -10.8156 72.3879 
-41.2844 -9.88959 72.3616 -41.6723 -10.5004 72.9972 -40.8238 -10.5188 72.528 
-42.1025 -11.2894 73.068 -42.6559 -11.7745 72.2331 -40.2578 -11.8464 73.1798 
-40.4219 -11.0266 72.7877 -39.0089 -11.6277 72.894 -39.5244 -10.975 72.5033 
-37.983 -11.6175 72.8756 -38.5361 -10.9639 72.4916 -37.2568 -11.7401 72.7616 
-37.6243 -11.2458 72.4124 -37.0782 -11.6611 72.4913 -42.0846 -12.1109 72.7076 
-41.2015 -12.4438 73.0376 -41.8491 -12.5886 72.5288 -39.5611 -12.5814 73.1652 
-38.3836 -12.5052 73.1449 -37.3224 -12.3454 72.9476 -36.7609 -12.1957 72.3785 
-41.3413 -13.0816 72.4876 -40.227 -13.3543 72.8794 -40.8754 -13.6443 72.322 
-39.1643 -13.4254 73.0825 -36.4901 -12.822 72.7642 -35.146 -13.4147 73.2241 
-35.4026 -13.029 72.7199 -34.2579 -12.8633 72.3837 -33.0707 -13.5167 72.9576 
-33.5287 -13.1724 72.6941 -32.8208 -13.4829 72.1965 -40.1759 -13.8589 72.3846 
-39.2478 -14.1519 72.5427 -38.3548 -14.5269 73.0066 -38.8746 -14.5836 72.2966 
-32.3954 -13.9667 72.8029 -31.7037 -14.6026 72.4106 -38.183 -15.0129 72.4501 
-37.2566 -15.5127 72.993 -37.6907 -15.4936 72.1551 -31.286 -15.1616 72.5947 
-31.308 -15.6485 72.768 -31.0582 -15.4107 72.271 -36.9701 -15.9814 72.585 
-36.3679 -16.4071 72.8383 -36.6794 -16.6409 72.1345 -31.6402 -16.4927 72.8286 
-31.2539 -15.9235 72.15 -36.1643 -16.891 72.5749 -35.9812 -17.6079 72.7943 
-31.8152 -17.5719 72.5304 -24.326 -17.2179 72.5802 -24.6425 -17.4478 72.7397 
-23.8203 -17.5196 72.2823 -36.2192 -18.4254 72.8006 -36.3588 -17.9122 72.3275 
-36.6042 -18.5841 72.3333 -31.7225 -18.4271 72.2273 -24.3868 -18.6103 73.05 
-24.7185 -18.2219 72.458 -23.7981 -18.3427 72.5888 -36.3106 -19.2364 72.9079 
-36.6696 -19.5867 72.1416 -31.1629 -18.9139 72.527 -30.2717 -19.0041 72.5248 
-29.1753 -19.6254 72.9628 -29.335 -19.1102 72.5341 -28.4345 -19.5396 73.0726 
-28.1692 -19.0903 72.4358 -27.1235 -18.9717 72.3264 -26.2474 -19.1267 72.797 
-25.3979 -19.5053 72.7635 -25.684 -19.6163 72.1502 -24.9055 -19.2421 72.4768 
-23.4893 -18.9054 72.7264 -22.3883 -19.8538 72.963 -22.5914 -19.0683 72.463 
-21.9253 -19.3237 72.2144 -36.2643 -19.9892 72.6693 -35.917 -20.4306 72.7444 
-29.0697 -20.2526 73.2296 -25.1576 -19.8395 72.2339 -22.9121 -20.4664 73.3166 
-22.2207 -20.6467 73.1296 -21.8169 -20.4388 72.5193 -35.5465 -21.0776 72.6143 
-35.0063 -21.6437 72.4184 -21.6999 -21.3982 72.3825 -34.3031 -21.9274 72.3606 
-33.3184 -22.028 72.4882 -32.4563 -22.0351 72.6065 -31.3936 -22.133 72.4495 
-30.2243 -22.2067 72.7772 -29.3418 -22.4425 72.7583 -29.8349 -22.5806 72.2887 
-28.5893 -22.541 73.0468 -22.1641 -22.5767 73.0882 -21.869 -22.2335 72.6216 
-29.194 -22.8167 72.3299 -28.1024 -23.0532 72.5527 -26.9432 -23.2733 72.5074 
-26.4802 -23.5021 72.988 -26.6112 -23.5286 72.5561 -23.3983 -23.6943 73.1115 
-22.9385 -23.3938 72.7816 -22.4239 -22.9715 72.343 -25.9929 -23.8546 72.6402 
-25.1244 -24.1436 72.3484 -24.4393 -24.1555 72.6175 -23.6091 -23.8901 72.3777 
-42.5126 -8.73623 72.0333 -42.6049 -8.20715 71.2947 -42.9127 -8.58 71.6404 
-41.9331 -8.54911 71.3673 -43.1485 -9.25134 71.9569 -43.3935 -8.86041 71.3932 
-43.6625 -9.54924 71.3729 -41.3165 -9.4805 72.0234 -41.3594 -9.12138 71.5925 
-40.8075 -9.52822 71.5045 -43.3344 -10.1854 71.9853 -43.6939 -10.5969 71.1755 
[...]
CELL_DATA 8040
SCALARS scalars float
LOOKUP_TABLE default
2019 2019 2019 2019 2019 2019 2019 2019 2019 
2019 2019 2019 2019 2019 2019 2019 2019 2019 
2019 2019 2019 2019 2019 2019 2019 2019 2019 
2019 2019 2019 2019 2019 2019 2019 2019 2019 
2019 2019 2019 2019 2019 2019 2019 2019 2019 
2019 2019 2019 2019 2019 2019 2019 2019 2019 
2019 2019 2019 2019 2019 2019 2019 2019 2019 
2019 2019 2019 2019 2019 2019 2019 2019 2019 
2019 2019 2019 2019 2019 2019 2019 2019 2019 
2019 2019 2019 2019 2019 2019 2019 2019 2019 
2019 2019 2019 2019 2019 2019 2019 2019 2019 
2019 2019 2019 2019 2019 2019 2019 2019 2019 
2019 2019 2019 2019 2019 2019 2019 2019 2019 
2019 2019 2019 2019 2019 2019 2019 2019 2019 
2019 2019 2019 2019 2019 2019 2019 2019 2019 
2019 2019 2019 2019 2019 2019 2019 2019 2019 
2019 2019 2019 2019 2019 2019 2019 2019 2019 
2019 2019 2019 2019 2019 2019 2019 2019 2019 
2019 2019 2019 2019 2019 2019 2019 2019 2019 
2019 2019 2019 2019 2019 2019 2019 2019 2019 
2019 2019 2019 2019 2019 2019 2019 2019 2019 
2019 2019 2019 2019 2019 2019 2019 2019 2019 
2019 2019 2019 2019 2019 2019 2019 2019 2019 
2019 2019 2019 2019 2019 2019 2019 2019 2019 
2019 2019 2019 2019 2019 2019 2019 2019 2019 
2019 2019 2019 2019 2019 2019 2019 2019 2019 
2019 2019 2019 2019 2019 2019 2019 2019 2019 
2019 2019 2019 2019 2019 2019 2019 2019 2019 
2019 2019 2019 2019 2019 2019 2019 2019 2019 
2019 2019 2019 2019 2019 2019 2019 2019 2019 
2019 2019 2019 2019 2019 2019 2019 2019 2019 
2019 2019 2019 2019 2019 2019 2019 2019 2019 
2019 2019 2019 2019 2019 2019 2019 2019 2019 
2019 2019 2019 2019 2019 2019 2019 2019 2019 
2019 2019 2019 2019 2019 2019 2019 2019 2019 
2019 2019 2019 2019 2019 2019 2019 2019 2019 
2019 2019 2019 2019 2019 2019 2019 2019 2019 
2019 2019 2019 2019 2019 2019 2019 2019 2019 
2019 2019 2019 2019 2019 2019 2019 2019 2019 
2019 2019 2019 2019 2019 2019 2019 2019 2019 
2019 2019 2019 2019 2019 2019 2019 2019 2019 
2019 2019 2019 2019 2019 2019 2019 2019 2019 
2019 2019 2019 2019 2019 2019 2019 2019 2019 
2019 2019 2019 2019 2019 2019 2019 2019 2019 
2019 2019 2019 2019 2019 2019 2019 2019 2019 
2019 2019 2019 2019 2019 2019 2019 2019 2019 
2019 2019 2019 2019 2019 2019 2019 2019 2019 
2019 2019 2019 2019 2019 2019 2019 2019 2019 
2019 2019 2019 2019 2019 2019 2019 2019 2019 
2019 2019 2019 2019 2019 2019 2019 2019 2019 
2019 2019 2019 2019 2019 2019 2019 2019 2019 
2019 2019 2019 2019 2019 2019 2019 2019 2019 
2019 2019 2019 2019 2019 2019 2019 2019 2019 
2019 2019 2019 2019 2019 2019 2019 2019 2019 
2019 2019 2019 2019 2019 2019 2019 2019 2019 
2019 2019 2019 2019 2019 2019 2019 2019 2019 
2019 2019 2019 2019 2019 2019 2019 2019 2019 
2019 2019 2019 2019 2019 2019 2019 2019 2019 
2019 2019 2019 2019 2019 2019 2019 2019 2019 
2019 2019 2019 2019 2019 2019 2019 2019 2019 
2019 2019 2019 2019 2019 2019 2019 2019 2019 
2019 2019 2019 2019 2019 2019 2019 2019 2019 
2019 2019 2019 2019 2019 2019 2019 2019 2019 
2019 2019 2019 2019 2019 2019 2019 2019 2019 
2019 2019 2019 2019 2019 2019 2019 2019 2019 
2019 2019 2019 2019 2019 2019 2019 2019 2019 
2019 2019 2019 2019 2019 2019 2019 2019 2019 
2019 2019 2019 2019 2019 2019 2019 2019 2019 
2019 2019 2019 2019 2019 2019 2019 2019 2019 
2019 2019 2019 2019 2019 2019 2019 2019 2019 
2019 2019 2019 2019 2019 2019 2019 2019 2019 
2019 2019 2019 2019 2019 2019 2019 2019 2019 
2019 2019 2019 2019 2019 2019 2019 2019 2019 
2019 2019 2019 2019 2019 2019 2019 2019 2019 
2019 2019 2019 2019 2019 2019 2019 2019 2019 
2019 2019 2019 2019 2019 2019 2019 2019 2019 
2019 2019 2019 2019 2019 2019 2019 2019 2019 
2019 2019 2019 2019 2019 2019 2019 2019 2019 
2019 2019 2019 2019 2019 2019 2019 2019 2019 
2019 2019 2019 2019 2019 2019 2019 2019 2019 
2019 2019 2019 2019 2019 2019 2019 2019 2019 
2019 2019 2019 2019 2019 2019 2019 2019 2019 
2019 2019 2019 2019 2019 2019 2019 2019 2019 
2019 2019 2019 2019 2019 2019 2019 2019 2019 
2019 2019 2019 2019 2019 2019 2019 2019 2019 
2019 2019 2019 2019 2019 2019 2019 2019 2019 
2019 2019 2019 2019 2019 2019 2019 2019 2019 
2019 2019 2019 2019 2019 2019 2019 2019 2019 
2019 2019 2019 2019 2019 2019 2019 2019 2019 
2019 2019 2019 2019 2019 2019 2019 2019 2019 
2019 2019 2019 2019 2019 2019 2019 2019 2019 
2019 2019 2019 2019 2019 2019 2019 2019 2019 
2019 2019 2019 2019 2019 2019 2019 2019 2019 
2019 2019 2019 2019 2019 2019 2019 2019 2019 
2019 2019 2019 2019 2019 2019 2019 2019 2019 
2019 2019 2019 2019 2019 2019 2019 2019 2019 
2019 2019 2019 2019 2019 2019 2019 2019 2019 
2019 2019 2019 2019 2019 2019 2019 2019 2019 
2019 2019 2019 2019 2019 2019 2019 2019 2019 
2019 2019 2019 2019 2019 2019 2019 2019 2019 
2019 2019 2019 2019 2019 2019 2019 2019 2019 
2019 2019 2019 2019 2019 2019 2019 2019 2019 
2019 2019 2019 2019 2019 2019 2019 2019 2019 
2019 2019 2019 2019 2019 2019 2019 2019 2019 
2019 2019 2019 2019 2019 2019 2019 2019 2019 
2019 2019 2019 2019 2019 2019 2019 2019 2019 
2019 2019 2019 2019 2019 2019 2019 2019 2019 
2019 2019 2019 2019 2019 2019 2019 2019 2019 
2019 2019 2019 2019 2019 2019 2019 2019 2019 
2019 2019 2019 2019 2019 2019 2019 2019 2019 
2019 2019 2019 2019 2019 2019 2019 2019 2019 
2019 2019 2019 2019 2019 2019 2019 2019 2019 
2019 2019 2019 2019 2019 2019 2019 2019 2019 
2019 2019 2019 2019 2019 2019 2019 2019 2019 
2019 2019 2019 2019 2019 2019 2019 2019 2019 
2019 2019 2019 2019 2019 2019 2019 2019 2019 
2019 2019 2019 2019 2019 2019 2019 2019 2019 
2019 2019 2019 2019 2019 2019 2019 2019 2019 
2019 2019 2019 2019 2019 2019 2019 2019 2019 
2019 2019 2019 2019 2019 2019 2019 2019 2019 
2019 2019 2019 2019 2019 2019 2019 2019 2019 
2019 2019 2019 2019 2019 2019 2019 2019 2019 
2019 2019 2019 2019 2019 2019 2019 2019 2019 
2019 2019 2019 2019 2019 2019 2019 2019 2019 
2019 2019 2019 2019 2019 2019 2019 2019 2019 
2019 2019 2019 2019 2019 2019 2019 2019 2019 
2019 2019 2019 2019 2019 2019 2019 2019 2019 
2019 2019 2019 2019 2019 2019 2019 2019 2019 
2019 2019 2019 2019 2019 2019 2019 2019 2019 
2019 2019 2019 2019 2019 2019 2019 2019 2019 
2019 2019 2019 2019 2019 2019 2019 2019 2019 
2019 2019 2019 2019 2019 2019 2019 2019 2019 
2019 2019 2019 2019 2019 2019 2019 2019 2019 
2019 2019 2019 2019 2019 2019 2019 2019 2019 
2019 2019 2019 2019 2019 2019 2019 2019 2019 
2019 2019 2019 2019 2019 2019 2019 2019 2019 
2019 2019 2019 2019 2019 2019 2019 2019 2019 
2019 2019 2019 2019 2019 2019 2019 2019 2019 
2019 2019 2019 2019 2019 2019 2019 2019 2019 
2019 2019 2019 2019 2019 2019 2019 2019 2019 
2019 2019 2019 2019 2019 2019 2019 2019 2019 
2019 2019 2019 2019 2019 2019 2019 2019 2019 
2019 2019 2019 2019 2019 2019 2019 2019 2019 
2019 2019 2019 2019 2019 2019 2019 2019 2019 
2019 2019 2019 2019 2019 2019 2019 2019 2019 
2019 2019 2019 2019 2019 2019 2019 2019 2019 
2019 2019 2019 2019 2019 2019 2019 2019 2019 
2019 2019 2019 2019 2019 2019 2019 2019 2019 
2019 2019 2019 2019 2019 2019 2019 2019 2019 
2019 2019 2019 2019 2019 2019 2019 2019 2019 
2019 2019 2019 2019 2019 2019 2019 2019 2019 
2019 2019 2019 2019 2019 2019 2019 2019 2019 
2019 2019 2019 2019 2019 2019 2019 2019 2019 
2019 2019 2019 2019 2019 2019 2019 2019 2019 
2019 2019 2019 2019 2019 2019 2019 2019 2019 
2019 2019 2019 2019 2019 2019 2019 2019 2019 
2019 2019 2019 2019 2019 2019 2019 2019 2019 
2019 2019 2019 2019 2019 2019 2019 2019 2019 
2019 2019 2019 2019 2019 2019 2019 2019 2019 
2019 2019 2019 2019 2019 2019 2019 2019 2019 
2019 2019 2019 2019 2019 2019 2019 2019 2019 
2019 2019 2019 2019 2019 2019 2019 2019 2019 
2019 2019 2019 2019 2019 2019 2019 2019 2019 
2019 2019 2019 2019 2019 2019 2019 2019 2019 
2019 2019 2019 2019 2019 2019 2019 2019 2019 
2019 2019 2019 2019 2019 2019 2019 2019 2019 
2019 2019 2019 2019 2019 2019 2019 2019 2019 
2019 2019 2019 2019 2019 2019 2019 2019 2019 
2019 2019 2019 2019 2019 2019 2019 2019 2019 
2019 2019 2019 2019 2019 2019 2019 2019 2019 
2019 2019 2019 2019 2019 2019 2019 2019 2019 
2019 2019 2019 2019 2019 2019 2019 2019 2019 
2019 2019 2019 2019 2019 2019 2019 2019 2019 
2019 2019 2019 2019 2019 2019 2019 2019 2019 
2019 2019 2019 2019 2019 2019 2019 2019 2019 
2019 2019 2019 2019 2019 2019 2019 2019 2019 
2019 2019 2019 2019 2019 2019 2019 2019 2019 
2019 2019 2019 2019 2019 2019 2019 2019 2019 
2019 2019 2019 2019 2019 2019 2019 2019 2019 
2019 2019 2019 2019 2019 2019 2019 2019 2019 
2019 2019 2019 2019 2019 2019 2019 2019 2019 
2019 2019 2019 2019 2019 2019 2019 2019 2019 
2019 2019 2019 2019 2019 2019 2019 2019 2019 
2019 2019 2019 2019 2019 2019 2019 2019 2019 
2019 2019 2019 2019 2019 2019 2019 2019 2019 
2019 2019 2019 2019 2019 2019 2019 2019 2019 
2019 2019 2019 2019 2019 2019 2019 2019 2019 
2019 2019 2019 2019 2019 2019 2019 2019 2019 
2019 2019 2019 2019 2019 2019 2019 2019 2019 
2019 2019 2019 2019 2019 2019 2019 2019 2019 
2019 2019 2019 2019 2019 2019 2019 2019 2019 
2019 2019 2019 2019 2019 2019 2019 2019 2019 
2019 2019 2019 2019 2019 2019 2019 2019 2019 
2019 2019 2019 2019 2019 2019 2019 2019 2019 
2019 2019 2019 2019 2019 2019 2019 2019 2019 
2019 2019 2019 2019 2019 2019 2019 2019 2019 
2019 2019 2019 2019 2019 2019 2019 2019 2019 
2019 2019 2019 2019 2019 2019 2019 2019 2019 
2019 2019 2019 2019 2019 2019 2019 2019 2019 
2019 2019 2019 2019 2019 2019 2019 2019 2019 
2019 2019 2019 2019 2019 2019 2019 2019 2019 
2019 2019 2019 2019 2019 2019 2019 2019 2019 
2019 2019 2019 2019 2019 2019 2019 2019 2019 
2019 2019 2019 2019 2019 2019 2019 2019 2019 
2019 2019 2019 2019 2019 2019 2019 2019 2019 
2019 2019 2019 2019 2019 2019 2019 2019 2019 
2019 2019 2019 2019 2019 2019 2019 2019 2019 
2019 2019 2019 2019 2019 2019 2019 2019 2019 
2019 2019 2019 2019 2019 2019 2019 2019 2019 
2019 2019 2019 2019 2019 2019 2019 2019 2019 
2019 2019 2019 2019 2019 2019 2019 2019 2019 
2019 2019 2019 2019 2019 2019 2019 2019 2019 
2019 2019 2019 2019 2019 2019 2019 2019 2019 
2019 2019 2019 2019 2019 2019 2019 2019 2019 
2019 2019 2019 2019 2019 2019 2019 2019 2019 
2019 2019 2019 2019 2019 2019 2019 2019 2019 
2019 2019 2019 2019 2019 2019 2019 2019 2019 
2019 2019 2019 2019 2019 2019 2019 2019 2019 
2019 2019 2019 2019 2019 2019 2019 2019 2019 
2019 2019 2019 2019 2019 2019 2019 2019 2019 
2019 2019 2019 2019 2019 2019 2019 2019 2019 
2019 2019 2019 2019 2019 2019 2019 2019 2019 
2019 2019 2019 2019 2019 2019 2019 2019 2019 
2019 2019 2019 2019 2019 2019 2019 2019 2019 
2019 2019 2019 2019 2019 2019 2019 2019 2019 
2019 2019 2019 2019 2019 2019 2019 2019 2019 
2019 2019 2019 2019 2019 2019 2019 2019 2019 
2019 2019 2019 2019 2019 2019 2019 2019 2019 
2019 2019 2019 2019 2019 2019 2019 2019 2019 
2019 2019 2019 2019 2019 2019 2019 2019 2019 
2019 2019 2019 2019 2019 2019 2019 2019 2019 
2019 2019 2019 2019 2019 2019 2019 2019 2019 
2019 2019 2019 2019 2019 2019 2019 2019 2019 
2019 2019 2019 2019 2019 2019 2019 2019 2019 
2019 2019 2019 2019 2019 2019 2019 2019 2019 
2019 2019 2019 2019 2019 2019 2019 2019 2019 
2019 2019 2019 2019 2019 2019 2019 2019 2019 
2019 2019 2019 2019 2019 2019 2019 2019 2019 
2019 2019 2019 2019 2019 2019 2019 2019 2019 
2019 2019 2019 2019 2019 2019 2019 2019 2019 
2019 2019 2019 2019 2019 2019 2019 2019 2019 
2019 2019 2019 2019 2019 2019 2019 2019 2019 
2019 2019 2019 2019 2019 2019 2019 2019 2019 
2019 2019 2019 2019 2019 2019 2019 2019 2019 
2019 2019 2019 2019 2019 2019 2019 2019 2019 
2019 2019 2019 2019 2019 2019 2019 2019 2019 
2019 2019 2019 2019 2019 2019 2019 2019 2019 
2019 2019 2019 2019 2019 2019 2019 2019 2019 
2019 2019 2019 2019 2019 2019 2019 2019 2019 
2019 2019 2019 2019 2019 2019 2019 2019 2019 
2019 2019 2019 2019 2019 2019 2019 2019 2019 
2019 2019 2019 2019 2019 2019 2019 2019 2019 
2019 2019 2019 2019 2019 2019 2019 2019 2019 
2019 2019 2019 2019 2019 2019 2019 2019 2019 
2019 2019 2019 2019 2019 2019 2019 2019 2019 
2019 2019 2019 2019 2019 2019 2019 2019 2019 
2019 2019 2019 2019 2019 2019 2019 2019 2019 
2019 2019 2019 2019 2019 2019 2019 2019 2019 
2019 2019 2019 2019 2019 2019 2019 2019 2019 
2019 2019 2019 2019 2019 2019 2019 2019 2019 
2019 2019 2019 2019 2019 2019 2019 2019 2019 
2019 2019 2019 2019 2019 2019 2019 2019 2019 
2019 2019 2019 2019 2019 2019 2019 2019 2019 
2019 2019 2019 2019 2019 2019 2019 2019 2019 
2019 2019 2019 2019 2019 2019 2019 2019 2019 
2019 2019 2019 2019 2019 2019 2019 2019 2019 
2019 2019 2019 2019 2019 2019 2019 2019 2019 
2019 2019 2019 2019 2019 2019 2019 2019 2019 
2019 2019 2019 2019 2019 2019 2019 2019 2019 
2019 2019 2019 2019 2019 2019 2019 2019 2019 
2019 2019 2019 2019 2019 2019 2019 2019 2019 
2019 2019 2019 2019 2019 2019 2019 2019 2019 
2019 2019 2019 2019 2019 2019 2019 2019 2019 
2019 2019 2019 2019 2019 2019 2019 2019 2019 
2019 2019 2019 2019 2019 2019 2019 2019 2019 
2019 2019 2019 2019 2019 2019 2019 2019 2019 
2019 2019 2019 2019 2019 2019 2019 2019 2019 
2019 2019 2019 2019 2019 2019 2019 2019 2019 
2019 2019 2019 2019 2019 2019 2019 2019 2019 
2019 2019 2019 2019 2019 2019 2019 2019 2019 
2019 2019 2019 2019 2019 2019 2019 2019 2019 
2019 2019 2019 2019 2019 2019 2019 2019 2019 
2019 2019 2019 2019 2019 2019 2019 2019 2019 
2019 2019 2019 2019 2019 2019 2019 2019 2019 
2019 2019 2019 2019 2019 2019 2019 2019 2019 
2019 2019 2019 2019 2019 2019 2019 2019 2019 
2019 2019 2019 2019 2019 2019 2019 2019 2019 
2019 2019 2019 2019 2019 2019 2019 2019 2019 
2019 2019 2019 2019 2019 2019 2019 2019 2019 
2019 2019 2019 2019 2019 2019 2019 2019 2019 
2019 2019 2019 2019 2019 2019 2019 2019 2019 
2019 2019 2019 2019 2019 2019 2019 2019 2019 
2019 2019 2019 2019 2019 2019 2019 2019 2019 
2019 2019 2019 2019 2019 2019 2019 2019 2019 
2019 2019 2019 2019 2019 2019 2019 2019 2019 
2019 2019 2019 2019 2019 2019 2019 2019 2019 
2019 2019 2019 2019 2019 2019 2019 2019 2019 
2019 2019 2019 2019 2019 2019 2019 2019 2019 
2019 2019 2019 2019 2019 2019 2019 2019 2019 
2019 2019 2019 2019 2019 2019 2019 2019 2019 
2019 2019 2019 2019 2019 2019 2019 2019 2019 
2019 2019 2019 2019 2019 2019 2019 2019 2019 
2019 2019 2019 2019 2019 2019 2019 2019 2019 
2019 2019 2019 2019 2019 2019 2019 2019 2019 
2019 2019 2019 2019 2019 2019 2019 2019 2019 
2019 2019 2019 2019 2019 2019 2019 2019 2019 
2019 2019 2019 2019 2019 2019 2019 2019 2019 
2019 2019 2019 2019 2019 2019 2019 2019 2019 
2019 2019 2019 2019 2019 2019 2019 2019 2019 
2019 2019 2019 2019 2019 2019 2019 2019 2019 
2019 2019 2019 2019 2019 2019 2019 2019 2019 
2019 2019 2019 2019 2019 2019 2019 2019 2019 
2019 2019 2019 2019 2019 2019 2019 2019 2019 
2019 2019 2019 2019 2019 2019 2019 2019 2019 
2019 2019 2019 2019 2019 2019 2019 2019 2019 
2019 2019 2019 2019 2019 2019 2019 2019 2019 
2019 2019 2019 2019 2019 2019 2019 2019 2019 
2019 2019 2019 2019 2019 2019 2019 2019 2019 
2019 2019 2019 2019 2019 2019 2019 2019 2019 
2019 2019 2019 2019 2019 2019 2019 2019 2019 
2019 2019 2019 2019 2019 2019 2019 2019 2019 
2019 2019 2019 2019 2019 2019 2019 2019 2019 
2019 2019 2019 2019 2019 2019 2019 2019 2019 
2019 2019 2019 2019 2019 2019 2019 2019 2019 
2019 2019 2019 2019 2019 2019 2019 2019 2019 
2019 2019 2019 2019 2019 2019 2019 2019 2019 
2019 2019 2019 2019 2019 2019 2019 2019 2019 
2019 2019 2019 2019 2019 2019 2019 2019 2019 
2019 2019 2019 2019 2019 2019 2019 2019 2019 
2019 2019 2019 2019 2019 2019 2019 2019 2019 
2019 2019 2019 2019 2019 2019 2019 2019 2019 
2019 2019 2019 2019 2019 2019 2019 2019 2019 
2019 2019 2019 2019 2019 2019 2019 2019 2019 
2019 2019 2019 2019 2019 2019 2019 2019 2019 
2019 2019 2019 2019 2019 2019 2019 2019 2019 
2019 2019 2019 2019 2019 2019 2019 2019 2019 
2019 2019 2019 2019 2019 2019 2019 2019 2019 
2019 2019 2019 2019 2019 2019 2019 2019 2019 
2019 2019 2019 2019 2019 2019 2019 2019 2019 
2019 2019 2019 2019 2019 2019 2019 2019 2019 
2019 2019 2019 2019 2019 2019 2019 2019 2019 
2019 2019 2019 2019 2019 2019 2019 2019 2019 
2019 2019 2019 2019 2019 2019 2019 2019 2019 
2019 2019 2019 2019 2019 2019 2019 2019 2019 
2019 2019 2019 2019 2019 2019 2019 2019 2019 
2019 2019 2019 2019 2019 2019 2019 2019 2019 
2019 2019 2019 2019 2019 2019 2019 2019 2019 
2019 2019 2019 2019 2019 2019 2019 2019 2019 
2019 2019 2019 2019 2019 2019 2019 2019 2019 
2019 2019 2019 2019 2019 2019 2019 2019 2019 
2019 2019 2019 2019 2019 2019 2019 2019 2019 
2019 2019 2019 2019 2019 2019 2019 2019 2019 
2019 2019 2019 2019 2019 2019 2019 2019 2019 
2019 2019 2019 2019 2019 2019 2019 2019 2019 
2019 2019 2019 2019 2019 2019 2019 2019 2019 
2019 2019 2019 2019 2019 2019 2019 2019 2019 
2019 2019 2019 2019 2019 2019 2019 2019 2019 
2019 2019 2019 2019 2019 2019 2019 2019 2019 
2019 2019 2019 2019 2019 2019 2019 2019 2019 
2019 2019 2019 2019 2019 2019 2019 2019 2019 
2019 2019 2019 2019 2019 2019 2019 2019 2019 
2019 2019 2019 2019 2019 2019 2019 2019 2019 
2019 2019 2019 2019 2019 2019 2019 2019 2019 
2019 2019 2019 2019 2019 2019 2019 2019 2019 
2019 2019 2019 2019 2019 2019 2019 2019 2019 
2019 2019 2019 2019 2019 2019 2019 2019 2019 
2019 2019 2019 2019 2019 2019 2019 2019 2019 
2019 2019 2019 2019 2019 2019 2019 2019 2019 
2019 2019 2019 2019 2019 2019 2019 2019 2019 
2019 2019 2019 2019 2019 2019 2019 2019 2019 
2019 2019 2019 2019 2019 2019 2019 2019 2019 
2019 2019 2019 2019 2019 2019 2019 2019 2019 
2019 2019 2019 2019 2019 2019 2019 2019 2019 
2019 2019 2019 2019 2019 2019 2019 2019 2019 
2019 2019 2019 2019 2019 2019 2019 2019 2019 
2019 2019 2019 2019 2019 2019 2019 2019 2019 
2019 2019 2019 2019 2019 2019 2019 2019 2019 
2019 2019 2019 2019 2019 2019 2019 2019 2019 
2019 2019 2019 2019 2019 2019 2019 2019 2019 
2019 2019 2019 2019 2019 2019 2019 2019 2019 
2019 2019 2019 2019 2019 2019 2019 2019 2019 
2019 2019 2019 2019 2019 2019 2019 2019 2019 
2019 2019 2019 2019 2019 2019 2019 2019 2019 
2019 2019 2019 2019 2019 2019 2019 2019 2019 
2019 2019 2019 2019 2019 2019 2019 2019 2019 
2019 2019 2019 2019 2019 2019 2019 2019 2019 
2019 2019 2019 2019 2019 2019 2019 2019 2019 
2019 2019 2019 2019 2019 2019 2019 2019 2019 
2019 2019 2019 2019 2019 2019 2019 2019 2019 
2019 2019 2019 2019 2019 2019 2019 2019 2019 
2019 2019 2019 2019 2019 2019 2019 2019 2019 
2019 2019 2019 2019 2019 2019 2019 2019 2019 
2019 2019 2019 2019 2019 2019 2019 2019 2019 
2019 2019 2019 2019 2019 2019 2019 2019 2019 
2019 2019 2019 2019 2019 2019 2019 2019 2019 
2019 2019 2019 2019 2019 2019 2019 2019 2019 
2019 2019 2019 2019 2019 2019 2019 2019 2019 
2019 2019 2019 2019 2019 2019 2019 2019 2019 
2019 2019 2019 2019 2019 2019 2019 2019 2019 
2019 2019 2019 2019 2019 2019 2019 2019 2019 
2019 2019 2019 2019 2019 2019 2019 2019 2019 
2019 2019 2019 2019 2019 2019 2019 2019 2019 
2019 2019 2019 2019 2019 2019 2019 2019 2019 
2019 2019 2019 2019 2019 2019 2019 2019 2019 
2019 2019 2019 2019 2019 2019 2019 2019 2019 
2019 2019 2019 2019 2019 2019 2019 2019 2019 
2019 2019 2019 2019 2019 2019 2019 2019 2019 
2019 2019 2019 2019 2019 2019 2019 2019 2019 
2019 2019 2019 2019 2019 2019 2019 2019 2019 
2019 2019 2019 2019 2019 2019 2019 2019 2019 
2019 2019 2019 2019 2019 2019 2019 2019 2019 
2019 2019 2019 2019 2019 2019 2019 2019 2019 
2019 2019 2019 2019 2019 2019 2019 2019 2019 
2019 2019 2019 2019 2019 2019 2019 2019 2019 
2019 2019 2019 2019 2019 2019 2019 2019 2019 
2019 2019 2019 2019 2019 2019 2019 2019 2019 
2019 2019 2019 2019 2019 2019 2019 2019 2019 
2019 2019 2019 2019 2019 2019 2019 2019 2019 
2019 2019 2019 2019 2019 2019 2019 2019 2019 
2019 2019 2019 2019 2019 2019 2019 2019 2019 
2019 2019 2019 2019 2019 2019 2019 2019 2019 
2019 2019 2019 2019 2019 2019 2019 2019 2019 
2019 2019 2019 2019 2019 2019 2019 2019 2019 
2019 2019 2019 2019 2019 2019 2019 2019 2019 
2019 2019 2019 2019 2019 2019 2019 2019 2019 
2019 2019 2019 2019 2019 2019 2019 2019 2019 
2019 2019 2019 2019 2019 2019 2019 2019 2019 
2019 2019 2019 2019 2019 2019 2019 2019 2019 
2019 2019 2019 2019 2019 2019 2019 2019 2019 
2019 2019 2019 2019 2019 2019 2019 2019 2019 
2019 2019 2019 2019 2019 2019 2019 2019 2019 
2019 2019 2019 2019 2019 2019 2019 2019 2019 
2019 2019 2019 2019 2019 2019 2019 2019 2019 