# vtk DataFile Version 4.2
vtk output
ASCII
DATASET POLYDATA
POINTS 27858 float
2.98842 -17.7503 44.909 3.25492 -17.4459 44.6806 3.45927 -17.8539 44.7243 
2.45697 -17.8255 44.9064 2.79958 -17.4009 44.7208 2.32803 -17.5782 44.6845 
3.19628 -18.3289 44.9696 3.61851 -18.3216 44.7681 2.57114 -18.2785 45.0344 
2.06097 -17.9428 44.7668 2.05736 -18.3294 44.9111 1.765 -18.2552 44.6851 
7.82053 -18.9524 44.8995 8.08096 -18.6713 44.6859 8.2861 -19.0617 44.7311 
7.24991 -18.948 44.9376 7.58558 -18.5716 44.7269 6.64754 -18.9591 44.948 
6.98196 -18.5619 44.7362 6.04533 -18.9682 44.9528 6.36019 -18.5677 44.7393 
5.48526 -19.0505 44.9099 5.64407 -18.595 44.6118 5.23459 -18.8705 44.6504 
3.69053 -18.9079 44.925 3.82188 -18.5818 44.716 4.10461 -18.8949 44.7067 
3.10535 -18.9626 45.0333 2.5956 -18.887 45.0463 2.06136 -18.8875 44.9543 
1.66352 -18.7524 44.7252 7.9417 -19.4751 44.9547 8.34167 -19.6295 44.7416 
7.40983 -19.4593 45.0256 6.80991 -19.4732 45.0238 6.20944 -19.4736 45.0289 
5.61167 -19.4888 45.0294 5.05517 -19.122 44.7794 4.9654 -19.4977 44.9594 
4.24934 -19.4693 44.9409 4.59825 -19.1705 44.7259 3.70615 -19.5822 45.0114 
3.18629 -19.4903 45.0299 2.57567 -19.5082 45.0373 2.04859 -19.5086 44.9437 
1.65373 -19.3519 44.7321 7.94451 -20.0877 44.9565 8.32446 -20.2426 44.7294 
7.41736 -20.0718 45.0401 6.81569 -20.0836 45.0287 6.20938 -20.0833 45.0141 
5.61232 -20.0806 45.0182 5.01071 -20.0904 45.0182 4.39808 -20.1007 45.0118 
3.78761 -20.1095 45.0188 3.17963 -20.0999 45.0345 2.57432 -20.1115 45.0339 
2.04198 -20.1178 44.946 1.64774 -19.95 44.7238 7.93329 -20.6566 44.9062 
8.21275 -20.7629 44.6982 7.41069 -20.6852 45.027 6.78199 -20.718 45.0387 
6.16057 -20.7195 45.0229 5.56086 -20.714 45.0138 4.96555 -20.7138 45.0165 
4.36815 -20.7246 45.0228 3.76926 -20.7263 45.0293 3.16669 -20.7159 45.0326 
2.65888 -20.629 45.0334 2.16112 -20.76 44.9275 1.6965 -20.5304 44.7312 
7.90625 -21.0672 44.7762 7.64021 -21.4256 44.6963 7.49571 -21.1554 44.9043 
6.83232 -21.3211 44.9729 6.16944 -21.3323 45.04 5.56345 -21.343 45.0412 
4.96742 -21.34 45.0348 4.37062 -21.3466 45.0371 3.76867 -21.3454 45.0403 
3.25297 -21.2473 45.0373 2.67896 -21.3157 44.9452 2.18726 -21.3701 44.6278 
1.85876 -20.9845 44.7 7.18646 -21.6012 44.7371 6.72994 -21.7446 44.7931 
6.5417 -21.9905 44.6558 6.30027 -21.7857 44.9246 5.73662 -21.8578 44.9716 
5.13801 -21.8722 44.9746 4.54311 -21.8735 44.9703 3.93678 -21.8806 44.9717 
3.26548 -21.8156 44.9449 2.81513 -21.8738 44.782 2.52423 -21.7107 44.6485 
6.09073 -22.1337 44.6076 5.43741 -22.1688 44.6784 4.83313 -22.1716 44.6749 
4.23468 -22.1785 44.6743 3.62249 -22.1843 44.6621 3.05807 -22.1434 44.5761 
7.22912 -23.7205 44.9359 7.35827 -23.4749 44.5617 7.60167 -23.8104 44.7607 
6.65719 -23.7345 44.9896 6.82944 -23.4191 44.6764 6.08529 -23.8211 44.9354 
6.25034 -23.4684 44.6678 5.83456 -23.6094 44.6624 7.35703 -24.2689 44.9764 
7.74261 -24.3447 44.6917 6.81856 -24.2566 45.0748 6.19754 -24.2909 45.057 
5.6777 -23.9182 44.792 5.68045 -24.3231 44.9249 5.38961 -24.2321 44.7035 
7.34848 -24.8536 44.9246 7.67157 -24.8261 44.7399 6.80446 -24.8903 45.0654 
6.19285 -24.9117 45.0663 5.66245 -24.8992 44.957 5.29489 -24.7488 44.7281 
7.47706 -25.188 44.6778 7.14578 -25.6783 44.7208 6.83753 -25.476 44.9782 
6.17738 -25.5373 45.0616 5.64931 -25.5198 44.9618 5.27646 -25.353 44.735 
6.78162 -25.96 44.8908 6.96886 -26.1197 44.6778 6.24242 -26.1106 44.9794 
5.663 -26.1224 44.9513 5.28131 -25.9637 44.7339 9.18241 -26.6903 44.8478 
9.34324 -26.5588 44.6239 9.3491 -26.681 44.8031 9.10199 -26.7271 44.5916 
6.56281 -26.3623 44.7484 6.10531 -26.5319 44.8012 5.81943 -26.8371 44.6866 
5.72119 -26.5838 44.8672 5.27037 -26.6465 44.5961 9.32585 -26.8553 44.6739 
8.52565 -27.1166 44.574 8.84453 -27.4796 44.7584 8.44145 -27.3039 44.8856 
8.14043 -27.4097 44.872 8.12399 -27.1167 44.7182 7.77144 -27.1657 44.6021 
5.52853 -26.9698 44.6151 8.50947 -27.9217 44.9517 9.02341 -27.9382 44.819 
8.144 -27.7779 44.7938 7.88359 -27.5237 44.6875 9.00645 -28.4569 44.919 
9.36109 -28.2109 44.6233 9.38993 -28.6883 44.5679 8.48908 -28.6125 45.0532 
8.08648 -28.1438 44.7892 8.07952 -28.5515 44.9262 7.78979 -28.4633 44.6782 
9.13013 -28.8882 44.8013 8.94707 -29.1375 44.7682 8.72528 -28.9724 44.9453 
8.18457 -29.0411 44.9302 7.72644 -28.9278 44.7265 8.60358 -29.3845 44.6637 
7.93074 -29.3407 44.7042 3.0873 -16.0066 44.3101 3.27221 -15.6626 44.0839 
3.55382 -15.969 44.1679 2.47364 -16.0224 44.2875 2.79968 -15.6051 44.1062 
2.34368 -15.7701 44.0723 3.60951 -16.4477 44.3218 3.90991 -16.2288 44.0978 
4.07677 -16.6781 44.1131 3.09634 -16.5474 44.43 2.57141 -16.4774 44.4189 
2.06725 -16.1275 44.1507 1.9455 -16.5532 44.311 1.71355 -16.3972 44.0843 
3.80559 -16.9769 44.3156 4.09866 -17.2625 44.0088 3.28734 -17.0388 44.4949 
2.57366 -17.0931 44.5093 1.9758 -17.0985 44.4215 1.45663 -16.7598 44.1602 
1.45268 -17.1463 44.2906 1.15277 -17.0734 44.079 7.91246 -17.8168 44.3474 
8.11333 -17.4156 44.0417 8.33764 -17.7688 44.1259 7.23399 -17.7646 44.3531 
7.47691 -17.3683 44.0814 6.6478 -17.8257 44.302 6.84413 -17.4964 44.0527 
6.43091 -17.6348 44.0196 3.69711 -17.5032 44.4086 3.98611 -17.8078 44.0999 
1.90497 -17.7299 44.5305 1.44201 -17.7127 44.3395 1.072 -17.5766 44.1026 
8.44863 -18.1568 44.3151 8.61186 -18.019 43.9337 8.77525 -18.408 44.1297 
8.02544 -18.3351 44.5184 7.41801 -18.1927 44.5263 6.7975 -18.1867 44.5231 
6.11926 -17.8953 44.0923 6.11573 -18.2054 44.4374 5.63088 -18.2947 44.3623 
5.71105 -18.1269 44.1453 5.34083 -18.3539 44.0328 3.87269 -18.2578 44.4709 
4.15459 -18.287 44.0495 1.33019 -18.4061 44.4196 1.02919 -18.1341 44.1045 
8.52847 -18.6951 44.4373 8.95686 -18.9433 44.0583 4.8009 -18.9265 44.4741 
5.05141 -18.6688 44.2481 4.31642 -18.7691 44.4027 4.55169 -18.6051 43.9992 
1.29273 -19.0754 44.5123 0.740131 -18.5361 44.0152 0.852173 -18.9497 44.2942 
0.459164 -18.9214 44.0388 8.65043 -19.3157 44.4319 8.94524 -19.6576 44.0127 
1.36117 -19.6117 44.5259 0.973819 -19.5363 44.3216 0.462332 -19.4432 44.0115 
8.64092 -19.9291 44.4375 8.8195 -20.1942 44.128 1.29506 -20.1731 44.4277 
0.963611 -20.0558 44.1614 0.722571 -19.8364 44.0414 8.54135 -20.6298 44.4415 
8.8242 -20.7067 44.0569 1.4672 -20.8979 44.438 1.05484 -20.6678 44.073 
8.52805 -21.2673 44.3287 8.86749 -21.1711 44.0403 8.07144 -21.2981 44.5508 
1.81347 -21.2543 44.4806 1.52399 -21.3399 44.2804 1.22694 -21.1931 44.1302 
8.67981 -21.6323 44.0865 8.36347 -22.0123 44.0722 8.1346 -21.7931 44.3389 
7.56516 -21.8361 44.4426 6.97838 -21.9479 44.4916 2.67841 -22.0015 44.4796 
2.37019 -21.8249 44.2514 1.87908 -21.5909 44.0581 1.38605 -21.4726 43.9838 
7.89641 -22.1444 44.0087 7.25255 -22.1533 44.0631 6.63397 -22.1689 44.1679 
6.11342 -22.229 44.0436 5.60784 -22.2375 44.1407 5.00251 -22.2393 44.1451 
4.39919 -22.2378 44.1346 3.79103 -22.2483 44.1339 3.18095 -22.2398 44.1069 
2.68056 -22.115 44.0855 7.43701 -23.431 43.9591 7.78688 -23.7594 44.3379 
6.92674 -23.3459 44.2337 6.29472 -23.2887 44.0708 5.37526 -23.7689 44.471 
5.61555 -23.4078 44.174 4.95565 -23.7976 44.2746 4.99806 -23.4716 44.0417 
4.65823 -23.6502 44.0126 8.00811 -24.2144 44.335 8.08187 -23.9044 44.0402 
8.19837 -24.3143 44.0128 5.04793 -24.3533 44.4349 4.66986 -24.1189 44.1171 
7.93728 -24.7439 44.4186 8.19642 -24.9421 43.9083 4.89142 -25.0835 44.4244 
4.65832 -24.7138 44.1191 7.84328 -25.2243 44.2252 7.49066 -25.489 44.419 
7.72373 -25.6854 44.0923 4.91616 -25.6756 44.5231 4.3744 -25.1385 44.0012 
4.36552 -25.5822 44.3034 4.05827 -25.4589 43.9929 7.30586 -26.0317 44.395 
7.66171 -26.258 44.0562 4.92647 -26.2541 44.5012 4.41757 -26.1002 44.4338 
3.77027 -25.7269 43.9927 3.7773 -26.1573 44.3186 3.45679 -26.0538 44.0344 
9.6375 -26.7003 44.4838 9.76188 -26.5058 44.0801 9.92287 -26.7549 43.979 
9.31666 -26.3948 44.1039 8.91257 -26.7072 44.1644 7.40278 -26.7793 44.3283 
7.71804 -26.6507 44.07 6.81273 -26.6468 44.4784 6.21467 -26.7977 44.5575 
4.92402 -26.6395 44.3903 4.46133 -26.6667 44.3368 3.80511 -26.6772 44.427 
3.29512 -26.3667 44.1676 3.16359 -26.7722 44.3448 2.9402 -26.6175 44.1061 
9.65652 -26.9956 44.2299 9.14856 -27.2034 44.4455 9.638 -27.3442 44.0407 
8.61303 -26.957 44.2119 8.02946 -26.9015 44.2471 7.49995 -27.4108 44.4775 
6.98245 -27.3248 44.3132 6.36934 -27.2134 44.3136 5.78345 -27.2134 44.3657 
5.309 -27.2018 44.2443 4.83969 -26.9919 44.1513 4.3247 -27.0593 44.1169 
4.11309 -27.4547 44.0777 3.81652 -27.234 44.3427 3.17823 -27.2823 44.4512 
2.62434 -26.9097 44.188 2.58207 -27.2383 44.3599 2.13281 -27.4358 44.2768 
2.0406 -26.996 44.0282 1.71968 -27.2527 44.0447 9.63989 -27.8772 44.291 
9.8314 -27.6343 43.8898 9.95994 -27.9611 43.9547 9.22474 -27.754 44.6132 
7.78021 -27.9656 44.5627 7.3315 -27.8965 44.3079 7.02173 -27.8413 44.1053 
6.61186 -27.6524 44.0645 6.03147 -27.604 44.0488 5.53326 -27.5302 44.0191 
3.75701 -27.9412 44.3567 4.15675 -27.9223 44.1232 3.16953 -27.8708 44.4495 
2.57238 -27.8221 44.3769 2.16877 -27.8316 44.1984 1.86787 -27.5425 44.1144 
9.86491 -28.1651 44.0503 9.6491 -28.4242 44.1379 7.3583 -28.5939 44.3945 
7.07469 -28.2975 44.0642 4.2415 -28.5379 44.3438 4.45581 -28.2245 44.0377 
4.70526 -28.6026 44.1473 3.67772 -28.5935 44.4559 3.15843 -28.492 44.4719 
2.51384 -28.5383 44.3726 2.17265 -28.5034 44.0032 9.19629 -29.1123 44.5311 
9.41706 -28.9288 44.0447 7.38179 -29.3192 44.5127 6.8584 -28.6962 44.1138 
6.70195 -29.122 44.3467 6.00133 -29.1977 44.3454 6.34885 -28.8006 44.0749 
5.40816 -29.2104 44.3638 5.74523 -28.8119 44.0844 4.79748 -29.0915 44.3848 
5.16591 -28.7737 44.1065 4.37607 -29.1136 44.46 3.945 -29.1572 44.3927 
3.23204 -29.1276 44.3934 2.66117 -29.0289 44.4519 2.03006 -28.889 44.154 
2.12756 -29.203 44.2845 1.85256 -29.1481 44.1134 9.09244 -29.3953 44.2322 
8.68627 -29.7083 44.3232 8.87253 -29.6733 43.8852 7.99511 -29.7634 44.4363 
7.29543 -29.8697 44.4553 6.76053 -29.7384 44.4506 6.24239 -29.6112 44.4501 
5.71561 -29.7607 44.3901 5.10222 -29.6557 44.3811 4.47789 -29.5971 44.3575 
4.06871 -29.6518 44.1467 3.64715 -29.4485 44 3.06625 -29.4989 44.0434 
2.72863 -29.7383 44.0235 2.62488 -29.5666 44.2944 2.22868 -29.6043 44.1119 
[...]
CELL_DATA 55792
SCALARS scalars float
LOOKUP_TABLE default
2028 2028 2028 2028 2028 2028 2028 2028 2028 
2028 2028 2028 2028 2028 2028 2028 2028 2028 
2028 2028 2028 2028 2028 2028 2028 2028 2028 
2028 2028 2028 2028 2028 2028 2028 2028 2028 
2028 2028 2028 2028 2028 2028 2028 2028 2028 
2028 2028 2028 2028 2028 2028 2028 2028 2028 
2028 2028 2028 2028 2028 2028 2028 2028 2028 
2028 2028 2028 2028 2028 2028 2028 2028 2028 
2028 2028 2028 2028 2028 2028 2028 2028 2028 
2028 2028 2028 2028 2028 2028 2028 2028 2028 
2028 2028 2028 2028 2028 2028 2028 2028 2028 
2028 2028 2028 2028 2028 2028 2028 2028 2028 
2028 2028 2028 2028 2028 2028 2028 2028 2028 
2028 2028 2028 2028 2028 2028 2028 2028 2028 
2028 2028 2028 2028 2028 2028 2028 2028 2028 
2028 2028 2028 2028 2028 2028 2028 2028 2028 
2028 2028 2028 2028 2028 2028 2028 2028 2028 
2028 2028 2028 2028 2028 2028 2028 2028 2028 
2028 2028 2028 2028 2028 2028 2028 2028 2028 
2028 2028 2028 2028 2028 2028 2028 2028 2028 
2028 2028 2028 2028 2028 2028 2028 2028 2028 
2028 2028 2028 2028 2028 2028 2028 2028 2028 
2028 2028 2028 2028 2028 2028 2028 2028 2028 
2028 2028 2028 2028 2028 2028 2028 2028 2028 
2028 2028 2028 2028 2028 2028 2028 2028 2028 
2028 2028 2028 2028 2028 2028 2028 2028 2028 
2028 2028 2028 2028 2028 2028 2028 2028 2028 
2028 2028 2028 2028 2028 2028 2028 2028 2028 
2028 2028 2028 2028 2028 2028 2028 2028 2028 
2028 2028 2028 2028 2028 2028 2028 2028 2028 
2028 2028 2028 2028 2028 2028 2028 2028 2028 
2028 2028 2028 2028 2028 2028 2028 2028 2028 
2028 2028 2028 2028 2028 2028 2028 2028 2028 
2028 2028 2028 2028 2028 2028 2028 2028 2028 
2028 2028 2028 2028 2028 2028 2028 2028 2028 
2028 2028 2028 2028 2028 2028 2028 2028 2028 
2028 2028 2028 2028 2028 2028 2028 2028 2028 
2028 2028 2028 2028 2028 2028 2028 2028 2028 
2028 2028 2028 2028 2028 2028 2028 2028 2028 
2028 2028 2028 2028 2028 2028 2028 2028 2028 
2028 2028 2028 2028 2028 2028 2028 2028 2028 
2028 2028 2028 2028 2028 2028 2028 2028 2028 
2028 2028 2028 2028 2028 2028 2028 2028 2028 
2028 2028 2028 2028 2028 2028 2028 2028 2028 
2028 2028 2028 2028 2028 2028 2028 2028 2028 
2028 2028 2028 2028 2028 2028 2028 2028 2028 
2028 2028 2028 2028 2028 2028 2028 2028 2028 
2028 2028 2028 2028 2028 2028 2028 2028 2028 
2028 2028 2028 2028 2028 2028 2028 2028 2028 
2028 2028 2028 2028 2028 2028 2028 2028 2028 
2028 2028 2028 2028 2028 2028 2028 2028 2028 
2028 2028 2028 2028 2028 2028 2028 2028 2028 
2028 2028 2028 2028 2028 2028 2028 2028 2028 
2028 2028 2028 2028 2028 2028 2028 2028 2028 
2028 2028 2028 2028 2028 2028 2028 2028 2028 
2028 2028 2028 2028 2028 2028 2028 2028 2028 
2028 2028 2028 2028 2028 2028 2028 2028 2028 
2028 2028 2028 2028 2028 2028 2028 2028 2028 
2028 2028 2028 2028 2028 2028 2028 2028 2028 
2028 2028 2028 2028 2028 2028 2028 2028 2028 
2028 2028 2028 2028 2028 2028 2028 2028 2028 
2028 2028 2028 2028 2028 2028 2028 2028 2028 
2028 2028 2028 2028 2028 2028 2028 2028 2028 
2028 2028 2028 2028 2028 2028 2028 2028 2028 
2028 2028 2028 2028 2028 2028 2028 2028 2028 
2028 2028 2028 2028 2028 2028 2028 2028 2028 
2028 2028 2028 2028 2028 2028 2028 2028 2028 
2028 2028 2028 2028 2028 2028 2028 2028 2028 
2028 2028 2028 2028 2028 2028 2028 2028 2028 
2028 2028 2028 2028 2028 2028 2028 2028 2028 
2028 2028 2028 2028 2028 2028 2028 2028 2028 
2028 2028 2028 2028 2028 2028 2028 2028 2028 
2028 2028 2028 2028 2028 2028 2028 2028 2028 
2028 2028 2028 2028 2028 2028 2028 2028 2028 
2028 2028 2028 2028 2028 2028 2028 2028 2028 
2028 2028 2028 2028 2028 2028 2028 2028 2028 
2028 2028 2028 2028 2028 2028 2028 2028 2028 
2028 2028 2028 2028 2028 2028 2028 2028 2028 
2028 2028 2028 2028 2028 2028 2028 2028 2028 
2028 2028 2028 2028 2028 2028 2028 2028 2028 
2028 2028 2028 2028 2028 2028 2028 2028 2028 
2028 2028 2028 2028 2028 2028 2028 2028 2028 
2028 2028 2028 2028 2028 2028 2028 2028 2028 
2028 2028 2028 2028 2028 2028 2028 2028 2028 
2028 2028 2028 2028 2028 2028 2028 2028 2028 
2028 2028 2028 2028 2028 2028 2028 2028 2028 
2028 2028 2028 2028 2028 2028 2028 2028 2028 
2028 2028 2028 2028 2028 2028 2028 2028 2028 
2028 2028 2028 2028 2028 2028 2028 2028 2028 
2028 2028 2028 2028 2028 2028 2028 2028 2028 
2028 2028 2028 2028 2028 2028 2028 2028 2028 
2028 2028 2028 2028 2028 2028 2028 2028 2028 
2028 2028 2028 2028 2028 2028 2028 2028 2028 
2028 2028 2028 2028 2028 2028 2028 2028 2028 
2028 2028 2028 2028 2028 2028 2028 2028 2028 
2028 2028 2028 2028 2028 2028 2028 2028 2028 
2028 2028 2028 2028 2028 2028 2028 2028 2028 
2028 2028 2028 2028 2028 2028 2028 2028 2028 
2028 2028 2028 2028 2028 2028 2028 2028 2028 
2028 2028 2028 2028 2028 2028 2028 2028 2028 
2028 2028 2028 2028 2028 2028 2028 2028 2028 
2028 2028 2028 2028 2028 2028 2028 2028 2028 
2028 2028 2028 2028 2028 2028 2028 2028 2028 
2028 2028 2028 2028 2028 2028 2028 2028 2028 
2028 2028 2028 2028 2028 2028 2028 2028 2028 
2028 2028 2028 2028 2028 2028 2028 2028 2028 
2028 2028 2028 2028 2028 2028 2028 2028 2028 
2028 2028 2028 2028 2028 2028 2028 2028 2028 
2028 2028 2028 2028 2028 2028 2028 2028 2028 
2028 2028 2028 2028 2028 2028 2028 2028 2028 
2028 2028 2028 2028 2028 2028 2028 2028 2028 
2028 2028 2028 2028 2028 2028 2028 2028 2028 
2028 2028 2028 2028 2028 2028 2028 2028 2028 
2028 2028 2028 2028 2028 2028 2028 2028 2028 
2028 2028 2028 2028 2028 2028 2028 2028 2028 
2028 2028 2028 2028 2028 2028 2028 2028 2028 
2028 2028 2028 2028 2028 2028 2028 2028 2028 
2028 2028 2028 2028 2028 2028 2028 2028 2028 
2028 2028 2028 2028 2028 2028 2028 2028 2028 
2028 2028 2028 2028 2028 2028 2028 2028 2028 
2028 2028 2028 2028 2028 2028 2028 2028 2028 
2028 2028 2028 2028 2028 2028 2028 2028 2028 
2028 2028 2028 2028 2028 2028 2028 2028 2028 
2028 2028 2028 2028 2028 2028 2028 2028 2028 
2028 2028 2028 2028 2028 2028 2028 2028 2028 
2028 2028 2028 2028 2028 2028 2028 2028 2028 
2028 2028 2028 2028 2028 2028 2028 2028 2028 
2028 2028 2028 2028 2028 2028 2028 2028 2028 
2028 2028 2028 2028 2028 2028 2028 2028 2028 
2028 2028 2028 2028 2028 2028 2028 2028 2028 
2028 2028 2028 2028 2028 2028 2028 2028 2028 
2028 2028 2028 2028 2028 2028 2028 2028 2028 
2028 2028 2028 2028 2028 2028 2028 2028 2028 
2028 2028 2028 2028 2028 2028 2028 2028 2028 
2028 2028 2028 2028 2028 2028 2028 2028 2028 
2028 2028 2028 2028 2028 2028 2028 2028 2028 
2028 2028 2028 2028 2028 2028 2028 2028 2028 
2028 2028 2028 2028 2028 2028 2028 2028 2028 
2028 2028 2028 2028 2028 2028 2028 2028 2028 
2028 2028 2028 2028 2028 2028 2028 2028 2028 
2028 2028 2028 2028 2028 2028 2028 2028 2028 
2028 2028 2028 2028 2028 2028 2028 2028 2028 
2028 2028 2028 2028 2028 2028 2028 2028 2028 
2028 2028 2028 2028 2028 2028 2028 2028 2028 
2028 2028 2028 2028 2028 2028 2028 2028 2028 
2028 2028 2028 2028 2028 2028 2028 2028 2028 
2028 2028 2028 2028 2028 2028 2028 2028 2028 
2028 2028 2028 2028 2028 2028 2028 2028 2028 
2028 2028 2028 2028 2028 2028 2028 2028 2028 
2028 2028 2028 2028 2028 2028 2028 2028 2028 
2028 2028 2028 2028 2028 2028 2028 2028 2028 
2028 2028 2028 2028 2028 2028 2028 2028 2028 
2028 2028 2028 2028 2028 2028 2028 2028 2028 
2028 2028 2028 2028 2028 2028 2028 2028 2028 
2028 2028 2028 2028 2028 2028 2028 2028 2028 
2028 2028 2028 2028 2028 2028 2028 2028 2028 
2028 2028 2028 2028 2028 2028 2028 2028 2028 
2028 2028 2028 2028 2028 2028 2028 2028 2028 
2028 2028 2028 2028 2028 2028 2028 2028 2028 
2028 2028 2028 2028 2028 2028 2028 2028 2028 
2028 2028 2028 2028 2028 2028 2028 2028 2028 
2028 2028 2028 2028 2028 2028 2028 2028 2028 
2028 2028 2028 2028 2028 2028 2028 2028 2028 
2028 2028 2028 2028 2028 2028 2028 2028 2028 
2028 2028 2028 2028 2028 2028 2028 2028 2028 
2028 2028 2028 2028 2028 2028 2028 2028 2028 
2028 2028 2028 2028 2028 2028 2028 2028 2028 
2028 2028 2028 2028 2028 2028 2028 2028 2028 
2028 2028 2028 2028 2028 2028 2028 2028 2028 
2028 2028 2028 2028 2028 2028 2028 2028 2028 
2028 2028 2028 2028 2028 2028 2028 2028 2028 
2028 2028 2028 2028 2028 2028 2028 2028 2028 
2028 2028 2028 2028 2028 2028 2028 2028 2028 
2028 2028 2028 2028 2028 2028 2028 2028 2028 
2028 2028 2028 2028 2028 2028 2028 2028 2028 
2028 2028 2028 2028 2028 2028 2028 2028 2028 
2028 2028 2028 2028 2028 2028 2028 2028 2028 
2028 2028 2028 2028 2028 2028 2028 2028 2028 
2028 2028 2028 2028 2028 2028 2028 2028 2028 
2028 2028 2028 2028 2028 2028 2028 2028 2028 
2028 2028 2028 2028 2028 2028 2028 2028 2028 
2028 2028 2028 2028 2028 2028 2028 2028 2028 
2028 2028 2028 2028 2028 2028 2028 2028 2028 
2028 2028 2028 2028 2028 2028 2028 2028 2028 
2028 2028 2028 2028 2028 2028 2028 2028 2028 
2028 2028 2028 2028 2028 2028 2028 2028 2028 
2028 2028 2028 2028 2028 2028 2028 2028 2028 
2028 2028 2028 2028 2028 2028 2028 2028 2028 
2028 2028 2028 2028 2028 2028 2028 2028 2028 
2028 2028 2028 2028 2028 2028 2028 2028 2028 
2028 2028 2028 2028 2028 2028 2028 2028 2028 
2028 2028 2028 2028 2028 2028 2028 2028 2028 
2028 2028 2028 2028 2028 2028 2028 2028 2028 
2028 2028 2028 2028 2028 2028 2028 2028 2028 
2028 2028 2028 2028 2028 2028 2028 2028 2028 
2028 2028 2028 2028 2028 2028 2028 2028 2028 
2028 2028 2028 2028 2028 2028 2028 2028 2028 
2028 2028 2028 2028 2028 2028 2028 2028 2028 
2028 2028 2028 2028 2028 2028 2028 2028 2028 
2028 2028 2028 2028 2028 2028 2028 2028 2028 
2028 2028 2028 2028 2028 2028 2028 2028 2028 
2028 2028 2028 2028 2028 2028 2028 2028 2028 
2028 2028 2028 2028 2028 2028 2028 2028 2028 
2028 2028 2028 2028 2028 2028 2028 2028 2028 
2028 2028 2028 2028 2028 2028 2028 2028 2028 
2028 2028 2028 2028 2028 2028 2028 2028 2028 
2028 2028 2028 2028 2028 2028 2028 2028 2028 
2028 2028 2028 2028 2028 2028 2028 2028 2028 
2028 2028 2028 2028 2028 2028 2028 2028 2028 
2028 2028 2028 2028 2028 2028 2028 2028 2028 
2028 2028 2028 2028 2028 2028 2028 2028 2028 
2028 2028 2028 2028 2028 2028 2028 2028 2028 
2028 2028 2028 2028 2028 2028 2028 2028 2028 
2028 2028 2028 2028 2028 2028 2028 2028 2028 
2028 2028 2028 2028 2028 2028 2028 2028 2028 
2028 2028 2028 2028 2028 2028 2028 2028 2028 
2028 2028 2028 2028 2028 2028 2028 2028 2028 
2028 2028 2028 2028 2028 2028 2028 2028 2028 
2028 2028 2028 2028 2028 2028 2028 2028 2028 
2028 2028 2028 2028 2028 2028 2028 2028 2028 
2028 2028 2028 2028 2028 2028 2028 2028 2028 
2028 2028 2028 2028 2028 2028 2028 2028 2028 
2028 2028 2028 2028 2028 2028 2028 2028 2028 
2028 2028 2028 2028 2028 2028 2028 2028 2028 
2028 2028 2028 2028 2028 2028 2028 2028 2028 
2028 2028 2028 2028 2028 2028 2028 2028 2028 
2028 2028 2028 2028 2028 2028 2028 2028 2028 
2028 2028 2028 2028 2028 2028 2028 2028 2028 
2028 2028 2028 2028 2028 2028 2028 2028 2028 
2028 2028 2028 2028 2028 2028 2028 2028 2028 
2028 2028 2028 2028 2028 2028 2028 2028 2028 
2028 2028 2028 2028 2028 2028 2028 2028 2028 
2028 2028 2028 2028 2028 2028 2028 2028 2028 
2028 2028 2028 2028 2028 2028 2028 2028 2028 
2028 2028 2028 2028 2028 2028 2028 2028 2028 
2028 2028 2028 2028 2028 2028 2028 2028 2028 
2028 2028 2028 2028 2028 2028 2028 2028 2028 
2028 2028 2028 2028 2028 2028 2028 2028 2028 
2028 2028 2028 2028 2028 2028 2028 2028 2028 
2028 2028 2028 2028 2028 2028 2028 2028 2028 
2028 2028 2028 2028 2028 2028 2028 2028 2028 
2028 2028 2028 2028 2028 2028 2028 2028 2028 
2028 2028 2028 2028 2028 2028 2028 2028 2028 
2028 2028 2028 2028 2028 2028 2028 2028 2028 
2028 2028 2028 2028 2028 2028 2028 2028 2028 
2028 2028 2028 2028 2028 2028 2028 2028 2028 
2028 2028 2028 2028 2028 2028 2028 2028 2028 
2028 2028 2028 2028 2028 2028 2028 2028 2028 
2028 2028 2028 2028 2028 2028 2028 2028 2028 
2028 2028 2028 2028 2028 2028 2028 2028 2028 
2028 2028 2028 2028 2028 2028 2028 2028 2028 
2028 2028 2028 2028 2028 2028 2028 2028 2028 
2028 2028 2028 2028 2028 2028 2028 2028 2028 
2028 2028 2028 2028 2028 2028 2028 2028 2028 
2028 2028 2028 2028 2028 2028 2028 2028 2028 
2028 2028 2028 2028 2028 2028 2028 2028 2028 
2028 2028 2028 2028 2028 2028 2028 2028 2028 
2028 2028 2028 2028 2028 2028 2028 2028 2028 
2028 2028 2028 2028 2028 2028 2028 2028 2028 
2028 2028 2028 2028 2028 2028 2028 2028 2028 
2028 2028 2028 2028 2028 2028 2028 2028 2028 
2028 2028 2028 2028 2028 2028 2028 2028 2028 
2028 2028 2028 2028 2028 2028 2028 2028 2028 
2028 2028 2028 2028 2028 2028 2028 2028 2028 
2028 2028 2028 2028 2028 2028 2028 2028 2028 
2028 2028 2028 2028 2028 2028 2028 2028 2028 
2028 2028 2028 2028 2028 2028 2028 2028 2028 
2028 2028 2028 2028 2028 2028 2028 2028 2028 
2028 2028 2028 2028 2028 2028 2028 2028 2028 
2028 2028 2028 2028 2028 2028 2028 2028 2028 
2028 2028 2028 2028 2028 2028 2028 2028 2028 
2028 2028 2028 2028 2028 2028 2028 2028 2028 
2028 2028 2028 2028 2028 2028 2028 2028 2028 
2028 2028 2028 2028 2028 2028 2028 2028 2028 
2028 2028 2028 2028 2028 2028 2028 2028 2028 
2028 2028 2028 2028 2028 2028 2028 2028 2028 
2028 2028 2028 2028 2028 2028 2028 2028 2028 
2028 2028 2028 2028 2028 2028 2028 2028 2028 
2028 2028 2028 2028 2028 2028 2028 2028 2028 
2028 2028 2028 2028 2028 2028 2028 2028 2028 
2028 2028 2028 2028 2028 2028 2028 2028 2028 
2028 2028 2028 2028 2028 2028 2028 2028 2028 
2028 2028 2028 2028 2028 2028 2028 2028 2028 
2028 2028 2028 2028 2028 2028 2028 2028 2028 
2028 2028 2028 2028 2028 2028 2028 2028 2028 
2028 2028 2028 2028 2028 2028 2028 2028 2028 
2028 2028 2028 2028 2028 2028 2028 2028 2028 
2028 2028 2028 2028 2028 2028 2028 2028 2028 
2028 2028 2028 2028 2028 2028 2028 2028 2028 
2028 2028 2028 2028 2028 2028 2028 2028 2028 
2028 2028 2028 2028 2028 2028 2028 2028 2028 
2028 2028 2028 2028 2028 2028 2028 2028 2028 
2028 2028 2028 2028 2028 2028 2028 2028 2028 
2028 2028 2028 2028 2028 2028 2028 2028 2028 
2028 2028 2028 2028 2028 2028 2028 2028 2028 
2028 2028 2028 2028 2028 2028 2028 2028 2028 
2028 2028 2028 2028 2028 2028 2028 2028 2028 
2028 2028 2028 2028 2028 2028 2028 2028 2028 
2028 2028 2028 2028 2028 2028 2028 2028 2028 
2028 2028 2028 2028 2028 2028 2028 2028 2028 
2028 2028 2028 2028 2028 2028 2028 2028 2028 
2028 2028 2028 2028 2028 2028 2028 2028 2028 
2028 2028 2028 2028 2028 2028 2028 2028 2028 
2028 2028 2028 2028 2028 2028 2028 2028 2028 
2028 2028 2028 2028 2028 2028 2028 2028 2028 
2028 2028 2028 2028 2028 2028 2028 2028 2028 
2028 2028 2028 2028 2028 2028 2028 2028 2028 
2028 2028 2028 2028 2028 2028 2028 2028 2028 
2028 2028 2028 2028 2028 2028 2028 2028 2028 
2028 2028 2028 2028 2028 2028 2028 2028 2028 
2028 2028 2028 2028 2028 2028 2028 2028 2028 
2028 2028 2028 2028 2028 2028 2028 2028 2028 
2028 2028 2028 2028 2028 2028 2028 2028 2028 
2028 2028 2028 2028 2028 2028 2028 2028 2028 
2028 2028 2028 2028 2028 2028 2028 2028 2028 
2028 2028 2028 2028 2028 2028 2028 2028 2028 
2028 2028 2028 2028 2028 2028 2028 2028 2028 
2028 2028 2028 2028 2028 2028 2028 2028 2028 
2028 2028 2028 2028 2028 2028 2028 2028 2028 
2028 2028 2028 2028 2028 2028 2028 2028 2028 
2028 2028 2028 2028 2028 2028 2028 2028 2028 
2028 2028 2028 2028 2028 2028 2028 2028 2028 
2028 2028 2028 2028 2028 2028 2028 2028 2028 
2028 2028 2028 2028 2028 2028 2028 2028 2028 
2028 2028 2028 2028 2028 2028 2028 2028 2028 
2028 2028 2028 2028 2028 2028 2028 2028 2028 
2028 2028 2028 2028 2028 2028 2028 2028 2028 
2028 2028 2028 2028 2028 2028 2028 2028 2028 
2028 2028 2028 2028 2028 2028 2028 2028 2028 
2028 2028 2028 2028 2028 2028 2028 2028 2028 
2028 2028 2028 2028 2028 2028 2028 2028 2028 
2028 2028 2028 2028 2028 2028 2028 2028 2028 
2028 2028 2028 2028 2028 2028 2028 2028 2028 
2028 2028 2028 2028 2028 2028 2028 2028 2028 
2028 2028 2028 2028 2028 2028 2028 2028 2028 
2028 2028 2028 2028 2028 2028 2028 2028 2028 
2028 2028 2028 2028 2028 2028 2028 2028 2028 
2028 2028 2028 2028 2028 2028 2028 2028 2028 
2028 2028 2028 2028 2028 2028 2028 2028 2028 
2028 2028 2028 2028 2028 2028 2028 2028 2028 
2028 2028 2028 2028 2028 2028 2028 2028 2028 
2028 2028 2028 2028 2028 2028 2028 2028 2028 
2028 2028 2028 2028 2028 2028 2028 2028 2028 
2028 2028 2028 2028 2028 2028 2028 2028 2028 
2028 2028 2028 2028 2028 2028 2028 2028 2028 
2028 2028 2028 2028 2028 2028 2028 2028 2028 
2028 2028 2028 2028 2028 2028 2028 2028 2028 
2028 2028 2028 2028 2028 2028 2028 2028 2028 
2028 2028 2028 2028 2028 2028 2028 2028 2028 
2028 2028 2028 2028 2028 2028 2028 2028 2028 
2028 2028 2028 2028 2028 2028 2028 2028 2028 
2028 2028 2028 2028 2028 2028 2028 2028 2028 
2028 2028 2028 2028 2028 2028 2028 2028 2028 
2028 2028 2028 2028 2028 2028 2028 2028 2028 
2028 2028 2028 2028 2028 2028 2028 2028 2028 
2028 2028 2028 2028 2028 2028 2028 2028 2028 
2028 2028 2028 2028 2028 2028 2028 2028 2028 
2028 2028 2028 2028 2028 2028 2028 2028 2028 
2028 2028 2028 2028 2028 2028 2028 2028 2028 
2028 2028 2028 2028 2028 2028 2028 2028 2028 
2028 2028 2028 2028 2028 2028 2028 2028 2028 
2028 2028 2028 2028 2028 2028 2028 2028 2028 
2028 2028 2028 2028 2028 2028 2028 2028 2028 
2028 2028 2028 2028 2028 2028 2028 2028 2028 
2028 2028 2028 2028 2028 2028 2028 2028 2028 
2028 2028 2028 2028 2028 2028 2028 2028 2028 
2028 2028 2028 2028 2028 2028 2028 2028 2028 
2028 2028 2028 2028 2028 2028 2028 2028 2028 
2028 2028 2028 2028 2028 2028 2028 2028 2028 
2028 2028 2028 2028 2028 2028 2028 2028 2028 
2028 2028 2028 2028 2028 2028 2028 2028 2028 
2028 2028 2028 2028 2028 2028 2028 2028 2028 
2028 2028 2028 2028 2028 2028 2028 2028 2028 
2028 2028 2028 2028 2028 2028 2028 2028 2028 
2028 2028 2028 2028 2028 2028 2028 2028 2028 
2028 2028 2028 2028 2028 2028 2028 2028 2028 
2028 2028 2028 2028 2028 2028 2028 2028 2028 
2028 2028 2028 2028 2028 2028 2028 2028 2028 
2028 2028 2028 2028 2028 2028 2028 2028 2028 
2028 2028 2028 2028 2028 2028 2028 2028 2028 
2028 2028 2028 2028 2028 2028 2028 2028 2028 
2028 2028 2028 2028 2028 2028 2028 2028 2028 
2028 2028 2028 2028 2028 2028 2028 2028 2028 
2028 2028 2028 2028 2028 2028 2028 2028 2028 
2028 2028 2028 2028 2028 2028 2028 2028 2028 
2028 2028 2028 2028 2028 2028 2028 2028 2028 
2028 2028 2028 2028 2028 2028 2028 2028 2028 
2028 2028 2028 2028 2028 2028 2028 2028 2028 
2028 2028 2028 2028 2028 2028 2028 2028 2028 
2028 2028 2028 2028 2028 2028 2028 2028 2028 
2028 2028 2028 2028 2028 2028 2028 2028 2028 
2028 2028 2028 2028 2028 2028 2028 2028 2028 
2028 2028 2028 2028 2028 2028 2028 2028 2028 
2028 2028 2028 2028 2028 2028 2028 2028 2028 
2028 2028 2028 2028 2028 2028 2028 2028 2028 
2028 2028 2028 2028 2028 2028 2028 2028 2028 
2028 2028 2028 2028 2028 2028 2028 2028 2028 
2028 2028 2028 2028 2028 2028 2028 2028 2028 
2028 2028 2028 2028 2028 2028 2028 2028 2028 
2028 2028 2028 2028 2028 2028 2028 2028 2028 
2028 2028 2028 2028 2028 2028 2028 2028 2028 
2028 2028 2028 2028 2028 2028 2028 2028 2028 
2028 2028 2028 2028 2028 2028 2028 2028 2028 
2028 2028 2028 2028 2028 2028 2028 2028 2028 
2028 2028 2028 2028 2028 2028 2028 2028 2028 
2028 2028 2028 2028 2028 2028 2028 2028 2028 
2028 2028 2028 2028 2028 2028 2028 2028 2028 
2028 2028 2028 2028 2028 2028 2028 2028 2028 
2028 2028 2028 2028 2028 2028 2028 2028 2028 
2028 2028 2028 2028 2028 2028 2028 2028 2028 
2028 2028 2028 2028 2028 2028 2028 2028 2028 
2028 2028 2028 2028 2028 2028 2028 2028 2028 
2028 2028 2028 2028 2028 2028 2028 2028 2028 
2028 2028 2028 2028 2028 2028 2028 2028 2028 
2028 2028 2028 2028 2028 2028 2028 2028 2028 
2028 2028 2028 2028 2028 2028 2028 2028 2028 
2028 2028 2028 2028 2028 2028 2028 2028 2028 
2028 2028 2028 2028 2028 2028 2028 2028 2028 
2028 2028 2028 2028 2028 2028 2028 2028 2028 
2028 2028 2028 2028 2028 2028 2028 2028 2028 
2028 2028 2028 2028 2028 2028 2028 2028 2028 
2028 2028 2028 2028 2028 2028 2028 2028 2028 
2028 2028 2028 2028 2028 2028 2028 2028 2028 
2028 2028 2028 2028 2028 2028 2028 2028 2028 
2028 2028 2028 2028 2028 2028 2028 2028 2028 
2028 2028 2028 2028 2028 2028 2028 2028 2028 
2028 2028 2028 2028 2028 2028 2028 2028 2028 
2028 2028 2028 2028 2028 2028 2028 2028 2028 
2028 2028 2028 2028 2028 2028 2028 2028 2028 
2028 2028 2028 2028 2028 2028 2028 2028 2028 
2028 2028 2028 2028 2028 2028 2028 2028 2028 
2028 2028 2028 2028 2028 2028 2028 2028 2028 
2028 2028 2028 2028 2028 2028 2028 2028 2028 