# vtk DataFile Version 4.2
vtk output
ASCII
DATASET POLYDATA
POINTS 7514 float
24.7655 47.3055 43.7597 24.6241 47.7314 43.3491 24.4111 47.2241 43.577 
25.1758 47.672 43.3576 24.6938 46.4923 43.8166 24.2097 46.32 43.3092 
25.2311 46.7384 43.5839 24.4653 45.3438 43.3851 24.6533 45.6682 43.7077 
25.2362 45.5296 43.3532 23.7186 44.494 43.6924 23.7485 44.6161 43.2805 
23.4852 44.2183 43.2683 24.8108 44.9895 43.3808 23.9768 44.5004 43.5926 
23.8414 44.2557 43.5276 25.6654 48.2063 42.7753 25.4938 48.7863 42.2077 
25.2628 48.5448 42.4862 26.0038 48.5381 42.2517 24.9255 48.1354 42.8062 
24.1907 47.468 42.7829 25.7612 47.2038 43.0768 26.0424 47.5977 42.4266 
23.7616 46.6435 42.7285 23.6193 47.0494 42.3086 23.413 46.5634 42.2349 
25.7592 46.1594 43.0611 26.0335 46.5951 42.6389 23.5842 45.9971 42.4383 
24.0679 45.4193 42.8084 25.7736 45.5064 42.89 26.1476 45.7685 42.3773 
23.6826 44.8917 42.6006 23.1973 44.2866 42.4419 24.3744 44.4471 43.0844 
25.2468 44.5621 42.7702 25.8582 45.0672 42.5358 23.8275 43.7209 43.0125 
23.3642 43.3808 42.3682 24.4228 43.4474 42.6977 25.1376 43.749 42.456 
26.8066 43.4771 42.5892 26.7374 43.8213 42.3081 26.5141 43.4401 42.5066 
27.0663 43.6212 42.2477 24.0004 43.0187 42.4407 24.762 43.0996 42.3397 
25.7322 42.7434 42.5273 25.3458 42.2804 42.4807 25.7945 42.2427 42.686 
26.7405 43.283 42.2458 26.007 42.5173 42.3643 22.9811 41.3796 42.8354 
22.8841 41.8164 42.2688 22.456 41.2773 42.5507 23.8895 41.2551 42.8391 
23.4168 41.8941 42.537 24.0992 41.6885 42.4341 25.6715 41.6777 42.6727 
25.3581 41.5429 42.5189 26.0727 41.5709 42.2772 22.7765 40.5572 42.8502 
22.4468 40.7186 42.4025 23.6845 40.4341 43.0735 24.6115 41.0456 42.5727 
24.6213 40.3325 42.8647 25.6953 41.0383 42.3203 25.1642 40.3109 42.3297 
22.8363 40.0988 42.4243 23.2389 39.5541 42.3659 23.4896 39.6741 42.8545 
24.4204 39.5108 42.892 25.0639 39.5961 42.5487 21.8607 38.5994 42.7526 
21.6322 39.0278 42.3988 21.3763 38.6809 42.3431 22.4571 38.4083 42.7695 
22.3469 38.9222 42.5563 23.9637 38.9608 42.3367 23.1298 38.3922 42.2938 
24.8114 39.0841 42.3241 21.7822 38.0366 42.4546 22.7247 37.9498 42.4232 
24.6802 48.3996 42.1155 24.9607 48.9573 41.6444 24.1873 48.5186 41.4616 
25.6548 49.066 41.6395 26.118 48.5076 41.5425 23.8421 47.7193 41.9052 
23.4865 47.8896 41.3849 23.2154 47.0948 41.6444 25.673 47.9028 41.1837 
25.8162 47.5397 41.8693 25.4443 47.2045 41.5237 23.0492 46.2874 41.745 
25.8805 46.5921 41.9856 25.4738 46.7068 41.265 22.9476 45.5819 41.8476 
22.5933 46.0143 41.3294 22.4041 45.3737 41.2994 23.475 45.3309 42.2476 
25.8434 46.2719 41.5195 26.4329 45.8168 41.4788 26.6166 45.1205 41.8734 
27.0159 45.2392 41.3546 22.8894 44.8231 41.9133 22.3847 44.4109 41.1061 
25.9279 44.3815 42.1591 26.5745 44.3587 41.9618 27.0694 44.3296 41.6478 
22.7455 44.0504 41.6383 22.9672 43.379 41.6144 25.9043 43.2498 42.1743 
27.0608 43.47 41.7258 23.6664 42.2911 42.0906 23.1282 42.4799 41.5019 
24.6508 42.5735 42.1891 26.6371 43.0815 41.6557 26.2146 42.3627 41.5807 
30.7573 42.4552 41.6539 30.5945 42.7309 41.5326 30.3667 42.2631 41.3731 
30.9889 42.745 41.2929 22.6204 41.1661 42.0257 22.9964 41.5496 41.5477 
24.9064 41.4412 42.2606 26.0967 41.2102 41.5174 30.8189 42.2915 41.2892 
22.6302 40.5592 42.0684 22.8577 40.3558 41.7772 25.603 40.3384 41.9171 
26.0046 40.5994 41.7386 21.9823 39.7965 41.229 21.4242 39.216 41.7721 
22.0015 39.4892 41.9479 22.4745 39.9859 41.5343 22.9684 39.3033 42.1343 
25.3073 39.5841 41.6293 25.7319 40.0875 41.3155 21.2047 38.4751 41.7116 
23.6378 38.5473 42.0422 24.1346 38.3124 41.4564 24.6704 38.8533 41.3878 
20.9851 37.5286 41.886 20.8138 37.9008 41.1742 20.3623 37.1864 41.246 
21.658 37.378 42.1986 22.3953 37.2614 42.0255 23.2863 37.4062 41.5358 
23.7674 37.908 41.5316 20.7811 36.8694 41.6305 21.1099 36.449 41.5549 
21.551 36.7712 41.8343 22.3439 36.3423 41.3425 22.852 36.8147 41.3941 
21.5023 36.0148 41.2618 24.8662 49.355 40.9891 24.8729 49.8428 40.1464 
24.2088 49.3589 40.5206 26.0823 49.4761 40.9649 25.8063 49.9298 40.3686 
26.7239 49.5953 40.6739 26.5949 49.852 40.4773 27.0847 49.4399 40.1511 
22.9064 48.4942 40.7439 22.7909 48.7755 40.117 22.4262 48.2382 40.478 
23.6503 48.6177 40.9853 23.5258 49.0161 40.371 26.6207 49.058 40.7215 
26.2126 48.4432 40.7578 22.8183 47.7514 40.9859 22.2817 47.4814 40.3788 
25.1588 47.3737 40.6207 25.51 47.9937 40.2051 26.5369 47.4925 40.2471 
26.7031 47.4022 40.6287 26.7284 47.6871 40.5438 27.0135 47.598 40.3065 
28.6646 47.5274 40.6375 28.7511 47.7387 40.1801 28.5063 47.4425 40.3343 
29.1366 47.4173 40.2771 22.6398 46.7652 41.0674 22.1458 46.3061 40.5314 
25.5238 46.8132 40.2775 25.9161 46.2772 40.979 26.7711 47.2382 40.2501 
26.0224 46.3454 40.3656 28.6649 47.3256 40.4891 22.0692 45.1471 40.4246 
26.298 45.5439 40.5087 26.8317 45.4255 41.0391 31.0186 45.4258 40.8066 
30.6068 45.8491 40.4726 30.3676 45.5124 40.5653 31.9504 45.2754 40.8725 
31.4115 45.7871 40.4205 32.0502 45.5303 40.5458 22.2057 44.4244 40.4259 
26.864 44.7546 40.9385 26.2875 44.2288 40.4422 30.5664 44.9957 40.429 
31.1096 44.4912 40.558 31.6871 44.6343 40.9097 32.4758 45.0059 40.4243 
32.6844 44.4521 40.8673 33.0399 44.2273 40.2484 22.6227 43.5364 41.1155 
22.3346 43.5419 40.4515 26.6593 43.4751 41.0644 26.0818 43.3523 40.4998 
29.8136 43.3915 40.8427 29.5277 43.8049 40.2549 29.0932 43.3467 40.5942 
30.6099 43.2384 41.0869 30.4247 43.6972 40.3087 31.5614 43.9982 40.4313 
31.0017 43.2451 40.5491 32.1215 43.1457 40.5189 32.8048 43.5258 40.8911 
33.328 43.4529 40.3695 22.7249 42.7225 40.9454 22.2392 42.3253 40.3432 
25.9458 42.6279 40.799 25.419 42.3496 40.2953 25.637 43.016 40.2825 
29.0507 42.6271 40.7896 28.5087 42.9112 40.4413 28.4017 42.3268 40.4068 
29.9589 42.7076 41.2102 31.0972 42.579 40.6012 32.9013 42.4385 40.9503 
32.3124 42.2515 40.4693 33.669 42.8983 40.6107 33.7116 42.4025 40.8773 
34.0741 42.213 40.2518 22.7403 41.7305 40.9115 22.2504 41.1501 40.2784 
25.776 41.6671 40.9362 25.379 41.3958 40.2927 28.8406 41.8797 40.5488 
29.1057 41.1256 40.5085 29.8243 41.5821 40.8354 30.6521 41.9553 40.6669 
30.3788 41.4615 40.4828 32.8312 41.4637 40.8521 32.4928 41.5991 40.3619 
33.6202 41.4184 40.9313 34.1611 41.5941 40.5147 22.5747 40.5977 40.9513 
22.3702 40.4396 40.3013 25.782 40.6986 41.0152 25.3918 40.3111 40.4984 
29.7417 40.2964 40.8975 29.0698 40.3515 40.5833 30.5326 41.0377 40.5207 
30.5433 40.4021 40.764 31.0474 40.5535 40.3908 32.9741 40.9873 40.3139 
33.4544 40.3547 40.3658 33.4405 40.6066 40.7594 33.9579 40.7059 40.3707 
21.6954 39.1405 41.0335 22.2098 39.7406 40.4057 25.0563 39.5134 40.5364 
29.0611 39.469 40.8857 28.5491 39.8709 40.449 28.2403 39.1055 40.566 
29.7344 39.4164 41.066 30.3742 39.375 40.8701 31.1445 39.7726 40.4712 
33.7211 40.1939 40.5165 21.4876 38.4836 40.9974 21.9563 38.7831 40.4083 
24.3949 38.5234 40.4604 24.6839 39.0715 40.3625 28.6752 38.6338 40.8329 
28.2232 38.4994 40.5871 29.5417 38.6554 40.8877 30.3108 38.5656 40.6237 
30.9022 38.9912 40.4584 20.9407 37.8011 40.3967 20.3122 37.3089 40.5503 
21.4722 38.2005 40.6366 23.8049 37.3989 40.9958 24.1041 37.7339 40.5251 
28.7415 37.9935 40.2492 29.8953 38.0988 40.2647 20.6783 36.4797 41.1737 
20.2933 36.5939 40.4797 22.794 36.396 41.0006 23.1492 36.6026 40.7048 
23.7103 37.0193 40.3158 20.8933 35.8965 40.647 21.5405 35.4313 40.7662 
21.2578 35.3583 40.1449 22.0965 35.5436 40.7257 22.706 35.9681 40.357 
21.7971 35.1529 40.2981 24.5684 49.8986 39.2889 24.1397 49.5448 39.8224 
25.6261 49.9307 39.499 26.6412 49.8561 39.8313 27.1661 49.4647 39.4089 
22.6812 48.8448 39.2856 22.2939 48.3136 39.737 23.3681 49.2001 39.4041 
26.7817 48.2996 40.1028 27.5649 48.9667 39.4171 27.7195 48.5112 39.6577 
27.9782 48.4437 39.1532 21.9782 47.4078 39.6055 24.7162 47.5962 39.801 
24.4746 47.5127 39.3552 24.9065 47.7167 39.4034 25.7145 47.9021 39.5679 
26.1834 47.6332 39.612 27.5924 47.9715 39.6758 27.2152 47.379 39.7451 
28.412 47.4454 39.6257 28.6396 47.8516 39.4006 30.0384 47.2794 39.8876 
29.4232 47.7991 39.6195 30.1372 47.5608 39.5256 21.7302 46.5401 39.8546 
21.5873 47.0323 39.3269 21.3739 46.3808 39.3641 24.8169 47.2792 39.6588 
25.3512 47.0676 39.4 26.0246 46.3544 39.5074 26.6563 47.1869 39.5065 
28.7676 47.0089 39.8739 29.6045 46.6894 39.9462 29.0897 46.1354 39.4442 
30.4818 47.0385 39.3586 30.6352 46.3749 39.945 30.9484 46.2951 39.3693 
21.6899 45.7688 39.9334 21.3576 45.3915 39.1468 25.8217 45.6027 39.8084 
25.2875 45.1993 39.4865 25.4507 45.901 39.2369 29.9271 45.719 39.9827 
29.3602 45.3457 39.306 31.3891 45.6178 39.5871 31.9356 45.4593 40.1021 
21.7534 45.0133 39.6477 22.0214 44.2695 39.7203 25.7674 44.7419 39.9654 
25.1951 44.2298 39.4934 27.9534 44.2259 39.7159 27.5356 44.727 39.3598 
27.2447 44.1583 39.3166 28.145 44.6053 39.3916 30.0731 44.9086 39.3278 
30.6521 44.4555 40.0004 30.3908 44.4397 39.4675 32.0912 44.9384 39.6773 
32.6557 44.5406 39.8872 32.3185 44.4785 39.4545 22.0057 43.2273 39.73 
25.7001 43.7499 40.0244 25.1818 43.1627 39.6327 27.7126 43.6606 39.8206 
27.3335 43.3226 39.4944 28.826 44.1316 39.6837 28.5149 43.5678 40.1347 
29.7294 44.0841 39.4707 30.8925 44.0365 39.6489 30.7906 43.4914 40.0061 
30.3861 43.3915 39.2618 31.4015 43.4242 39.9092 31.1555 43.4626 39.0914 
32.5822 44.0613 39.3935 33.1255 43.483 39.5389 35.958 43.5305 39.7572 
35.6406 43.8171 39.4784 35.4591 43.3292 39.4841 36.5168 43.3978 39.7701 
36.4088 43.8972 39.567 37.0461 43.588 39.2361 21.773 42.5114 39.8351 
21.637 43.0162 39.3225 21.4085 42.3842 39.352 25.0733 42.1652 39.5724 
27.9174 42.6458 39.9876 27.1966 42.3375 39.3863 31.0282 43.1013 39.7765 
31.5523 42.4211 40.0865 33.4741 42.3494 39.9268 33.2872 42.7631 39.4798 
36.059 43.0026 39.5793 36.7435 42.9362 39.434 21.7319 41.7693 39.9033 
21.3727 41.4008 39.1351 25.0983 41.1692 39.5602 27.8237 41.471 39.8474 
27.1822 41.1719 39.4865 28.4171 41.6554 40.1887 31.0324 41.3397 40.1842 
31.9158 41.4256 39.7993 32.6023 42.0203 39.6506 32.3117 41.4484 39.2996 
32.8361 41.6163 39.9698 33.3193 41.4657 39.3725 33.8625 42.0246 39.5796 
34.172 41.5331 39.7055 21.7859 41.0174 39.6322 22.0864 40.2608 39.6779 
[...]
CELL_DATA 15088
SCALARS scalars float
LOOKUP_TABLE default
1003 1003 1003 1003 1003 1003 1003 1003 1003 
1003 1003 1003 1003 1003 1003 1003 1003 1003 
1003 1003 1003 1003 1003 1003 1003 1003 1003 
1003 1003 1003 1003 1003 1003 1003 1003 1003 
1003 1003 1003 1003 1003 1003 1003 1003 1003 
1003 1003 1003 1003 1003 1003 1003 1003 1003 
1003 1003 1003 1003 1003 1003 1003 1003 1003 
1003 1003 1003 1003 1003 1003 1003 1003 1003 
1003 1003 1003 1003 1003 1003 1003 1003 1003 
1003 1003 1003 1003 1003 1003 1003 1003 1003 
1003 1003 1003 1003 1003 1003 1003 1003 1003 
1003 1003 1003 1003 1003 1003 1003 1003 1003 
1003 1003 1003 1003 1003 1003 1003 1003 1003 
1003 1003 1003 1003 1003 1003 1003 1003 1003 
1003 1003 1003 1003 1003 1003 1003 1003 1003 
1003 1003 1003 1003 1003 1003 1003 1003 1003 
1003 1003 1003 1003 1003 1003 1003 1003 1003 
1003 1003 1003 1003 1003 1003 1003 1003 1003 
1003 1003 1003 1003 1003 1003 1003 1003 1003 
1003 1003 1003 1003 1003 1003 1003 1003 1003 
1003 1003 1003 1003 1003 1003 1003 1003 1003 
1003 1003 1003 1003 1003 1003 1003 1003 1003 
1003 1003 1003 1003 1003 1003 1003 1003 1003 
1003 1003 1003 1003 1003 1003 1003 1003 1003 
1003 1003 1003 1003 1003 1003 1003 1003 1003 
1003 1003 1003 1003 1003 1003 1003 1003 1003 
1003 1003 1003 1003 1003 1003 1003 1003 1003 
1003 1003 1003 1003 1003 1003 1003 1003 1003 
1003 1003 1003 1003 1003 1003 1003 1003 1003 
1003 1003 1003 1003 1003 1003 1003 1003 1003 
1003 1003 1003 1003 1003 1003 1003 1003 1003 
1003 1003 1003 1003 1003 1003 1003 1003 1003 
1003 1003 1003 1003 1003 1003 1003 1003 1003 
1003 1003 1003 1003 1003 1003 1003 1003 1003 
1003 1003 1003 1003 1003 1003 1003 1003 1003 
1003 1003 1003 1003 1003 1003 1003 1003 1003 
1003 1003 1003 1003 1003 1003 1003 1003 1003 
1003 1003 1003 1003 1003 1003 1003 1003 1003 
1003 1003 1003 1003 1003 1003 1003 1003 1003 
1003 1003 1003 1003 1003 1003 1003 1003 1003 
1003 1003 1003 1003 1003 1003 1003 1003 1003 
1003 1003 1003 1003 1003 1003 1003 1003 1003 
1003 1003 1003 1003 1003 1003 1003 1003 1003 
1003 1003 1003 1003 1003 1003 1003 1003 1003 
1003 1003 1003 1003 1003 1003 1003 1003 1003 
1003 1003 1003 1003 1003 1003 1003 1003 1003 
1003 1003 1003 1003 1003 1003 1003 1003 1003 
1003 1003 1003 1003 1003 1003 1003 1003 1003 
1003 1003 1003 1003 1003 1003 1003 1003 1003 
1003 1003 1003 1003 1003 1003 1003 1003 1003 
1003 1003 1003 1003 1003 1003 1003 1003 1003 
1003 1003 1003 1003 1003 1003 1003 1003 1003 
1003 1003 1003 1003 1003 1003 1003 1003 1003 
1003 1003 1003 1003 1003 1003 1003 1003 1003 
1003 1003 1003 1003 1003 1003 1003 1003 1003 
1003 1003 1003 1003 1003 1003 1003 1003 1003 
1003 1003 1003 1003 1003 1003 1003 1003 1003 
1003 1003 1003 1003 1003 1003 1003 1003 1003 
1003 1003 1003 1003 1003 1003 1003 1003 1003 
1003 1003 1003 1003 1003 1003 1003 1003 1003 
1003 1003 1003 1003 1003 1003 1003 1003 1003 
1003 1003 1003 1003 1003 1003 1003 1003 1003 
1003 1003 1003 1003 1003 1003 1003 1003 1003 
1003 1003 1003 1003 1003 1003 1003 1003 1003 
1003 1003 1003 1003 1003 1003 1003 1003 1003 
1003 1003 1003 1003 1003 1003 1003 1003 1003 
1003 1003 1003 1003 1003 1003 1003 1003 1003 
1003 1003 1003 1003 1003 1003 1003 1003 1003 
1003 1003 1003 1003 1003 1003 1003 1003 1003 
1003 1003 1003 1003 1003 1003 1003 1003 1003 
1003 1003 1003 1003 1003 1003 1003 1003 1003 
1003 1003 1003 1003 1003 1003 1003 1003 1003 
1003 1003 1003 1003 1003 1003 1003 1003 1003 
1003 1003 1003 1003 1003 1003 1003 1003 1003 
1003 1003 1003 1003 1003 1003 1003 1003 1003 
1003 1003 1003 1003 1003 1003 1003 1003 1003 
1003 1003 1003 1003 1003 1003 1003 1003 1003 
1003 1003 1003 1003 1003 1003 1003 1003 1003 
1003 1003 1003 1003 1003 1003 1003 1003 1003 
1003 1003 1003 1003 1003 1003 1003 1003 1003 
1003 1003 1003 1003 1003 1003 1003 1003 1003 
1003 1003 1003 1003 1003 1003 1003 1003 1003 
1003 1003 1003 1003 1003 1003 1003 1003 1003 
1003 1003 1003 1003 1003 1003 1003 1003 1003 
1003 1003 1003 1003 1003 1003 1003 1003 1003 
1003 1003 1003 1003 1003 1003 1003 1003 1003 
1003 1003 1003 1003 1003 1003 1003 1003 1003 
1003 1003 1003 1003 1003 1003 1003 1003 1003 
1003 1003 1003 1003 1003 1003 1003 1003 1003 
1003 1003 1003 1003 1003 1003 1003 1003 1003 
1003 1003 1003 1003 1003 1003 1003 1003 1003 
1003 1003 1003 1003 1003 1003 1003 1003 1003 
1003 1003 1003 1003 1003 1003 1003 1003 1003 
1003 1003 1003 1003 1003 1003 1003 1003 1003 
1003 1003 1003 1003 1003 1003 1003 1003 1003 
1003 1003 1003 1003 1003 1003 1003 1003 1003 
1003 1003 1003 1003 1003 1003 1003 1003 1003 
1003 1003 1003 1003 1003 1003 1003 1003 1003 
1003 1003 1003 1003 1003 1003 1003 1003 1003 
1003 1003 1003 1003 1003 1003 1003 1003 1003 
1003 1003 1003 1003 1003 1003 1003 1003 1003 
1003 1003 1003 1003 1003 1003 1003 1003 1003 
1003 1003 1003 1003 1003 1003 1003 1003 1003 
1003 1003 1003 1003 1003 1003 1003 1003 1003 
1003 1003 1003 1003 1003 1003 1003 1003 1003 
1003 1003 1003 1003 1003 1003 1003 1003 1003 
1003 1003 1003 1003 1003 1003 1003 1003 1003 
1003 1003 1003 1003 1003 1003 1003 1003 1003 
1003 1003 1003 1003 1003 1003 1003 1003 1003 
1003 1003 1003 1003 1003 1003 1003 1003 1003 
1003 1003 1003 1003 1003 1003 1003 1003 1003 
1003 1003 1003 1003 1003 1003 1003 1003 1003 
1003 1003 1003 1003 1003 1003 1003 1003 1003 
1003 1003 1003 1003 1003 1003 1003 1003 1003 
1003 1003 1003 1003 1003 1003 1003 1003 1003 
1003 1003 1003 1003 1003 1003 1003 1003 1003 
1003 1003 1003 1003 1003 1003 1003 1003 1003 
1003 1003 1003 1003 1003 1003 1003 1003 1003 
1003 1003 1003 1003 1003 1003 1003 1003 1003 
1003 1003 1003 1003 1003 1003 1003 1003 1003 
1003 1003 1003 1003 1003 1003 1003 1003 1003 
1003 1003 1003 1003 1003 1003 1003 1003 1003 
1003 1003 1003 1003 1003 1003 1003 1003 1003 
1003 1003 1003 1003 1003 1003 1003 1003 1003 
1003 1003 1003 1003 1003 1003 1003 1003 1003 
1003 1003 1003 1003 1003 1003 1003 1003 1003 
1003 1003 1003 1003 1003 1003 1003 1003 1003 
1003 1003 1003 1003 1003 1003 1003 1003 1003 
1003 1003 1003 1003 1003 1003 1003 1003 1003 
1003 1003 1003 1003 1003 1003 1003 1003 1003 
1003 1003 1003 1003 1003 1003 1003 1003 1003 
1003 1003 1003 1003 1003 1003 1003 1003 1003 
1003 1003 1003 1003 1003 1003 1003 1003 1003 
1003 1003 1003 1003 1003 1003 1003 1003 1003 
1003 1003 1003 1003 1003 1003 1003 1003 1003 
1003 1003 1003 1003 1003 1003 1003 1003 1003 
1003 1003 1003 1003 1003 1003 1003 1003 1003 
1003 1003 1003 1003 1003 1003 1003 1003 1003 
1003 1003 1003 1003 1003 1003 1003 1003 1003 
1003 1003 1003 1003 1003 1003 1003 1003 1003 
1003 1003 1003 1003 1003 1003 1003 1003 1003 
1003 1003 1003 1003 1003 1003 1003 1003 1003 
1003 1003 1003 1003 1003 1003 1003 1003 1003 
1003 1003 1003 1003 1003 1003 1003 1003 1003 
1003 1003 1003 1003 1003 1003 1003 1003 1003 
1003 1003 1003 1003 1003 1003 1003 1003 1003 
1003 1003 1003 1003 1003 1003 1003 1003 1003 
1003 1003 1003 1003 1003 1003 1003 1003 1003 
1003 1003 1003 1003 1003 1003 1003 1003 1003 
1003 1003 1003 1003 1003 1003 1003 1003 1003 
1003 1003 1003 1003 1003 1003 1003 1003 1003 
1003 1003 1003 1003 1003 1003 1003 1003 1003 
1003 1003 1003 1003 1003 1003 1003 1003 1003 
1003 1003 1003 1003 1003 1003 1003 1003 1003 
1003 1003 1003 1003 1003 1003 1003 1003 1003 
1003 1003 1003 1003 1003 1003 1003 1003 1003 
1003 1003 1003 1003 1003 1003 1003 1003 1003 
1003 1003 1003 1003 1003 1003 1003 1003 1003 
1003 1003 1003 1003 1003 1003 1003 1003 1003 
1003 1003 1003 1003 1003 1003 1003 1003 1003 
1003 1003 1003 1003 1003 1003 1003 1003 1003 
1003 1003 1003 1003 1003 1003 1003 1003 1003 
1003 1003 1003 1003 1003 1003 1003 1003 1003 
1003 1003 1003 1003 1003 1003 1003 1003 1003 
1003 1003 1003 1003 1003 1003 1003 1003 1003 
1003 1003 1003 1003 1003 1003 1003 1003 1003 
1003 1003 1003 1003 1003 1003 1003 1003 1003 
1003 1003 1003 1003 1003 1003 1003 1003 1003 
1003 1003 1003 1003 1003 1003 1003 1003 1003 
1003 1003 1003 1003 1003 1003 1003 1003 1003 
1003 1003 1003 1003 1003 1003 1003 1003 1003 
1003 1003 1003 1003 1003 1003 1003 1003 1003 
1003 1003 1003 1003 1003 1003 1003 1003 1003 
1003 1003 1003 1003 1003 1003 1003 1003 1003 
1003 1003 1003 1003 1003 1003 1003 1003 1003 
1003 1003 1003 1003 1003 1003 1003 1003 1003 
1003 1003 1003 1003 1003 1003 1003 1003 1003 
1003 1003 1003 1003 1003 1003 1003 1003 1003 
1003 1003 1003 1003 1003 1003 1003 1003 1003 
1003 1003 1003 1003 1003 1003 1003 1003 1003 
1003 1003 1003 1003 1003 1003 1003 1003 1003 
1003 1003 1003 1003 1003 1003 1003 1003 1003 
1003 1003 1003 1003 1003 1003 1003 1003 1003 
1003 1003 1003 1003 1003 1003 1003 1003 1003 
1003 1003 1003 1003 1003 1003 1003 1003 1003 
1003 1003 1003 1003 1003 1003 1003 1003 1003 
1003 1003 1003 1003 1003 1003 1003 1003 1003 
1003 1003 1003 1003 1003 1003 1003 1003 1003 
1003 1003 1003 1003 1003 1003 1003 1003 1003 
1003 1003 1003 1003 1003 1003 1003 1003 1003 
1003 1003 1003 1003 1003 1003 1003 1003 1003 
1003 1003 1003 1003 1003 1003 1003 1003 1003 
1003 1003 1003 1003 1003 1003 1003 1003 1003 
1003 1003 1003 1003 1003 1003 1003 1003 1003 
1003 1003 1003 1003 1003 1003 1003 1003 1003 
1003 1003 1003 1003 1003 1003 1003 1003 1003 
1003 1003 1003 1003 1003 1003 1003 1003 1003 
1003 1003 1003 1003 1003 1003 1003 1003 1003 
1003 1003 1003 1003 1003 1003 1003 1003 1003 
1003 1003 1003 1003 1003 1003 1003 1003 1003 
1003 1003 1003 1003 1003 1003 1003 1003 1003 
1003 1003 1003 1003 1003 1003 1003 1003 1003 
1003 1003 1003 1003 1003 1003 1003 1003 1003 
1003 1003 1003 1003 1003 1003 1003 1003 1003 
1003 1003 1003 1003 1003 1003 1003 1003 1003 
1003 1003 1003 1003 1003 1003 1003 1003 1003 
1003 1003 1003 1003 1003 1003 1003 1003 1003 
1003 1003 1003 1003 1003 1003 1003 1003 1003 
1003 1003 1003 1003 1003 1003 1003 1003 1003 
1003 1003 1003 1003 1003 1003 1003 1003 1003 
1003 1003 1003 1003 1003 1003 1003 1003 1003 
1003 1003 1003 1003 1003 1003 1003 1003 1003 
1003 1003 1003 1003 1003 1003 1003 1003 1003 
1003 1003 1003 1003 1003 1003 1003 1003 1003 
1003 1003 1003 1003 1003 1003 1003 1003 1003 
1003 1003 1003 1003 1003 1003 1003 1003 1003 
1003 1003 1003 1003 1003 1003 1003 1003 1003 
1003 1003 1003 1003 1003 1003 1003 1003 1003 
1003 1003 1003 1003 1003 1003 1003 1003 1003 
1003 1003 1003 1003 1003 1003 1003 1003 1003 
1003 1003 1003 1003 1003 1003 1003 1003 1003 
1003 1003 1003 1003 1003 1003 1003 1003 1003 
1003 1003 1003 1003 1003 1003 1003 1003 1003 
1003 1003 1003 1003 1003 1003 1003 1003 1003 
1003 1003 1003 1003 1003 1003 1003 1003 1003 
1003 1003 1003 1003 1003 1003 1003 1003 1003 
1003 1003 1003 1003 1003 1003 1003 1003 1003 
1003 1003 1003 1003 1003 1003 1003 1003 1003 
1003 1003 1003 1003 1003 1003 1003 1003 1003 
1003 1003 1003 1003 1003 1003 1003 1003 1003 
1003 1003 1003 1003 1003 1003 1003 1003 1003 
1003 1003 1003 1003 1003 1003 1003 1003 1003 
1003 1003 1003 1003 1003 1003 1003 1003 1003 
1003 1003 1003 1003 1003 1003 1003 1003 1003 
1003 1003 1003 1003 1003 1003 1003 1003 1003 
1003 1003 1003 1003 1003 1003 1003 1003 1003 
1003 1003 1003 1003 1003 1003 1003 1003 1003 
1003 1003 1003 1003 1003 1003 1003 1003 1003 
1003 1003 1003 1003 1003 1003 1003 1003 1003 
1003 1003 1003 1003 1003 1003 1003 1003 1003 
1003 1003 1003 1003 1003 1003 1003 1003 1003 
1003 1003 1003 1003 1003 1003 1003 1003 1003 
1003 1003 1003 1003 1003 1003 1003 1003 1003 
1003 1003 1003 1003 1003 1003 1003 1003 1003 
1003 1003 1003 1003 1003 1003 1003 1003 1003 
1003 1003 1003 1003 1003 1003 1003 1003 1003 
1003 1003 1003 1003 1003 1003 1003 1003 1003 
1003 1003 1003 1003 1003 1003 1003 1003 1003 
1003 1003 1003 1003 1003 1003 1003 1003 1003 
1003 1003 1003 1003 1003 1003 1003 1003 1003 
1003 1003 1003 1003 1003 1003 1003 1003 1003 
1003 1003 1003 1003 1003 1003 1003 1003 1003 
1003 1003 1003 1003 1003 1003 1003 1003 1003 
1003 1003 1003 1003 1003 1003 1003 1003 1003 
1003 1003 1003 1003 1003 1003 1003 1003 1003 
1003 1003 1003 1003 1003 1003 1003 1003 1003 
1003 1003 1003 1003 1003 1003 1003 1003 1003 
1003 1003 1003 1003 1003 1003 1003 1003 1003 
1003 1003 1003 1003 1003 1003 1003 1003 1003 
1003 1003 1003 1003 1003 1003 1003 1003 1003 
1003 1003 1003 1003 1003 1003 1003 1003 1003 
1003 1003 1003 1003 1003 1003 1003 1003 1003 
1003 1003 1003 1003 1003 1003 1003 1003 1003 
1003 1003 1003 1003 1003 1003 1003 1003 1003 
1003 1003 1003 1003 1003 1003 1003 1003 1003 
1003 1003 1003 1003 1003 1003 1003 1003 1003 
1003 1003 1003 1003 1003 1003 1003 1003 1003 
1003 1003 1003 1003 1003 1003 1003 1003 1003 
1003 1003 1003 1003 1003 1003 1003 1003 1003 
1003 1003 1003 1003 1003 1003 1003 1003 1003 
1003 1003 1003 1003 1003 1003 1003 1003 1003 
1003 1003 1003 1003 1003 1003 1003 1003 1003 
1003 1003 1003 1003 1003 1003 1003 1003 1003 
1003 1003 1003 1003 1003 1003 1003 1003 1003 
1003 1003 1003 1003 1003 1003 1003 1003 1003 
1003 1003 1003 1003 1003 1003 1003 1003 1003 
1003 1003 1003 1003 1003 1003 1003 1003 1003 
1003 1003 1003 1003 1003 1003 1003 1003 1003 
1003 1003 1003 1003 1003 1003 1003 1003 1003 
1003 1003 1003 1003 1003 1003 1003 1003 1003 
1003 1003 1003 1003 1003 1003 1003 1003 1003 
1003 1003 1003 1003 1003 1003 1003 1003 1003 
1003 1003 1003 1003 1003 1003 1003 1003 1003 
1003 1003 1003 1003 1003 1003 1003 1003 1003 
1003 1003 1003 1003 1003 1003 1003 1003 1003 
1003 1003 1003 1003 1003 1003 1003 1003 1003 
1003 1003 1003 1003 1003 1003 1003 1003 1003 
1003 1003 1003 1003 1003 1003 1003 1003 1003 
1003 1003 1003 1003 1003 1003 1003 1003 1003 
1003 1003 1003 1003 1003 1003 1003 1003 1003 
1003 1003 1003 1003 1003 1003 1003 1003 1003 
1003 1003 1003 1003 1003 1003 1003 1003 1003 
1003 1003 1003 1003 1003 1003 1003 1003 1003 
1003 1003 1003 1003 1003 1003 1003 1003 1003 
1003 1003 1003 1003 1003 1003 1003 1003 1003 
1003 1003 1003 1003 1003 1003 1003 1003 1003 
1003 1003 1003 1003 1003 1003 1003 1003 1003 
1003 1003 1003 1003 1003 1003 1003 1003 1003 
1003 1003 1003 1003 1003 1003 1003 1003 1003 
1003 1003 1003 1003 1003 1003 1003 1003 1003 
1003 1003 1003 1003 1003 1003 1003 1003 1003 
1003 1003 1003 1003 1003 1003 1003 1003 1003 
1003 1003 1003 1003 1003 1003 1003 1003 1003 
1003 1003 1003 1003 1003 1003 1003 1003 1003 
1003 1003 1003 1003 1003 1003 1003 1003 1003 
1003 1003 1003 1003 1003 1003 1003 1003 1003 
1003 1003 1003 1003 1003 1003 1003 1003 1003 
1003 1003 1003 1003 1003 1003 1003 1003 1003 
1003 1003 1003 1003 1003 1003 1003 1003 1003 
1003 1003 1003 1003 1003 1003 1003 1003 1003 
1003 1003 1003 1003 1003 1003 1003 1003 1003 
1003 1003 1003 1003 1003 1003 1003 1003 1003 
1003 1003 1003 1003 1003 1003 1003 1003 1003 
1003 1003 1003 1003 1003 1003 1003 1003 1003 
1003 1003 1003 1003 1003 1003 1003 1003 1003 
1003 1003 1003 1003 1003 1003 1003 1003 1003 
1003 1003 1003 1003 1003 1003 1003 1003 1003 
1003 1003 1003 1003 1003 1003 1003 1003 1003 
1003 1003 1003 1003 1003 1003 1003 1003 1003 
1003 1003 1003 1003 1003 1003 1003 1003 1003 
1003 1003 1003 1003 1003 1003 1003 1003 1003 
1003 1003 1003 1003 1003 1003 1003 1003 1003 
1003 1003 1003 1003 1003 1003 1003 1003 1003 
1003 1003 1003 1003 1003 1003 1003 1003 1003 
1003 1003 1003 1003 1003 1003 1003 1003 1003 
1003 1003 1003 1003 1003 1003 1003 1003 1003 
1003 1003 1003 1003 1003 1003 1003 1003 1003 
1003 1003 1003 1003 1003 1003 1003 1003 1003 
1003 1003 1003 1003 1003 1003 1003 1003 1003 
1003 1003 1003 1003 1003 1003 1003 1003 1003 
1003 1003 1003 1003 1003 1003 1003 1003 1003 
1003 1003 1003 1003 1003 1003 1003 1003 1003 
1003 1003 1003 1003 1003 1003 1003 1003 1003 
1003 1003 1003 1003 1003 1003 1003 1003 1003 
1003 1003 1003 1003 1003 1003 1003 1003 1003 
1003 1003 1003 1003 1003 1003 1003 1003 1003 
1003 1003 1003 1003 1003 1003 1003 1003 1003 
1003 1003 1003 1003 1003 1003 1003 1003 1003 
1003 1003 1003 1003 1003 1003 1003 1003 1003 
1003 1003 1003 1003 1003 1003 1003 1003 1003 
1003 1003 1003 1003 1003 1003 1003 1003 1003 
1003 1003 1003 1003 1003 1003 1003 1003 1003 
1003 1003 1003 1003 1003 1003 1003 1003 1003 
1003 1003 1003 1003 1003 1003 1003 1003 1003 
1003 1003 1003 1003 1003 1003 1003 1003 1003 
1003 1003 1003 1003 1003 1003 1003 1003 1003 
1003 1003 1003 1003 1003 1003 1003 1003 1003 
1003 1003 1003 1003 1003 1003 1003 1003 1003 
1003 1003 1003 1003 1003 1003 1003 1003 1003 
1003 1003 1003 1003 1003 1003 1003 1003 1003 
1003 1003 1003 1003 1003 1003 1003 1003 1003 
1003 1003 1003 1003 1003 1003 1003 1003 1003 
1003 1003 1003 1003 1003 1003 1003 1003 1003 
1003 1003 1003 1003 1003 1003 1003 1003 1003 
1003 1003 1003 1003 1003 1003 1003 1003 1003 
1003 1003 1003 1003 1003 1003 1003 1003 1003 
1003 1003 1003 1003 1003 1003 1003 1003 1003 
1003 1003 1003 1003 1003 1003 1003 1003 1003 
1003 1003 1003 1003 1003 1003 1003 1003 1003 
1003 1003 1003 1003 1003 1003 1003 1003 1003 
1003 1003 1003 1003 1003 1003 1003 1003 1003 
1003 1003 1003 1003 1003 1003 1003 1003 1003 
1003 1003 1003 1003 1003 1003 1003 1003 1003 
1003 1003 1003 1003 1003 1003 1003 1003 1003 
1003 1003 1003 1003 1003 1003 1003 1003 1003 
1003 1003 1003 1003 1003 1003 1003 1003 1003 
1003 1003 1003 1003 1003 1003 1003 1003 1003 
1003 1003 1003 1003 1003 1003 1003 1003 1003 
1003 1003 1003 1003 1003 1003 1003 1003 1003 
1003 1003 1003 1003 1003 1003 1003 1003 1003 
1003 1003 1003 1003 1003 1003 1003 1003 1003 
1003 1003 1003 1003 1003 1003 1003 1003 1003 
1003 1003 1003 1003 1003 1003 1003 1003 1003 
1003 1003 1003 1003 1003 1003 1003 1003 1003 
1003 1003 1003 1003 1003 1003 1003 1003 1003 
1003 1003 1003 1003 1003 1003 1003 1003 1003 
1003 1003 1003 1003 1003 1003 1003 1003 1003 
1003 1003 1003 1003 1003 1003 1003 1003 1003 
1003 1003 1003 1003 1003 1003 1003 1003 1003 
1003 1003 1003 1003 1003 1003 1003 1003 1003 
1003 1003 1003 1003 1003 1003 1003 1003 1003 
1003 1003 1003 1003 1003 1003 1003 1003 1003 
1003 1003 1003 1003 1003 1003 1003 1003 1003 
1003 1003 1003 1003 1003 1003 1003 1003 1003 
1003 1003 1003 1003 1003 1003 1003 1003 1003 
1003 1003 1003 1003 1003 1003 1003 1003 1003 
1003 1003 1003 1003 1003 1003 1003 1003 1003 
1003 1003 1003 1003 1003 1003 1003 1003 1003 
1003 1003 1003 1003 1003 1003 1003 1003 1003 
1003 1003 1003 1003 1003 1003 1003 1003 1003 
1003 1003 1003 1003 1003 1003 1003 1003 1003 
1003 1003 1003 1003 1003 1003 1003 1003 1003 
1003 1003 1003 1003 1003 1003 1003 1003 1003 
1003 1003 1003 1003 1003 1003 1003 1003 1003 
1003 1003 1003 1003 1003 1003 1003 1003 1003 
1003 1003 1003 1003 1003 1003 1003 1003 1003 
1003 1003 1003 1003 1003 1003 1003 1003 1003 
1003 1003 1003 1003 1003 1003 1003 1003 1003 
1003 1003 1003 1003 1003 1003 1003 1003 1003 
1003 1003 1003 1003 1003 1003 1003 1003 1003 
1003 1003 1003 1003 1003 1003 1003 1003 1003 
1003 1003 1003 1003 1003 1003 1003 1003 1003 
1003 1003 1003 1003 1003 1003 1003 1003 1003 
1003 1003 1003 1003 1003 1003 1003 1003 1003 
1003 1003 1003 1003 1003 1003 1003 1003 1003 
1003 1003 1003 1003 1003 1003 1003 1003 1003 
1003 1003 1003 1003 1003 1003 1003 1003 1003 
1003 1003 1003 1003 1003 1003 1003 1003 1003 
1003 1003 1003 1003 1003 1003 1003 1003 1003 
1003 1003 1003 1003 1003 1003 1003 1003 1003 
1003 1003 1003 1003 1003 1003 1003 1003 1003 
1003 1003 1003 1003 1003 1003 1003 1003 1003 
1003 1003 1003 1003 1003 1003 1003 1003 1003 
1003 1003 1003 1003 1003 1003 1003 1003 1003 
1003 1003 1003 1003 1003 1003 1003 1003 1003 
1003 1003 1003 1003 1003 1003 1003 1003 1003 
1003 1003 1003 1003 1003 1003 1003 1003 1003 
1003 1003 1003 1003 1003 1003 1003 1003 1003 
1003 1003 1003 1003 1003 1003 1003 1003 1003 
1003 1003 1003 1003 1003 1003 1003 1003 1003 
1003 1003 1003 1003 1003 1003 1003 1003 1003 
1003 1003 1003 1003 1003 1003 1003 1003 1003 
1003 1003 1003 1003 1003 1003 1003 1003 1003 
1003 1003 1003 1003 1003 1003 1003 1003 1003 
1003 1003 1003 1003 1003 1003 1003 1003 1003 
1003 1003 1003 1003 1003 1003 1003 1003 1003 
1003 1003 1003 1003 1003 1003 1003 1003 1003 
1003 1003 1003 1003 1003 1003 1003 1003 1003 
1003 1003 1003 1003 1003 1003 1003 1003 1003 
1003 1003 1003 1003 1003 1003 1003 1003 1003 
1003 1003 1003 1003 1003 1003 1003 1003 1003 
1003 1003 1003 1003 1003 1003 1003 1003 1003 
1003 1003 1003 1003 1003 1003 1003 1003 1003 