# vtk DataFile Version 4.2
vtk output
ASCII
DATASET POLYDATA
POINTS 3324 float
0.0899185 67.8793 4.28831 0.313962 67.1853 4.86951 0.888163 67.5921 4.41621 
-0.751794 67.8189 4.31845 -0.525326 67.5422 4.78209 -1.0388 67.3165 4.54313 
2.04131 67.8071 3.40504 2.27839 67.4889 3.89804 2.74717 67.4498 3.32077 
1.04011 67.9348 3.59031 1.67618 67.5219 4.1217 0.12468 68.064 3.33889 
-0.612397 67.9386 3.52592 -1.28053 67.3684 3.79942 2.21858 67.8752 2.4732 
2.87059 67.5089 2.21519 1.30551 68.0446 2.5026 0.291975 68.0641 2.47092 
-0.579337 67.9463 2.48913 -1.25921 67.5739 2.74403 2.16557 67.8015 1.5168 
2.66592 67.4287 1.37951 1.30092 68.0552 1.48138 0.295887 68.0845 1.43882 
-0.599624 67.9209 1.43976 -1.2729 67.5727 1.67536 2.13336 67.5832 0.839084 
1.8551 67.5318 0.0832056 1.32232 67.9256 0.487218 0.434764 68.0842 0.595812 
-0.427607 67.8807 0.354337 -1.26997 67.352 0.49127 1.25118 67.7966 -0.369101 
1.65856 67.5162 -0.504492 0.411356 67.8726 -0.355969 -0.393776 67.3753 -0.666086 
-0.850826 67.3708 -0.181045 1.21246 67.3994 -0.993043 0.25721 67.4164 -1.11706 
2.33874 66.661 7.49574 2.4847 66.2428 7.78362 2.59152 66.5084 7.34969 
1.82464 66.2506 7.3817 2.26351 66.4377 7.08881 2.21874 66.9963 4.31096 
2.17995 66.467 4.85442 2.77895 66.4564 4.50222 1.25646 67.1636 4.62247 
1.36699 66.5726 5.0116 0.243928 66.3625 5.15356 -0.61908 66.796 4.89886 
-1.28387 66.4151 4.42762 4.03372 66.8057 3.38066 4.22677 66.4996 3.85491 
4.71644 66.4516 3.30773 3.21827 66.9268 3.70048 3.61243 66.4775 4.07364 
-1.72001 66.5899 3.8148 -1.78591 66.9613 3.13931 -2.03711 66.2596 3.46453 
4.23155 66.8621 2.48278 4.87409 66.4988 2.23124 3.49999 67.1488 2.7589 
-1.79301 67.0663 2.1501 -2.14744 66.3476 2.71182 4.20885 66.7571 1.53309 
4.68437 66.4174 1.39394 3.38008 67.1068 1.61019 -1.78653 67.0694 1.12054 
-2.15282 66.4023 1.67936 4.14936 66.5201 0.877408 3.70488 66.3996 0.268458 
3.37892 66.7888 0.588815 2.59633 67.1964 0.647212 -1.77533 66.9525 0.470592 
-2.06128 66.425 0.725041 3.10877 66.5146 -0.16375 2.67898 66.431 -0.750449 
2.31998 67.0005 -0.344926 -0.789768 67.0135 -0.610144 -1.14205 66.5733 -0.510909 
-1.69211 66.3619 0.0351735 2.01693 66.7113 -1.17128 1.36995 66.8819 -1.5371 
1.86312 66.3753 -1.66192 0.604358 66.9783 -1.59355 -0.191383 66.8042 -1.43843 
-0.742092 66.5274 -1.0892 1.0918 66.2904 -1.91324 0.0626606 66.255 -1.88043 
5.06656 65.7765 7.44518 5.15389 65.3955 7.93572 5.61393 65.4477 7.51501 
4.12497 65.9115 7.38145 4.34507 65.4167 7.8687 3.13566 66.1465 7.354 
3.35097 65.6767 7.87142 2.53688 65.3496 8.16333 1.07104 65.9449 7.5229 
1.61649 65.75 8.02179 0.49366 65.7442 7.38133 0.592766 65.6121 7.91846 
-0.0680033 65.3152 7.64318 5.25037 65.6133 6.89961 4.75956 65.4192 6.29271 
4.54808 65.7815 6.75115 3.42707 65.8669 6.49434 2.3258 66.0481 6.50122 
1.75175 65.8111 6.66144 1.01481 65.4814 6.93255 0.25657 65.3123 7.16506 
3.93617 65.4342 6.03205 3.14867 65.4998 5.78568 2.95116 65.485 5.31299 
2.43826 65.9912 5.42825 1.24858 65.4211 6.10296 1.15994 65.9397 5.5943 
0.138889 65.7858 5.42847 0.331018 65.2947 5.78087 -0.353576 65.3195 5.55604 
4.17454 65.9691 4.27603 4.30971 65.3703 4.78327 4.81702 65.5449 4.31656 
3.13065 65.9294 4.75193 3.54192 65.4125 5.02397 -0.629053 65.8248 5.08906 
-1.29081 65.1833 4.68942 5.23894 65.8871 3.56612 5.33407 65.3286 4.06656 
5.76856 65.3279 3.48055 -1.78297 65.7328 4.00415 -2.1382 65.4656 3.38119 
6.09293 65.8701 2.45136 6.24894 65.1569 2.90985 6.75976 65.4861 2.28657 
5.36721 66.1951 2.68447 -2.28906 65.4561 2.49512 7.11203 65.894 1.40294 
7.47169 65.2025 1.88955 7.88811 65.6146 1.28377 6.16754 66.0312 1.32748 
5.35116 66.144 1.60794 -2.28168 65.513 1.46772 8.05336 65.7996 0.693867 
8.4928 65.5066 0.851559 8.63534 65.5481 0.440578 7.46822 65.8885 0.470065 
6.56688 65.9073 0.587261 5.41491 65.8921 0.479813 4.41738 66.1597 0.522909 
-2.10757 65.5157 0.566155 8.26612 65.4054 0.0196515 7.07589 65.5376 -0.0527271 
6.03276 65.5041 -0.0337359 5.15985 65.5543 -0.196844 4.74693 65.4782 -0.550697 
4.31642 65.8083 -0.42407 3.39123 66.1435 -0.514903 -1.3963 65.6653 -0.561589 
-1.74843 65.2526 -0.0879568 4.3657 65.3566 -1.0536 3.83503 65.2907 -1.62843 
3.46795 65.7714 -1.28702 2.61382 66.0611 -1.41283 -0.583976 66.0695 -1.63722 
-1.04934 65.5419 -1.23247 3.18849 65.3665 -1.86686 2.13288 65.5649 -2.06082 
1.12091 65.546 -2.20479 0.178321 65.435 -2.1648 -0.600538 65.3885 -1.8659 
5.42412 64.9227 8.30184 5.4142 64.2911 8.7862 5.85254 64.5309 8.45951 
4.86027 64.1521 8.54875 1.94587 64.9547 8.52604 1.99913 64.2002 8.6808 
2.51085 64.6123 8.41101 0.98641 65.0869 8.51334 1.27059 64.3428 8.85864 
-0.0992245 65.0064 8.36677 0.231149 64.4284 8.8651 -0.755294 64.7399 8.4685 
-0.58892 64.5524 8.74436 -0.989843 64.3053 8.57608 6.08109 64.9472 7.60926 
6.37071 64.1885 8.02685 6.60291 64.5266 7.27734 4.3747 64.5632 8.12187 
3.17601 64.5526 8.09397 -0.696623 64.4407 8.00457 -0.194626 64.7469 7.35622 
6.20801 64.8994 6.46757 6.71769 64.4229 6.44964 5.47216 65.2076 6.51295 
1.14357 65.0864 6.37951 0.727068 64.4347 6.43746 0.379197 64.4287 6.91319 
6.18551 64.782 5.55078 6.76608 64.3692 5.72097 5.48254 65.0018 5.61579 
4.41148 65.1512 5.4988 3.43312 65.2298 5.52289 0.512411 64.6586 6.08186 
-0.837873 65.0518 5.3499 -0.386411 64.59 5.75305 -1.03109 64.332 5.1632 
6.38992 64.3762 5.00042 5.82648 64.6355 4.14463 5.26405 65.0203 4.78951 
-1.42255 64.2695 4.51519 5.97841 64.6905 3.46083 -1.78253 64.7209 4.03414 
-2.13147 64.4388 3.35487 6.23269 64.5636 3.08954 6.73443 64.6778 2.58617 
-2.29144 64.4293 2.47063 10.0873 64.8131 1.3519 10.1288 64.3192 1.81115 
10.616 64.5746 1.21169 9.20669 64.8933 1.48956 9.5106 64.5919 1.92906 
8.41631 65.1726 1.37733 8.42215 64.6287 1.98115 7.46024 64.477 2.20485 
-2.28664 64.4959 1.48063 10.4192 64.769 0.721555 10.6321 64.4276 0.700507 
9.3196 65.0737 0.617637 -2.1349 64.3742 0.497803 10.1359 64.4317 0.303893 
9.22002 64.583 -0.142422 8.38823 64.8721 -0.518807 8.80034 64.5251 -0.601837 
7.5521 65.0174 -0.568266 6.51823 65.0002 -0.540109 5.41116 65.1014 -0.597306 
-1.40411 64.6573 -0.782172 -1.79223 64.4173 -0.205904 8.24514 64.3767 -0.989586 
7.04152 64.4886 -1.05316 6.02577 64.4673 -1.0294 5.07662 64.661 -1.16032 
4.41323 64.8841 -1.47789 4.79748 64.4596 -1.51456 -1.08413 64.4561 -1.6578 
4.21561 64.4609 -1.94855 3.08286 64.753 -2.25063 2.37286 64.8291 -2.46343 
2.81721 64.4687 -2.5476 1.53839 65.0158 -2.52913 0.57688 64.9569 -2.55676 
-0.27105 64.3684 -2.67388 -0.677417 64.5105 -2.1924 2.25844 64.3511 -2.9387 
1.0385 64.5292 -3.05252 0.251632 64.3692 -3.05348 5.17676 63.7367 8.74715 
5.76453 63.6036 8.44972 4.72879 63.4738 8.33557 2.40948 64.0254 8.37707 
2.027 63.6061 8.53165 1.55562 63.4291 8.84292 0.556966 63.4457 9.10673 
-0.566732 63.7613 9.00435 -1.10701 63.4411 8.64936 6.6491 63.2488 8.00199 
6.90442 63.5633 7.26298 4.0902 63.4733 8.01478 3.40575 63.7118 8.04093 
2.60518 63.5349 8.22955 -0.274362 63.8137 7.39207 -0.816596 63.2474 7.94823 
7.0075 63.7607 6.27405 0.742734 63.5559 6.45969 0.448184 63.2411 6.92718 
7.13055 63.8852 5.54893 7.34716 63.1936 5.91947 7.56439 63.2485 5.23885 
0.250221 63.6349 5.98964 -0.571777 63.899 5.5777 -0.315033 63.1479 5.51496 
7.0354 63.6614 4.90552 6.41922 63.9409 4.44596 6.83663 63.4327 4.13945 
-0.827561 63.5618 5.16175 -1.24581 63.319 4.45115 6.36902 64.0374 3.49988 
6.89796 63.4742 3.35956 2.91811 63.8917 3.39805 3.745 63.4132 3.47804 
3.03104 63.3571 3.92707 2.46379 63.5629 3.82058 2.23351 63.8471 3.32345 
1.97758 63.3065 3.55006 -1.74522 63.7626 3.95227 -2.07119 63.369 3.16836 
9.20895 63.9435 2.38664 9.28792 63.2308 2.75383 9.57088 63.3857 2.46578 
8.54353 63.2989 2.95342 8.003 63.9782 2.46006 7.08157 63.9432 2.71023 
7.55554 63.4412 3.02093 3.16152 63.9744 2.47181 3.82936 63.5588 2.21909 
2.36421 63.9829 2.50526 1.82723 63.4102 2.78454 -2.26926 63.5873 2.3359 
10.4118 64.066 1.15709 9.87312 63.4764 1.80248 3.15255 63.882 1.48796 
3.63533 63.4964 1.33686 2.39953 63.9619 1.44545 1.82103 63.4395 1.72483 
-2.26821 63.4505 1.49092 10.4039 64.085 0.556176 9.96215 63.5262 0.324676 
3.0979 63.6527 0.831699 2.48924 63.8038 0.641828 2.74887 63.5771 0.37798 
1.85298 63.2984 0.588263 -2.26884 63.3049 0.657482 10.2911 63.2998 -0.315505 
10.4511 63.4102 -0.52035 10.1852 63.5946 -0.381328 9.41843 63.9874 -0.565275 
2.38861 63.2703 -0.0197206 -1.65558 63.9253 -0.68668 -2.10311 63.4285 -0.28794 
10.0675 63.4297 -0.701137 9.21386 63.5693 -1.13463 8.37803 63.8298 -1.50944 
8.90041 63.33 -1.64606 7.55146 63.9802 -1.53696 6.5608 63.9453 -1.51482 
5.45553 64.0522 -1.56647 -1.40103 63.5792 -1.49477 -1.79027 63.3215 -1.08106 
8.12727 63.244 -1.86108 7.1495 63.4601 -1.84344 6.1823 63.3407 -1.9946 
5.11055 63.6239 -2.13229 4.37146 63.7652 -2.4204 4.72538 63.3493 -2.66147 
3.45567 64.0872 -2.58649 -0.776622 63.92 -2.56337 -1.07947 63.498 -2.42152 
4.01528 63.4384 -2.94583 3.12607 63.6749 -3.16503 2.39741 63.8313 -3.46327 
2.90285 63.3208 -3.59703 1.54923 64.0182 -3.54442 0.571909 63.9687 -3.56513 
-0.199087 63.7394 -3.39679 -0.756197 63.4557 -3.06863 2.11529 63.278 -3.85692 
1.01066 63.3852 -3.93019 0.0508714 63.2227 -3.88594 2.97668 62.7287 9.23396 
3.37294 62.2935 9.73503 3.53804 62.4991 9.25342 2.8412 62.1836 9.51771 
-0.100688 62.9227 9.51379 0.111222 62.231 10.043 0.63417 62.4115 9.57861 
-0.831588 63.0086 9.32583 -0.562312 62.4895 9.76959 -1.09804 62.4571 9.34952 
5.09846 63.2379 8.28425 3.28285 62.9785 8.39302 3.84016 62.3168 8.47275 
2.09494 62.5155 9.01461 2.31825 63.1171 8.65869 1.19451 62.4821 9.08857 
-1.12073 62.5264 8.6086 7.25097 62.8214 7.61958 7.07121 62.4836 7.74879 
7.46792 62.3941 7.50603 6.21702 62.694 7.87645 5.35934 62.8251 7.73065 
5.77375 62.2511 7.2399 4.56932 62.8989 7.59589 3.96766 62.6606 7.66316 
-0.273385 62.6197 7.53275 -0.736978 62.4038 8.09885 7.17245 62.5178 7.1461 
6.93395 62.6857 6.50136 5.01373 62.4168 7.11115 4.52486 62.2332 7.13116 
1.16676 62.925 6.51619 1.77879 62.3685 6.35451 1.29839 62.3214 6.79986 
0.302818 62.3298 7.12005 7.24894 62.2869 6.16318 7.68955 62.4783 5.61524 
[...]
CELL_DATA 6656
SCALARS scalars float
LOOKUP_TABLE default
2026 2026 2026 2026 2026 2026 2026 2026 2026 
2026 2026 2026 2026 2026 2026 2026 2026 2026 
2026 2026 2026 2026 2026 2026 2026 2026 2026 
2026 2026 2026 2026 2026 2026 2026 2026 2026 
2026 2026 2026 2026 2026 2026 2026 2026 2026 
2026 2026 2026 2026 2026 2026 2026 2026 2026 
2026 2026 2026 2026 2026 2026 2026 2026 2026 
2026 2026 2026 2026 2026 2026 2026 2026 2026 
2026 2026 2026 2026 2026 2026 2026 2026 2026 
2026 2026 2026 2026 2026 2026 2026 2026 2026 
2026 2026 2026 2026 2026 2026 2026 2026 2026 
2026 2026 2026 2026 2026 2026 2026 2026 2026 
2026 2026 2026 2026 2026 2026 2026 2026 2026 
2026 2026 2026 2026 2026 2026 2026 2026 2026 
2026 2026 2026 2026 2026 2026 2026 2026 2026 
2026 2026 2026 2026 2026 2026 2026 2026 2026 
2026 2026 2026 2026 2026 2026 2026 2026 2026 
2026 2026 2026 2026 2026 2026 2026 2026 2026 
2026 2026 2026 2026 2026 2026 2026 2026 2026 
2026 2026 2026 2026 2026 2026 2026 2026 2026 
2026 2026 2026 2026 2026 2026 2026 2026 2026 
2026 2026 2026 2026 2026 2026 2026 2026 2026 
2026 2026 2026 2026 2026 2026 2026 2026 2026 
2026 2026 2026 2026 2026 2026 2026 2026 2026 
2026 2026 2026 2026 2026 2026 2026 2026 2026 
2026 2026 2026 2026 2026 2026 2026 2026 2026 
2026 2026 2026 2026 2026 2026 2026 2026 2026 
2026 2026 2026 2026 2026 2026 2026 2026 2026 
2026 2026 2026 2026 2026 2026 2026 2026 2026 
2026 2026 2026 2026 2026 2026 2026 2026 2026 
2026 2026 2026 2026 2026 2026 2026 2026 2026 
2026 2026 2026 2026 2026 2026 2026 2026 2026 
2026 2026 2026 2026 2026 2026 2026 2026 2026 
2026 2026 2026 2026 2026 2026 2026 2026 2026 
2026 2026 2026 2026 2026 2026 2026 2026 2026 
2026 2026 2026 2026 2026 2026 2026 2026 2026 
2026 2026 2026 2026 2026 2026 2026 2026 2026 
2026 2026 2026 2026 2026 2026 2026 2026 2026 
2026 2026 2026 2026 2026 2026 2026 2026 2026 
2026 2026 2026 2026 2026 2026 2026 2026 2026 
2026 2026 2026 2026 2026 2026 2026 2026 2026 
2026 2026 2026 2026 2026 2026 2026 2026 2026 
2026 2026 2026 2026 2026 2026 2026 2026 2026 
2026 2026 2026 2026 2026 2026 2026 2026 2026 
2026 2026 2026 2026 2026 2026 2026 2026 2026 
2026 2026 2026 2026 2026 2026 2026 2026 2026 
2026 2026 2026 2026 2026 2026 2026 2026 2026 
2026 2026 2026 2026 2026 2026 2026 2026 2026 
2026 2026 2026 2026 2026 2026 2026 2026 2026 
2026 2026 2026 2026 2026 2026 2026 2026 2026 
2026 2026 2026 2026 2026 2026 2026 2026 2026 
2026 2026 2026 2026 2026 2026 2026 2026 2026 
2026 2026 2026 2026 2026 2026 2026 2026 2026 
2026 2026 2026 2026 2026 2026 2026 2026 2026 
2026 2026 2026 2026 2026 2026 2026 2026 2026 
2026 2026 2026 2026 2026 2026 2026 2026 2026 
2026 2026 2026 2026 2026 2026 2026 2026 2026 
2026 2026 2026 2026 2026 2026 2026 2026 2026 
2026 2026 2026 2026 2026 2026 2026 2026 2026 
2026 2026 2026 2026 2026 2026 2026 2026 2026 
2026 2026 2026 2026 2026 2026 2026 2026 2026 
2026 2026 2026 2026 2026 2026 2026 2026 2026 
2026 2026 2026 2026 2026 2026 2026 2026 2026 
2026 2026 2026 2026 2026 2026 2026 2026 2026 
2026 2026 2026 2026 2026 2026 2026 2026 2026 
2026 2026 2026 2026 2026 2026 2026 2026 2026 
2026 2026 2026 2026 2026 2026 2026 2026 2026 
2026 2026 2026 2026 2026 2026 2026 2026 2026 
2026 2026 2026 2026 2026 2026 2026 2026 2026 
2026 2026 2026 2026 2026 2026 2026 2026 2026 
2026 2026 2026 2026 2026 2026 2026 2026 2026 
2026 2026 2026 2026 2026 2026 2026 2026 2026 
2026 2026 2026 2026 2026 2026 2026 2026 2026 
2026 2026 2026 2026 2026 2026 2026 2026 2026 
2026 2026 2026 2026 2026 2026 2026 2026 2026 
2026 2026 2026 2026 2026 2026 2026 2026 2026 
2026 2026 2026 2026 2026 2026 2026 2026 2026 
2026 2026 2026 2026 2026 2026 2026 2026 2026 
2026 2026 2026 2026 2026 2026 2026 2026 2026 
2026 2026 2026 2026 2026 2026 2026 2026 2026 
2026 2026 2026 2026 2026 2026 2026 2026 2026 
2026 2026 2026 2026 2026 2026 2026 2026 2026 
2026 2026 2026 2026 2026 2026 2026 2026 2026 
2026 2026 2026 2026 2026 2026 2026 2026 2026 
2026 2026 2026 2026 2026 2026 2026 2026 2026 
2026 2026 2026 2026 2026 2026 2026 2026 2026 
2026 2026 2026 2026 2026 2026 2026 2026 2026 
2026 2026 2026 2026 2026 2026 2026 2026 2026 
2026 2026 2026 2026 2026 2026 2026 2026 2026 
2026 2026 2026 2026 2026 2026 2026 2026 2026 
2026 2026 2026 2026 2026 2026 2026 2026 2026 
2026 2026 2026 2026 2026 2026 2026 2026 2026 
2026 2026 2026 2026 2026 2026 2026 2026 2026 
2026 2026 2026 2026 2026 2026 2026 2026 2026 
2026 2026 2026 2026 2026 2026 2026 2026 2026 
2026 2026 2026 2026 2026 2026 2026 2026 2026 
2026 2026 2026 2026 2026 2026 2026 2026 2026 
2026 2026 2026 2026 2026 2026 2026 2026 2026 
2026 2026 2026 2026 2026 2026 2026 2026 2026 
2026 2026 2026 2026 2026 2026 2026 2026 2026 
2026 2026 2026 2026 2026 2026 2026 2026 2026 
2026 2026 2026 2026 2026 2026 2026 2026 2026 
2026 2026 2026 2026 2026 2026 2026 2026 2026 
2026 2026 2026 2026 2026 2026 2026 2026 2026 
2026 2026 2026 2026 2026 2026 2026 2026 2026 
2026 2026 2026 2026 2026 2026 2026 2026 2026 
2026 2026 2026 2026 2026 2026 2026 2026 2026 
2026 2026 2026 2026 2026 2026 2026 2026 2026 
2026 2026 2026 2026 2026 2026 2026 2026 2026 
2026 2026 2026 2026 2026 2026 2026 2026 2026 
2026 2026 2026 2026 2026 2026 2026 2026 2026 
2026 2026 2026 2026 2026 2026 2026 2026 2026 
2026 2026 2026 2026 2026 2026 2026 2026 2026 
2026 2026 2026 2026 2026 2026 2026 2026 2026 
2026 2026 2026 2026 2026 2026 2026 2026 2026 
2026 2026 2026 2026 2026 2026 2026 2026 2026 
2026 2026 2026 2026 2026 2026 2026 2026 2026 
2026 2026 2026 2026 2026 2026 2026 2026 2026 
2026 2026 2026 2026 2026 2026 2026 2026 2026 
2026 2026 2026 2026 2026 2026 2026 2026 2026 
2026 2026 2026 2026 2026 2026 2026 2026 2026 
2026 2026 2026 2026 2026 2026 2026 2026 2026 
2026 2026 2026 2026 2026 2026 2026 2026 2026 
2026 2026 2026 2026 2026 2026 2026 2026 2026 
2026 2026 2026 2026 2026 2026 2026 2026 2026 
2026 2026 2026 2026 2026 2026 2026 2026 2026 
2026 2026 2026 2026 2026 2026 2026 2026 2026 
2026 2026 2026 2026 2026 2026 2026 2026 2026 
2026 2026 2026 2026 2026 2026 2026 2026 2026 
2026 2026 2026 2026 2026 2026 2026 2026 2026 
2026 2026 2026 2026 2026 2026 2026 2026 2026 
2026 2026 2026 2026 2026 2026 2026 2026 2026 
2026 2026 2026 2026 2026 2026 2026 2026 2026 
2026 2026 2026 2026 2026 2026 2026 2026 2026 
2026 2026 2026 2026 2026 2026 2026 2026 2026 
2026 2026 2026 2026 2026 2026 2026 2026 2026 
2026 2026 2026 2026 2026 2026 2026 2026 2026 
2026 2026 2026 2026 2026 2026 2026 2026 2026 
2026 2026 2026 2026 2026 2026 2026 2026 2026 
2026 2026 2026 2026 2026 2026 2026 2026 2026 
2026 2026 2026 2026 2026 2026 2026 2026 2026 
2026 2026 2026 2026 2026 2026 2026 2026 2026 
2026 2026 2026 2026 2026 2026 2026 2026 2026 
2026 2026 2026 2026 2026 2026 2026 2026 2026 
2026 2026 2026 2026 2026 2026 2026 2026 2026 
2026 2026 2026 2026 2026 2026 2026 2026 2026 
2026 2026 2026 2026 2026 2026 2026 2026 2026 
2026 2026 2026 2026 2026 2026 2026 2026 2026 
2026 2026 2026 2026 2026 2026 2026 2026 2026 
2026 2026 2026 2026 2026 2026 2026 2026 2026 
2026 2026 2026 2026 2026 2026 2026 2026 2026 
2026 2026 2026 2026 2026 2026 2026 2026 2026 
2026 2026 2026 2026 2026 2026 2026 2026 2026 
2026 2026 2026 2026 2026 2026 2026 2026 2026 
2026 2026 2026 2026 2026 2026 2026 2026 2026 
2026 2026 2026 2026 2026 2026 2026 2026 2026 
2026 2026 2026 2026 2026 2026 2026 2026 2026 
2026 2026 2026 2026 2026 2026 2026 2026 2026 
2026 2026 2026 2026 2026 2026 2026 2026 2026 
2026 2026 2026 2026 2026 2026 2026 2026 2026 
2026 2026 2026 2026 2026 2026 2026 2026 2026 
2026 2026 2026 2026 2026 2026 2026 2026 2026 
2026 2026 2026 2026 2026 2026 2026 2026 2026 
2026 2026 2026 2026 2026 2026 2026 2026 2026 
2026 2026 2026 2026 2026 2026 2026 2026 2026 
2026 2026 2026 2026 2026 2026 2026 2026 2026 
2026 2026 2026 2026 2026 2026 2026 2026 2026 
2026 2026 2026 2026 2026 2026 2026 2026 2026 
2026 2026 2026 2026 2026 2026 2026 2026 2026 
2026 2026 2026 2026 2026 2026 2026 2026 2026 
2026 2026 2026 2026 2026 2026 2026 2026 2026 
2026 2026 2026 2026 2026 2026 2026 2026 2026 
2026 2026 2026 2026 2026 2026 2026 2026 2026 
2026 2026 2026 2026 2026 2026 2026 2026 2026 
2026 2026 2026 2026 2026 2026 2026 2026 2026 
2026 2026 2026 2026 2026 2026 2026 2026 2026 
2026 2026 2026 2026 2026 2026 2026 2026 2026 
2026 2026 2026 2026 2026 2026 2026 2026 2026 
2026 2026 2026 2026 2026 2026 2026 2026 2026 
2026 2026 2026 2026 2026 2026 2026 2026 2026 
2026 2026 2026 2026 2026 2026 2026 2026 2026 
2026 2026 2026 2026 2026 2026 2026 2026 2026 
2026 2026 2026 2026 2026 2026 2026 2026 2026 
2026 2026 2026 2026 2026 2026 2026 2026 2026 
2026 2026 2026 2026 2026 2026 2026 2026 2026 
2026 2026 2026 2026 2026 2026 2026 2026 2026 
2026 2026 2026 2026 2026 2026 2026 2026 2026 
2026 2026 2026 2026 2026 2026 2026 2026 2026 
2026 2026 2026 2026 2026 2026 2026 2026 2026 
2026 2026 2026 2026 2026 2026 2026 2026 2026 
2026 2026 2026 2026 2026 2026 2026 2026 2026 
2026 2026 2026 2026 2026 2026 2026 2026 2026 
2026 2026 2026 2026 2026 2026 2026 2026 2026 
2026 2026 2026 2026 2026 2026 2026 2026 2026 
2026 2026 2026 2026 2026 2026 2026 2026 2026 
2026 2026 2026 2026 2026 2026 2026 2026 2026 
2026 2026 2026 2026 2026 2026 2026 2026 2026 
2026 2026 2026 2026 2026 2026 2026 2026 2026 
2026 2026 2026 2026 2026 2026 2026 2026 2026 
2026 2026 2026 2026 2026 2026 2026 2026 2026 
2026 2026 2026 2026 2026 2026 2026 2026 2026 
2026 2026 2026 2026 2026 2026 2026 2026 2026 
2026 2026 2026 2026 2026 2026 2026 2026 2026 
2026 2026 2026 2026 2026 2026 2026 2026 2026 
2026 2026 2026 2026 2026 2026 2026 2026 2026 
2026 2026 2026 2026 2026 2026 2026 2026 2026 
2026 2026 2026 2026 2026 2026 2026 2026 2026 
2026 2026 2026 2026 2026 2026 2026 2026 2026 
2026 2026 2026 2026 2026 2026 2026 2026 2026 
2026 2026 2026 2026 2026 2026 2026 2026 2026 
2026 2026 2026 2026 2026 2026 2026 2026 2026 
2026 2026 2026 2026 2026 2026 2026 2026 2026 
2026 2026 2026 2026 2026 2026 2026 2026 2026 
2026 2026 2026 2026 2026 2026 2026 2026 2026 
2026 2026 2026 2026 2026 2026 2026 2026 2026 
2026 2026 2026 2026 2026 2026 2026 2026 2026 
2026 2026 2026 2026 2026 2026 2026 2026 2026 
2026 2026 2026 2026 2026 2026 2026 2026 2026 
2026 2026 2026 2026 2026 2026 2026 2026 2026 
2026 2026 2026 2026 2026 2026 2026 2026 2026 
2026 2026 2026 2026 2026 2026 2026 2026 2026 
2026 2026 2026 2026 2026 2026 2026 2026 2026 
2026 2026 2026 2026 2026 2026 2026 2026 2026 
2026 2026 2026 2026 2026 2026 2026 2026 2026 
2026 2026 2026 2026 2026 2026 2026 2026 2026 
2026 2026 2026 2026 2026 2026 2026 2026 2026 
2026 2026 2026 2026 2026 2026 2026 2026 2026 
2026 2026 2026 2026 2026 2026 2026 2026 2026 
2026 2026 2026 2026 2026 2026 2026 2026 2026 
2026 2026 2026 2026 2026 2026 2026 2026 2026 
2026 2026 2026 2026 2026 2026 2026 2026 2026 
2026 2026 2026 2026 2026 2026 2026 2026 2026 
2026 2026 2026 2026 2026 2026 2026 2026 2026 
2026 2026 2026 2026 2026 2026 2026 2026 2026 
2026 2026 2026 2026 2026 2026 2026 2026 2026 
2026 2026 2026 2026 2026 2026 2026 2026 2026 
2026 2026 2026 2026 2026 2026 2026 2026 2026 
2026 2026 2026 2026 2026 2026 2026 2026 2026 
2026 2026 2026 2026 2026 2026 2026 2026 2026 
2026 2026 2026 2026 2026 2026 2026 2026 2026 
2026 2026 2026 2026 2026 2026 2026 2026 2026 
2026 2026 2026 2026 2026 2026 2026 2026 2026 
2026 2026 2026 2026 2026 2026 2026 2026 2026 
2026 2026 2026 2026 2026 2026 2026 2026 2026 
2026 2026 2026 2026 2026 2026 2026 2026 2026 
2026 2026 2026 2026 2026 2026 2026 2026 2026 
2026 2026 2026 2026 2026 2026 2026 2026 2026 
2026 2026 2026 2026 2026 2026 2026 2026 2026 
2026 2026 2026 2026 2026 2026 2026 2026 2026 
2026 2026 2026 2026 2026 2026 2026 2026 2026 
2026 2026 2026 2026 2026 2026 2026 2026 2026 
2026 2026 2026 2026 2026 2026 2026 2026 2026 
2026 2026 2026 2026 2026 2026 2026 2026 2026 
2026 2026 2026 2026 2026 2026 2026 2026 2026 
2026 2026 2026 2026 2026 2026 2026 2026 2026 
2026 2026 2026 2026 2026 2026 2026 2026 2026 
2026 2026 2026 2026 2026 2026 2026 2026 2026 
2026 2026 2026 2026 2026 2026 2026 2026 2026 
2026 2026 2026 2026 2026 2026 2026 2026 2026 
2026 2026 2026 2026 2026 2026 2026 2026 2026 
2026 2026 2026 2026 2026 2026 2026 2026 2026 
2026 2026 2026 2026 2026 2026 2026 2026 2026 
2026 2026 2026 2026 2026 2026 2026 2026 2026 
2026 2026 2026 2026 2026 2026 2026 2026 2026 
2026 2026 2026 2026 2026 2026 2026 2026 2026 
2026 2026 2026 2026 2026 2026 2026 2026 2026 
2026 2026 2026 2026 2026 2026 2026 2026 2026 
2026 2026 2026 2026 2026 2026 2026 2026 2026 
2026 2026 2026 2026 2026 2026 2026 2026 2026 
2026 2026 2026 2026 2026 2026 2026 2026 2026 
2026 2026 2026 2026 2026 2026 2026 2026 2026 
2026 2026 2026 2026 2026 2026 2026 2026 2026 
2026 2026 2026 2026 2026 2026 2026 2026 2026 
2026 2026 2026 2026 2026 2026 2026 2026 2026 
2026 2026 2026 2026 2026 2026 2026 2026 2026 
2026 2026 2026 2026 2026 2026 2026 2026 2026 
2026 2026 2026 2026 2026 2026 2026 2026 2026 
2026 2026 2026 2026 2026 2026 2026 2026 2026 
2026 2026 2026 2026 2026 2026 2026 2026 2026 
2026 2026 2026 2026 2026 2026 2026 2026 2026 
2026 2026 2026 2026 2026 2026 2026 2026 2026 
2026 2026 2026 2026 2026 2026 2026 2026 2026 
2026 2026 2026 2026 2026 2026 2026 2026 2026 
2026 2026 2026 2026 2026 2026 2026 2026 2026 
2026 2026 2026 2026 2026 2026 2026 2026 2026 
2026 2026 2026 2026 2026 2026 2026 2026 2026 
2026 2026 2026 2026 2026 2026 2026 2026 2026 
2026 2026 2026 2026 2026 2026 2026 2026 2026 
2026 2026 2026 2026 2026 2026 2026 2026 2026 
2026 2026 2026 2026 2026 2026 2026 2026 2026 
2026 2026 2026 2026 2026 2026 2026 2026 2026 
2026 2026 2026 2026 2026 2026 2026 2026 2026 
2026 2026 2026 2026 2026 2026 2026 2026 2026 
2026 2026 2026 2026 2026 2026 2026 2026 2026 
2026 2026 2026 2026 2026 2026 2026 2026 2026 
2026 2026 2026 2026 2026 2026 2026 2026 2026 
2026 2026 2026 2026 2026 2026 2026 2026 2026 
2026 2026 2026 2026 2026 2026 2026 2026 2026 
2026 2026 2026 2026 2026 2026 2026 2026 2026 
2026 2026 2026 2026 2026 2026 2026 2026 2026 
2026 2026 2026 2026 2026 2026 2026 2026 2026 
2026 2026 2026 2026 2026 2026 2026 2026 2026 
2026 2026 2026 2026 2026 2026 2026 2026 2026 
2026 2026 2026 2026 2026 2026 2026 2026 2026 
2026 2026 2026 2026 2026 2026 2026 2026 2026 
2026 2026 2026 2026 2026 2026 2026 2026 2026 
2026 2026 2026 2026 2026 2026 2026 2026 2026 
2026 2026 2026 2026 2026 2026 2026 2026 2026 
2026 2026 2026 2026 2026 2026 2026 2026 2026 
2026 2026 2026 2026 2026 2026 2026 2026 2026 
2026 2026 2026 2026 2026 2026 2026 2026 2026 
2026 2026 2026 2026 2026 2026 2026 2026 2026 
2026 2026 2026 2026 2026 2026 2026 2026 2026 
2026 2026 2026 2026 2026 2026 2026 2026 2026 
2026 2026 2026 2026 2026 2026 2026 2026 2026 
2026 2026 2026 2026 2026 2026 2026 2026 2026 
2026 2026 2026 2026 2026 2026 2026 2026 2026 
2026 2026 2026 2026 2026 2026 2026 2026 2026 
2026 2026 2026 2026 2026 2026 2026 2026 2026 
2026 2026 2026 2026 2026 2026 2026 2026 2026 
2026 2026 2026 2026 2026 2026 2026 2026 2026 
2026 2026 2026 2026 2026 2026 2026 2026 2026 
2026 2026 2026 2026 2026 2026 2026 2026 2026 
2026 2026 2026 2026 2026 2026 2026 2026 2026 
2026 2026 2026 2026 2026 2026 2026 2026 2026 
2026 2026 2026 2026 2026 2026 2026 2026 2026 
2026 2026 2026 2026 2026 2026 2026 2026 2026 
2026 2026 2026 2026 2026 2026 2026 2026 2026 
2026 2026 2026 2026 2026 2026 2026 2026 2026 
2026 2026 2026 2026 2026 2026 2026 2026 2026 
2026 2026 2026 2026 2026 2026 2026 2026 2026 
2026 2026 2026 2026 2026 2026 2026 2026 2026 
2026 2026 2026 2026 2026 2026 2026 2026 2026 
2026 2026 2026 2026 2026 2026 2026 2026 2026 
2026 2026 2026 2026 2026 2026 2026 2026 2026 
2026 2026 2026 2026 2026 2026 2026 2026 2026 
2026 2026 2026 2026 2026 2026 2026 2026 2026 
2026 2026 2026 2026 2026 2026 2026 2026 2026 
2026 2026 2026 2026 2026 2026 2026 2026 2026 
2026 2026 2026 2026 2026 2026 2026 2026 2026 
2026 2026 2026 2026 2026 2026 2026 2026 2026 
2026 2026 2026 2026 2026 2026 2026 2026 2026 
2026 2026 2026 2026 2026 2026 2026 2026 2026 
2026 2026 2026 2026 2026 2026 2026 2026 2026 
2026 2026 2026 2026 2026 2026 2026 2026 2026 
2026 2026 2026 2026 2026 2026 2026 2026 2026 
2026 2026 2026 2026 2026 2026 2026 2026 2026 
2026 2026 2026 2026 2026 2026 2026 2026 2026 
2026 2026 2026 2026 2026 2026 2026 2026 2026 
2026 2026 2026 2026 2026 2026 2026 2026 2026 
2026 2026 2026 2026 2026 2026 2026 2026 2026 
2026 2026 2026 2026 2026 2026 2026 2026 2026 
2026 2026 2026 2026 2026 2026 2026 2026 2026 
2026 2026 2026 2026 2026 2026 2026 2026 2026 
2026 2026 2026 2026 2026 2026 2026 2026 2026 
2026 2026 2026 2026 2026 2026 2026 2026 2026 
2026 2026 2026 2026 2026 2026 2026 2026 2026 
2026 2026 2026 2026 2026 2026 2026 2026 2026 
2026 2026 2026 2026 2026 2026 2026 2026 2026 
2026 2026 2026 2026 2026 2026 2026 2026 2026 
2026 2026 2026 2026 2026 2026 2026 2026 2026 
2026 2026 2026 2026 2026 2026 2026 2026 2026 
2026 2026 2026 2026 2026 2026 2026 2026 2026 
2026 2026 2026 2026 2026 2026 2026 2026 2026 
2026 2026 2026 2026 2026 2026 2026 2026 2026 
2026 2026 2026 2026 2026 2026 2026 2026 2026 
2026 2026 2026 2026 2026 2026 2026 2026 2026 
2026 2026 2026 2026 2026 2026 2026 2026 2026 
2026 2026 2026 2026 2026 2026 2026 2026 2026 
2026 2026 2026 2026 2026 2026 2026 2026 2026 
2026 2026 2026 2026 2026 2026 2026 2026 2026 
2026 2026 2026 2026 2026 2026 2026 2026 2026 
2026 2026 2026 2026 2026 2026 2026 2026 2026 
2026 2026 2026 2026 2026 2026 2026 2026 2026 
2026 2026 2026 2026 2026 2026 2026 2026 2026 
2026 2026 2026 2026 2026 2026 2026 2026 2026 
2026 2026 2026 2026 2026 2026 2026 2026 2026 
2026 2026 2026 2026 2026 2026 2026 2026 2026 
2026 2026 2026 2026 2026 2026 2026 2026 2026 
2026 2026 2026 2026 2026 2026 2026 2026 2026 
2026 2026 2026 2026 2026 2026 2026 2026 2026 
2026 2026 2026 2026 2026 2026 2026 2026 2026 
2026 2026 2026 2026 2026 2026 2026 2026 2026 
2026 2026 2026 2026 2026 2026 2026 2026 2026 
2026 2026 2026 2026 2026 2026 2026 2026 2026 
2026 2026 2026 2026 2026 2026 2026 2026 2026 
2026 2026 2026 2026 2026 2026 2026 2026 2026 
2026 2026 2026 2026 2026 2026 2026 2026 2026 
2026 2026 2026 2026 2026 2026 2026 2026 2026 
2026 2026 2026 2026 2026 2026 2026 2026 2026 
2026 2026 2026 2026 2026 2026 2026 2026 2026 
2026 2026 2026 2026 2026 2026 2026 2026 2026 
2026 2026 2026 2026 2026 2026 2026 2026 2026 
2026 2026 2026 2026 2026 2026 2026 2026 2026 
2026 2026 2026 2026 2026 2026 2026 2026 2026 
2026 2026 2026 2026 2026 2026 2026 2026 2026 
2026 2026 2026 2026 2026 2026 2026 2026 2026 
2026 2026 2026 2026 2026 2026 2026 2026 2026 
2026 2026 2026 2026 2026 2026 2026 2026 2026 
2026 2026 2026 2026 2026 2026 2026 2026 2026 
2026 2026 2026 2026 2026 2026 2026 2026 2026 
2026 2026 2026 2026 2026 2026 2026 2026 2026 
2026 2026 2026 2026 2026 2026 2026 2026 2026 
2026 2026 2026 2026 2026 2026 2026 2026 2026 
2026 2026 2026 2026 2026 2026 2026 2026 2026 
2026 2026 2026 2026 2026 2026 2026 2026 2026 
2026 2026 2026 2026 2026 2026 2026 2026 2026 
2026 2026 2026 2026 2026 2026 2026 2026 2026 
2026 2026 2026 2026 2026 2026 2026 2026 2026 
2026 2026 2026 2026 2026 2026 2026 2026 2026 
2026 2026 2026 2026 2026 2026 2026 2026 2026 
2026 2026 2026 2026 2026 2026 2026 2026 2026 
2026 2026 2026 2026 2026 2026 2026 2026 2026 
2026 2026 2026 2026 2026 2026 2026 2026 2026 
2026 2026 2026 2026 2026 2026 2026 2026 2026 
2026 2026 2026 2026 2026 2026 2026 2026 2026 
2026 2026 2026 2026 2026 2026 2026 2026 2026 
2026 2026 2026 2026 2026 2026 2026 2026 2026 
2026 2026 2026 2026 2026 2026 2026 2026 2026 
2026 2026 2026 2026 2026 2026 2026 2026 2026 
2026 2026 2026 2026 2026 2026 2026 2026 2026 
2026 2026 2026 2026 2026 2026 2026 2026 2026 
2026 2026 2026 2026 2026 2026 2026 2026 2026 
2026 2026 2026 2026 2026 2026 2026 2026 2026 
2026 2026 2026 2026 2026 2026 2026 2026 2026 
2026 2026 2026 2026 2026 2026 2026 2026 2026 
2026 2026 2026 2026 2026 2026 2026 2026 2026 
2026 2026 2026 2026 2026 2026 2026 2026 2026 
2026 2026 2026 2026 2026 2026 2026 2026 2026 
2026 2026 2026 2026 2026 2026 2026 2026 2026 
2026 2026 2026 2026 2026 2026 2026 2026 2026 
2026 2026 2026 2026 2026 2026 2026 2026 2026 
2026 2026 2026 2026 2026 2026 2026 2026 2026 