# vtk DataFile Version 4.2
vtk output
ASCII
DATASET POLYDATA
POINTS 1638 float
-51.2581 7.11577 16.8393 -51.4923 7.77498 16.2167 -51.9469 7.1333 16.2889 
-50.7222 7.57156 16.4559 -52.1796 6.6913 16.7764 -52.444 6.74605 16.5392 
-52.5508 6.47688 16.5732 -51.5596 6.45416 16.9065 -50.3346 7.13886 16.7017 
-50.4435 6.54063 16.8537 -49.4757 6.39327 16.7135 -49.3691 6.9795 16.3722 
-48.8638 6.54387 16.3798 -52.1842 6.29148 16.6468 -51.2429 6.19821 16.4323 
-49.9996 6.09448 16.3946 -49.172 6.19264 16.3706 -48.1766 5.89943 16.2851 
-48.4759 5.54147 16.2456 -48.3467 5.50078 16.6429 -47.9393 5.56004 16.4389 
-48.0605 5.25911 16.3262 -52.2225 7.61545 15.9362 -52.1369 7.96373 15.7176 
-52.6126 7.73219 15.4677 -51.5286 8.18073 15.577 -49.9509 7.51362 16.1459 
-50.5843 8.04076 15.7175 -49.3392 7.48155 15.8936 -49.3843 8.01471 15.31 
-48.7736 7.49545 15.4924 -52.1603 6.51682 16.3693 -52.346 7.15497 15.4113 
-51.3462 6.55338 15.9081 -51.5055 6.86424 15.5985 -50.8656 6.35583 15.3599 
-48.5833 6.18604 16.0147 -48.467 6.92175 15.7755 -47.9269 6.55886 15.6091 
-52.4128 5.85493 15.423 -52.5675 5.47421 15.2419 -52.2924 5.4819 15.6792 
-52.0426 5.63251 15.499 -50.3186 5.97225 15.6202 -49.3209 5.88455 15.7638 
-48.715 5.45736 15.5596 -47.1494 5.3688 16.037 -47.4533 6.00492 15.8348 
-46.2564 5.27432 15.8088 -46.3858 5.99286 15.3537 -45.7541 5.48766 15.4035 
-52.0627 5.2189 15.3095 -48.155 5.00725 15.6596 -47.3712 4.83601 15.7635 
-46.8368 4.14597 15.3277 -46.463 4.5385 15.8439 -45.7604 4.72544 15.575 
-46.3709 3.71626 15.6897 -46.5118 3.47655 15.2944 -45.8444 3.54969 15.444 
-46.2582 3.26386 15.4733 -52.2424 8.31969 15.0514 -52.4244 8.83856 14.2136 
-52.9618 8.38479 14.6467 -51.0283 8.51519 15.04 -51.3329 8.86212 14.3721 
-50.0018 8.49872 14.9912 -50.2754 8.86726 14.3681 -49.3546 8.4962 14.8467 
-49.3675 8.79769 14.35 -48.8044 8.51091 14.4721 -53.0941 7.7167 14.9026 
-53.4657 8.10224 14.3888 -53.6608 7.37463 14.1723 -47.9365 7.33079 15.045 
-48.4149 8.01899 14.7267 -47.0997 7.21425 14.7579 -47.6045 7.91242 14.4736 
-46.9085 7.63532 14.4115 -53.0897 6.93 14.7216 -52.2214 6.30925 15.1211 
-52.9228 6.0962 14.7393 -51.3536 6.38035 15.1727 -47.2101 6.63446 15.1941 
-46.2484 7.10423 14.3337 -46.5132 6.63548 14.8853 -45.7846 6.46789 14.5136 
-52.943 5.39888 14.4765 -51.3504 5.46795 15.0871 -50.2984 5.49354 15.0607 
-49.3134 5.31323 15.164 -45.2742 5.18078 14.978 -45.4678 5.91579 14.7819 
-44.9766 5.71528 14.2353 -52.4639 5.05235 14.5411 -51.5315 4.99419 14.4886 
-50.7503 4.57167 14.4917 -50.3479 4.50442 14.8371 -49.2585 4.41097 14.9391 
-48.4667 4.64362 15.0889 -47.613 4.31291 15.0489 -45.2542 4.1774 15.0727 
-44.7805 4.75979 14.3429 -50.1856 3.96068 14.6005 -49.8076 3.58254 14.1948 
-49.4785 3.61305 14.7745 -48.4478 3.65598 14.7758 -47.6869 3.6257 14.5193 
-47.1641 3.90126 14.6318 -46.7567 3.45208 14.6498 -45.2129 3.25066 14.9985 
-44.7639 3.65246 14.5612 -49.0999 3.10875 14.464 -48.3474 3.03524 14.2757 
-46.1891 2.94272 14.8964 -45.496 2.66373 14.8596 -45.8875 2.32298 14.3762 
-44.8649 2.72333 14.5661 -45.1787 2.12999 14.1926 -53.2435 8.58986 14.1457 
-53.3162 8.88081 13.3238 -53.8764 8.17991 13.5125 -52.3682 9.03067 13.5279 
-51.6206 9.14169 13.4896 -50.6052 9.16281 13.6524 -49.6004 9.14231 13.6449 
-47.9902 8.5205 14.0647 -48.5871 9.02451 13.6676 -47.0283 8.32911 13.9938 
-47.3997 9.0279 13.399 -46.2691 8.26925 13.7811 -46.3544 8.80307 13.3789 
-45.7703 8.46421 13.354 -53.9075 7.45131 13.4889 -46.4533 7.74441 14.1107 
-45.7764 7.71213 13.6332 -53.4709 6.53945 14.2003 -53.8015 6.5815 13.4729 
-45.2069 6.31968 14.0878 -45.268 6.98483 13.5076 -44.7846 6.3506 13.4635 
-53.3957 5.75244 13.9595 -53.6952 5.52558 13.122 -51.027 5.32494 13.9781 
-51.694 5.4262 13.6066 -51.2049 5.88715 13.1845 -50.4305 5.89605 13.3815 
-50.377 5.3145 13.821 -49.8632 5.5667 13.3708 -44.5996 5.5848 13.6133 
-53.0559 5.07725 13.544 -52.2556 5.08282 13.5365 -50.4195 4.51524 14.1866 
-49.8719 4.62277 13.616 -44.3819 4.90973 13.6525 -44.3015 4.12522 13.9211 
-44.0046 4.70122 13.2196 -49.639 3.67812 13.5023 -47.39 3.11964 14.1898 
-44.2823 3.14135 14.0672 -43.7668 3.69791 13.3333 -49.1809 2.95367 13.8017 
-48.1735 2.45039 13.8632 -48.7973 2.53858 13.4466 -47.3551 2.40945 13.9711 
-46.6633 2.41691 14.0897 -44.4428 2.39254 14.0772 -43.8225 2.68725 13.5627 
-48.2281 1.98909 13.5617 -47.7907 1.53405 13.1875 -47.4451 1.75067 13.7668 
-46.7423 1.55481 13.6145 -45.968 1.84417 13.5251 -45.0931 1.90351 13.3637 
-44.2135 2.06218 13.4412 -47.065 1.1386 13.2475 -50.9941 9.51735 12.9548 
-51.0797 9.72565 12.2288 -51.5787 9.41714 12.6834 -50.0687 9.53474 13.0245 
-50.3364 9.87994 12.3569 -49.0591 9.52621 13.0223 -49.3452 9.89348 12.3854 
-48.0657 9.51461 13.0068 -48.32 9.89122 12.3826 -47.2376 9.46908 12.8538 
-47.3856 9.81911 12.3808 -46.7258 9.59848 12.3601 -54.2655 8.61148 12.8891 
-54.0817 8.81555 12.3452 -54.5467 8.56454 12.453 -53.2129 9.04358 12.3301 
-52.2162 9.13242 12.5894 -46.3576 9.2079 12.6423 -45.2821 8.16244 12.9436 
-45.5562 8.80336 12.7161 -45.0207 8.47506 12.263 -54.3857 8.28107 12.639 
-54.0372 7.65363 12.5562 -45.2685 7.57922 13.1228 -44.7795 7.72791 12.4151 
-53.7915 6.39741 12.3026 -44.2828 6.17935 12.9098 -44.2981 6.99924 12.4695 
-43.7906 6.49593 12.3248 -53.7714 5.38583 12.318 -51.8025 5.49591 12.8157 
-51.0714 5.87736 12.2941 -50.3502 6.12775 12.4749 -49.4596 5.94182 12.58 
-49.156 5.21914 12.9494 -48.7008 5.63294 12.3826 -44.2367 5.42992 13.1538 
-43.7927 5.60452 12.5772 -53.4179 5.01941 12.6145 -52.5683 4.97097 12.5032 
-49.2168 4.21171 13.1049 -48.4252 5.13407 12.5734 -48.4586 4.46856 12.7868 
-47.9344 4.63415 12.4578 -43.5927 4.5706 12.632 -49.131 3.23243 13.1927 
-48.4899 3.46683 12.8695 -47.8046 3.75708 12.5174 -43.3384 3.86213 12.6651 
-43.2635 3.09921 12.9391 -42.9533 3.63205 12.2281 -48.4626 2.46853 13.1394 
-47.8361 2.4035 12.5301 -43.3925 2.38847 13.0359 -42.9244 2.70967 12.3582 
-47.67 1.33204 12.3532 -46.4625 1.30866 13.1156 -45.9827 1.48722 12.6071 
-45.259 1.81321 12.3886 -44.2582 1.90681 12.5102 -43.3723 2.08928 12.4514 
-47.184 0.967567 12.4642 -46.4617 1.08151 12.4405 -51.5029 9.41893 12.0825 
-51.0234 9.58077 11.5709 -50.3352 9.90211 11.387 -49.3825 10.044 11.5294 
-48.3471 10.0403 11.5224 -47.326 10.0298 11.5096 -46.0974 9.47427 11.9273 
-46.4077 9.8491 11.5542 -45.6791 9.5906 11.337 -54.3753 8.39462 12.2052 
-53.9198 8.39034 11.7309 -53.2787 8.85767 11.4082 -52.3424 9.05029 11.4866 
-51.4821 9.22598 11.4541 -45.2676 9.10671 11.5726 -44.6457 8.43991 11.5192 
-53.6735 7.58499 11.5907 -44.1592 8.01067 11.3381 -44.2785 7.52199 11.94 
-43.766 7.48768 11.496 -53.2194 7.01023 11.3388 -53.4393 6.34553 11.7337 
-52.9159 6.56142 11.3196 -43.2964 6.17513 11.9143 -43.4529 6.93253 11.7415 
-42.9706 6.6967 11.2183 -53.192 6.05931 11.4283 -53.6262 5.69096 11.7671 
-51.5449 5.13527 12.0496 -50.8037 5.51138 11.6504 -50.1854 5.91704 11.4063 
-49.3399 6.11684 11.4979 -48.5022 5.96088 11.7091 -47.9389 5.36809 12.0788 
-47.4076 6.06751 11.2406 -47.241 5.28423 11.7816 -46.7704 5.52084 11.4006 
-43.277 5.21328 12.0123 -42.9233 5.75258 11.3338 -53.2549 4.95834 11.827 
-52.3405 4.5683 11.8245 -52.7876 4.53974 11.4055 -51.5571 4.39524 11.7381 
-50.8911 4.7466 11.5125 -47.3557 4.38673 12.0555 -46.7667 4.61363 11.4565 
-43.2065 4.38563 12.1703 -42.7691 4.60392 11.4519 -52.0236 4.11887 11.3973 
-51.0876 4.06894 11.2358 -47.2905 3.20235 12.0557 -46.9346 3.66426 11.5717 
-42.6033 3.30334 11.5122 -47.4055 2.33919 11.837 -47.0353 2.77659 11.3571 
-42.8603 2.41015 11.6804 -47.3886 1.98012 11.101 -47.6226 1.54243 11.5287 
-45.8023 1.43438 11.7331 -45.1269 1.80514 11.1899 -44.2754 1.94239 11.463 
-43.3867 2.04881 11.5115 -47.241 0.980163 11.4445 -46.4752 1.01297 11.4633 
-50.0328 9.79187 10.2949 -50.7438 9.50262 10.8191 -49.3089 10.0202 10.4949 
-48.3172 10.0336 10.5241 -47.2802 10.0363 10.485 -46.2858 10.0199 10.5004 
-45.272 9.52671 10.9547 -45.5462 9.81257 10.667 -44.8723 9.47001 10.2819 
-53.3773 8.21319 11.0066 -52.8583 8.41552 10.4329 -52.2224 8.83938 10.4109 
-51.2421 9.11622 10.4359 -44.2586 8.48935 10.9313 -44.3284 8.90107 10.5056 
-43.7674 8.50294 10.4433 -53.3162 7.63575 11.0222 -52.8704 7.60637 10.4562 
-43.185 7.35831 11.0706 -43.4218 7.94392 10.7119 -42.9087 7.58318 10.3401 
-52.5066 6.87396 10.6669 -52.488 6.1311 10.9278 -52.0456 6.49083 10.2518 
-47.2707 6.57731 10.8028 -47.6398 6.48433 10.5888 -47.2197 6.76817 10.2003 
-46.7721 6.55984 10.5571 -42.7713 6.56111 10.4602 -53.0314 5.29428 11.2343 
-52.3405 5.26161 10.8434 -51.8923 5.71736 10.4015 -50.3016 5.20258 11.0743 
-49.7817 5.51797 10.6128 -49.1817 5.89791 10.3987 -48.3215 6.18267 10.6152 
-46.4469 5.98642 10.8304 -46.274 5.20382 10.9983 -45.9431 5.72978 10.2675 
-42.6186 5.60791 10.4543 -52.3602 4.50197 10.9963 -51.7771 4.72303 10.5084 
-50.4164 4.4396 10.9881 -49.848 4.78021 10.4936 -46.346 4.40792 10.903 
-45.7662 4.61508 10.2471 -42.3387 4.86455 10.6714 -42.2378 4.09958 10.9631 
-41.9528 4.64508 10.2573 -51.3619 4.0248 10.6355 -50.253 4.05684 10.3884 
-46.2448 3.89043 10.3638 -46.6805 3.45912 10.7263 -42.2954 3.31947 10.8825 
-41.9396 3.76699 10.4018 -46.9796 2.27931 10.3866 -42.7891 2.5791 10.8539 
-42.4013 3.01161 10.1977 -47.3789 1.77431 10.4926 -47.5456 1.479 10.6665 
-45.8764 1.41747 10.7294 -45.3393 1.81942 10.1148 -44.4469 1.96366 10.5788 
-43.6091 2.13392 10.4483 -47.364 1.13014 10.6651 -46.6955 1.0952 10.532 
-50.4392 9.41964 10.0613 -49.9484 9.57424 9.56098 -49.2616 9.8748 9.37035 
-48.2761 9.98409 9.48979 -47.2507 9.97209 9.45561 -46.2297 9.99498 9.43896 
-45.2726 9.88342 9.57374 -44.5855 9.59574 9.35924 -52.421 8.38828 9.84413 
-51.8364 8.39753 9.34095 -51.1673 8.83681 9.42526 -50.4254 9.20198 9.42106 
-44.1236 9.22931 9.50831 -43.1841 8.36376 10.0212 -43.5251 8.82898 9.65448 
-42.9589 8.37891 9.37844 -52.2721 7.94112 9.28712 -52.5605 7.81341 9.69232 
-42.6431 7.5659 9.40473 -52.2923 7.08711 9.79893 -51.7807 6.43632 9.38156 
-47.8066 6.42804 9.61315 -47.2029 6.90291 9.22587 -46.5375 6.82764 9.71077 
-46.1945 6.39624 10.1552 -45.9539 6.41958 9.4345 -42.5625 6.58191 9.61424 
[...]
CELL_DATA 3280
SCALARS scalars float
LOOKUP_TABLE default
2034 2034 2034 2034 2034 2034 2034 2034 2034 
2034 2034 2034 2034 2034 2034 2034 2034 2034 
2034 2034 2034 2034 2034 2034 2034 2034 2034 
2034 2034 2034 2034 2034 2034 2034 2034 2034 
2034 2034 2034 2034 2034 2034 2034 2034 2034 
2034 2034 2034 2034 2034 2034 2034 2034 2034 
2034 2034 2034 2034 2034 2034 2034 2034 2034 
2034 2034 2034 2034 2034 2034 2034 2034 2034 
2034 2034 2034 2034 2034 2034 2034 2034 2034 
2034 2034 2034 2034 2034 2034 2034 2034 2034 
2034 2034 2034 2034 2034 2034 2034 2034 2034 
2034 2034 2034 2034 2034 2034 2034 2034 2034 
2034 2034 2034 2034 2034 2034 2034 2034 2034 
2034 2034 2034 2034 2034 2034 2034 2034 2034 
2034 2034 2034 2034 2034 2034 2034 2034 2034 
2034 2034 2034 2034 2034 2034 2034 2034 2034 
2034 2034 2034 2034 2034 2034 2034 2034 2034 
2034 2034 2034 2034 2034 2034 2034 2034 2034 
2034 2034 2034 2034 2034 2034 2034 2034 2034 
2034 2034 2034 2034 2034 2034 2034 2034 2034 
2034 2034 2034 2034 2034 2034 2034 2034 2034 
2034 2034 2034 2034 2034 2034 2034 2034 2034 
2034 2034 2034 2034 2034 2034 2034 2034 2034 
2034 2034 2034 2034 2034 2034 2034 2034 2034 
2034 2034 2034 2034 2034 2034 2034 2034 2034 
2034 2034 2034 2034 2034 2034 2034 2034 2034 
2034 2034 2034 2034 2034 2034 2034 2034 2034 
2034 2034 2034 2034 2034 2034 2034 2034 2034 
2034 2034 2034 2034 2034 2034 2034 2034 2034 
2034 2034 2034 2034 2034 2034 2034 2034 2034 
2034 2034 2034 2034 2034 2034 2034 2034 2034 
2034 2034 2034 2034 2034 2034 2034 2034 2034 
2034 2034 2034 2034 2034 2034 2034 2034 2034 
2034 2034 2034 2034 2034 2034 2034 2034 2034 
2034 2034 2034 2034 2034 2034 2034 2034 2034 
2034 2034 2034 2034 2034 2034 2034 2034 2034 
2034 2034 2034 2034 2034 2034 2034 2034 2034 
2034 2034 2034 2034 2034 2034 2034 2034 2034 
2034 2034 2034 2034 2034 2034 2034 2034 2034 
2034 2034 2034 2034 2034 2034 2034 2034 2034 
2034 2034 2034 2034 2034 2034 2034 2034 2034 
2034 2034 2034 2034 2034 2034 2034 2034 2034 
2034 2034 2034 2034 2034 2034 2034 2034 2034 
2034 2034 2034 2034 2034 2034 2034 2034 2034 
2034 2034 2034 2034 2034 2034 2034 2034 2034 
2034 2034 2034 2034 2034 2034 2034 2034 2034 
2034 2034 2034 2034 2034 2034 2034 2034 2034 
2034 2034 2034 2034 2034 2034 2034 2034 2034 
2034 2034 2034 2034 2034 2034 2034 2034 2034 
2034 2034 2034 2034 2034 2034 2034 2034 2034 
2034 2034 2034 2034 2034 2034 2034 2034 2034 
2034 2034 2034 2034 2034 2034 2034 2034 2034 
2034 2034 2034 2034 2034 2034 2034 2034 2034 
2034 2034 2034 2034 2034 2034 2034 2034 2034 
2034 2034 2034 2034 2034 2034 2034 2034 2034 
2034 2034 2034 2034 2034 2034 2034 2034 2034 
2034 2034 2034 2034 2034 2034 2034 2034 2034 
2034 2034 2034 2034 2034 2034 2034 2034 2034 
2034 2034 2034 2034 2034 2034 2034 2034 2034 
2034 2034 2034 2034 2034 2034 2034 2034 2034 
2034 2034 2034 2034 2034 2034 2034 2034 2034 
2034 2034 2034 2034 2034 2034 2034 2034 2034 
2034 2034 2034 2034 2034 2034 2034 2034 2034 
2034 2034 2034 2034 2034 2034 2034 2034 2034 
2034 2034 2034 2034 2034 2034 2034 2034 2034 
2034 2034 2034 2034 2034 2034 2034 2034 2034 
2034 2034 2034 2034 2034 2034 2034 2034 2034 
2034 2034 2034 2034 2034 2034 2034 2034 2034 
2034 2034 2034 2034 2034 2034 2034 2034 2034 
2034 2034 2034 2034 2034 2034 2034 2034 2034 
2034 2034 2034 2034 2034 2034 2034 2034 2034 
2034 2034 2034 2034 2034 2034 2034 2034 2034 
2034 2034 2034 2034 2034 2034 2034 2034 2034 
2034 2034 2034 2034 2034 2034 2034 2034 2034 
2034 2034 2034 2034 2034 2034 2034 2034 2034 
2034 2034 2034 2034 2034 2034 2034 2034 2034 
2034 2034 2034 2034 2034 2034 2034 2034 2034 
2034 2034 2034 2034 2034 2034 2034 2034 2034 
2034 2034 2034 2034 2034 2034 2034 2034 2034 
2034 2034 2034 2034 2034 2034 2034 2034 2034 
2034 2034 2034 2034 2034 2034 2034 2034 2034 
2034 2034 2034 2034 2034 2034 2034 2034 2034 
2034 2034 2034 2034 2034 2034 2034 2034 2034 
2034 2034 2034 2034 2034 2034 2034 2034 2034 
2034 2034 2034 2034 2034 2034 2034 2034 2034 
2034 2034 2034 2034 2034 2034 2034 2034 2034 
2034 2034 2034 2034 2034 2034 2034 2034 2034 
2034 2034 2034 2034 2034 2034 2034 2034 2034 
2034 2034 2034 2034 2034 2034 2034 2034 2034 
2034 2034 2034 2034 2034 2034 2034 2034 2034 
2034 2034 2034 2034 2034 2034 2034 2034 2034 
2034 2034 2034 2034 2034 2034 2034 2034 2034 
2034 2034 2034 2034 2034 2034 2034 2034 2034 
2034 2034 2034 2034 2034 2034 2034 2034 2034 
2034 2034 2034 2034 2034 2034 2034 2034 2034 
2034 2034 2034 2034 2034 2034 2034 2034 2034 
2034 2034 2034 2034 2034 2034 2034 2034 2034 
2034 2034 2034 2034 2034 2034 2034 2034 2034 
2034 2034 2034 2034 2034 2034 2034 2034 2034 
2034 2034 2034 2034 2034 2034 2034 2034 2034 
2034 2034 2034 2034 2034 2034 2034 2034 2034 
2034 2034 2034 2034 2034 2034 2034 2034 2034 
2034 2034 2034 2034 2034 2034 2034 2034 2034 
2034 2034 2034 2034 2034 2034 2034 2034 2034 
2034 2034 2034 2034 2034 2034 2034 2034 2034 
2034 2034 2034 2034 2034 2034 2034 2034 2034 
2034 2034 2034 2034 2034 2034 2034 2034 2034 
2034 2034 2034 2034 2034 2034 2034 2034 2034 
2034 2034 2034 2034 2034 2034 2034 2034 2034 
2034 2034 2034 2034 2034 2034 2034 2034 2034 
2034 2034 2034 2034 2034 2034 2034 2034 2034 
2034 2034 2034 2034 2034 2034 2034 2034 2034 
2034 2034 2034 2034 2034 2034 2034 2034 2034 
2034 2034 2034 2034 2034 2034 2034 2034 2034 
2034 2034 2034 2034 2034 2034 2034 2034 2034 
2034 2034 2034 2034 2034 2034 2034 2034 2034 
2034 2034 2034 2034 2034 2034 2034 2034 2034 
2034 2034 2034 2034 2034 2034 2034 2034 2034 
2034 2034 2034 2034 2034 2034 2034 2034 2034 
2034 2034 2034 2034 2034 2034 2034 2034 2034 
2034 2034 2034 2034 2034 2034 2034 2034 2034 
2034 2034 2034 2034 2034 2034 2034 2034 2034 
2034 2034 2034 2034 2034 2034 2034 2034 2034 
2034 2034 2034 2034 2034 2034 2034 2034 2034 
2034 2034 2034 2034 2034 2034 2034 2034 2034 
2034 2034 2034 2034 2034 2034 2034 2034 2034 
2034 2034 2034 2034 2034 2034 2034 2034 2034 
2034 2034 2034 2034 2034 2034 2034 2034 2034 
2034 2034 2034 2034 2034 2034 2034 2034 2034 
2034 2034 2034 2034 2034 2034 2034 2034 2034 
2034 2034 2034 2034 2034 2034 2034 2034 2034 
2034 2034 2034 2034 2034 2034 2034 2034 2034 
2034 2034 2034 2034 2034 2034 2034 2034 2034 
2034 2034 2034 2034 2034 2034 2034 2034 2034 
2034 2034 2034 2034 2034 2034 2034 2034 2034 
2034 2034 2034 2034 2034 2034 2034 2034 2034 
2034 2034 2034 2034 2034 2034 2034 2034 2034 
2034 2034 2034 2034 2034 2034 2034 2034 2034 
2034 2034 2034 2034 2034 2034 2034 2034 2034 
2034 2034 2034 2034 2034 2034 2034 2034 2034 
2034 2034 2034 2034 2034 2034 2034 2034 2034 
2034 2034 2034 2034 2034 2034 2034 2034 2034 
2034 2034 2034 2034 2034 2034 2034 2034 2034 
2034 2034 2034 2034 2034 2034 2034 2034 2034 
2034 2034 2034 2034 2034 2034 2034 2034 2034 
2034 2034 2034 2034 2034 2034 2034 2034 2034 
2034 2034 2034 2034 2034 2034 2034 2034 2034 
2034 2034 2034 2034 2034 2034 2034 2034 2034 
2034 2034 2034 2034 2034 2034 2034 2034 2034 
2034 2034 2034 2034 2034 2034 2034 2034 2034 
2034 2034 2034 2034 2034 2034 2034 2034 2034 
2034 2034 2034 2034 2034 2034 2034 2034 2034 
2034 2034 2034 2034 2034 2034 2034 2034 2034 
2034 2034 2034 2034 2034 2034 2034 2034 2034 
2034 2034 2034 2034 2034 2034 2034 2034 2034 
2034 2034 2034 2034 2034 2034 2034 2034 2034 
2034 2034 2034 2034 2034 2034 2034 2034 2034 
2034 2034 2034 2034 2034 2034 2034 2034 2034 
2034 2034 2034 2034 2034 2034 2034 2034 2034 
2034 2034 2034 2034 2034 2034 2034 2034 2034 
2034 2034 2034 2034 2034 2034 2034 2034 2034 
2034 2034 2034 2034 2034 2034 2034 2034 2034 
2034 2034 2034 2034 2034 2034 2034 2034 2034 
2034 2034 2034 2034 2034 2034 2034 2034 2034 
2034 2034 2034 2034 2034 2034 2034 2034 2034 
2034 2034 2034 2034 2034 2034 2034 2034 2034 
2034 2034 2034 2034 2034 2034 2034 2034 2034 
2034 2034 2034 2034 2034 2034 2034 2034 2034 
2034 2034 2034 2034 2034 2034 2034 2034 2034 
2034 2034 2034 2034 2034 2034 2034 2034 2034 
2034 2034 2034 2034 2034 2034 2034 2034 2034 
2034 2034 2034 2034 2034 2034 2034 2034 2034 
2034 2034 2034 2034 2034 2034 2034 2034 2034 
2034 2034 2034 2034 2034 2034 2034 2034 2034 
2034 2034 2034 2034 2034 2034 2034 2034 2034 
2034 2034 2034 2034 2034 2034 2034 2034 2034 
2034 2034 2034 2034 2034 2034 2034 2034 2034 
2034 2034 2034 2034 2034 2034 2034 2034 2034 
2034 2034 2034 2034 2034 2034 2034 2034 2034 
2034 2034 2034 2034 2034 2034 2034 2034 2034 
2034 2034 2034 2034 2034 2034 2034 2034 2034 
2034 2034 2034 2034 2034 2034 2034 2034 2034 
2034 2034 2034 2034 2034 2034 2034 2034 2034 
2034 2034 2034 2034 2034 2034 2034 2034 2034 
2034 2034 2034 2034 2034 2034 2034 2034 2034 
2034 2034 2034 2034 2034 2034 2034 2034 2034 
2034 2034 2034 2034 2034 2034 2034 2034 2034 
2034 2034 2034 2034 2034 2034 2034 2034 2034 
2034 2034 2034 2034 2034 2034 2034 2034 2034 
2034 2034 2034 2034 2034 2034 2034 2034 2034 
2034 2034 2034 2034 2034 2034 2034 2034 2034 
2034 2034 2034 2034 2034 2034 2034 2034 2034 
2034 2034 2034 2034 2034 2034 2034 2034 2034 
2034 2034 2034 2034 2034 2034 2034 2034 2034 
2034 2034 2034 2034 2034 2034 2034 2034 2034 
2034 2034 2034 2034 2034 2034 2034 2034 2034 
2034 2034 2034 2034 2034 2034 2034 2034 2034 
2034 2034 2034 2034 2034 2034 2034 2034 2034 
2034 2034 2034 2034 2034 2034 2034 2034 2034 
2034 2034 2034 2034 2034 2034 2034 2034 2034 
2034 2034 2034 2034 2034 2034 2034 2034 2034 
2034 2034 2034 2034 2034 2034 2034 2034 2034 
2034 2034 2034 2034 2034 2034 2034 2034 2034 
2034 2034 2034 2034 2034 2034 2034 2034 2034 
2034 2034 2034 2034 2034 2034 2034 2034 2034 
2034 2034 2034 2034 2034 2034 2034 2034 2034 
2034 2034 2034 2034 2034 2034 2034 2034 2034 
2034 2034 2034 2034 2034 2034 2034 2034 2034 
2034 2034 2034 2034 2034 2034 2034 2034 2034 
2034 2034 2034 2034 2034 2034 2034 2034 2034 
2034 2034 2034 2034 2034 2034 2034 2034 2034 
2034 2034 2034 2034 2034 2034 2034 2034 2034 
2034 2034 2034 2034 2034 2034 2034 2034 2034 
2034 2034 2034 2034 2034 2034 2034 2034 2034 
2034 2034 2034 2034 2034 2034 2034 2034 2034 
2034 2034 2034 2034 2034 2034 2034 2034 2034 
2034 2034 2034 2034 2034 2034 2034 2034 2034 
2034 2034 2034 2034 2034 2034 2034 2034 2034 
2034 2034 2034 2034 2034 2034 2034 2034 2034 
2034 2034 2034 2034 2034 2034 2034 2034 2034 
2034 2034 2034 2034 2034 2034 2034 2034 2034 
2034 2034 2034 2034 2034 2034 2034 2034 2034 
2034 2034 2034 2034 2034 2034 2034 2034 2034 
2034 2034 2034 2034 2034 2034 2034 2034 2034 
2034 2034 2034 2034 2034 2034 2034 2034 2034 
2034 2034 2034 2034 2034 2034 2034 2034 2034 
2034 2034 2034 2034 2034 2034 2034 2034 2034 
2034 2034 2034 2034 2034 2034 2034 2034 2034 
2034 2034 2034 2034 2034 2034 2034 2034 2034 
2034 2034 2034 2034 2034 2034 2034 2034 2034 
2034 2034 2034 2034 2034 2034 2034 2034 2034 
2034 2034 2034 2034 2034 2034 2034 2034 2034 
2034 2034 2034 2034 2034 2034 2034 2034 2034 
2034 2034 2034 2034 2034 2034 2034 2034 2034 
2034 2034 2034 2034 2034 2034 2034 2034 2034 
2034 2034 2034 2034 2034 2034 2034 2034 2034 
2034 2034 2034 2034 2034 2034 2034 2034 2034 
2034 2034 2034 2034 2034 2034 2034 2034 2034 
2034 2034 2034 2034 2034 2034 2034 2034 2034 
2034 2034 2034 2034 2034 2034 2034 2034 2034 
2034 2034 2034 2034 2034 2034 2034 2034 2034 
2034 2034 2034 2034 2034 2034 2034 2034 2034 
2034 2034 2034 2034 2034 2034 2034 2034 2034 
2034 2034 2034 2034 2034 2034 2034 2034 2034 
2034 2034 2034 2034 2034 2034 2034 2034 2034 
2034 2034 2034 2034 2034 2034 2034 2034 2034 
2034 2034 2034 2034 2034 2034 2034 2034 2034 
2034 2034 2034 2034 2034 2034 2034 2034 2034 
2034 2034 2034 2034 2034 2034 2034 2034 2034 
2034 2034 2034 2034 2034 2034 2034 2034 2034 
2034 2034 2034 2034 2034 2034 2034 2034 2034 
2034 2034 2034 2034 2034 2034 2034 2034 2034 
2034 2034 2034 2034 2034 2034 2034 2034 2034 
2034 2034 2034 2034 2034 2034 2034 2034 2034 
2034 2034 2034 2034 2034 2034 2034 2034 2034 
2034 2034 2034 2034 2034 2034 2034 2034 2034 
2034 2034 2034 2034 2034 2034 2034 2034 2034 
2034 2034 2034 2034 2034 2034 2034 2034 2034 
2034 2034 2034 2034 2034 2034 2034 2034 2034 
2034 2034 2034 2034 2034 2034 2034 2034 2034 
2034 2034 2034 2034 2034 2034 2034 2034 2034 
2034 2034 2034 2034 2034 2034 2034 2034 2034 
2034 2034 2034 2034 2034 2034 2034 2034 2034 
2034 2034 2034 2034 2034 2034 2034 2034 2034 
2034 2034 2034 2034 2034 2034 2034 2034 2034 
2034 2034 2034 2034 2034 2034 2034 2034 2034 
2034 2034 2034 2034 2034 2034 2034 2034 2034 
2034 2034 2034 2034 2034 2034 2034 2034 2034 
2034 2034 2034 2034 2034 2034 2034 2034 2034 
2034 2034 2034 2034 2034 2034 2034 2034 2034 
2034 2034 2034 2034 2034 2034 2034 2034 2034 
2034 2034 2034 2034 2034 2034 2034 2034 2034 
2034 2034 2034 2034 2034 2034 2034 2034 2034 
2034 2034 2034 2034 2034 2034 2034 2034 2034 
2034 2034 2034 2034 2034 2034 2034 2034 2034 
2034 2034 2034 2034 2034 2034 2034 2034 2034 
2034 2034 2034 2034 2034 2034 2034 2034 2034 
2034 2034 2034 2034 2034 2034 2034 2034 2034 
2034 2034 2034 2034 2034 2034 2034 2034 2034 
2034 2034 2034 2034 2034 2034 2034 2034 2034 
2034 2034 2034 2034 2034 2034 2034 2034 2034 
2034 2034 2034 2034 2034 2034 2034 2034 2034 
2034 2034 2034 2034 2034 2034 2034 2034 2034 
2034 2034 2034 2034 2034 2034 2034 2034 2034 
2034 2034 2034 2034 2034 2034 2034 2034 2034 
2034 2034 2034 2034 2034 2034 2034 2034 2034 
2034 2034 2034 2034 2034 2034 2034 2034 2034 
2034 2034 2034 2034 2034 2034 2034 2034 2034 
2034 2034 2034 2034 2034 2034 2034 2034 2034 
2034 2034 2034 2034 2034 2034 2034 2034 2034 
2034 2034 2034 2034 2034 2034 2034 2034 2034 
2034 2034 2034 2034 2034 2034 2034 2034 2034 
2034 2034 2034 2034 2034 2034 2034 2034 2034 
2034 2034 2034 2034 2034 2034 2034 2034 2034 
2034 2034 2034 2034 2034 2034 2034 2034 2034 
2034 2034 2034 2034 2034 2034 2034 2034 2034 
2034 2034 2034 2034 2034 2034 2034 2034 2034 
2034 2034 2034 2034 2034 2034 2034 2034 2034 
2034 2034 2034 2034 2034 2034 2034 2034 2034 
2034 2034 2034 2034 2034 2034 2034 2034 2034 
2034 2034 2034 2034 2034 2034 2034 2034 2034 
2034 2034 2034 2034 2034 2034 2034 2034 2034 
2034 2034 2034 2034 2034 2034 2034 2034 2034 
2034 2034 2034 2034 2034 2034 2034 2034 2034 
2034 2034 2034 2034 2034 2034 2034 2034 2034 
2034 2034 2034 2034 2034 2034 2034 2034 2034 
2034 2034 2034 2034 2034 2034 2034 2034 2034 
2034 2034 2034 2034 2034 2034 2034 2034 2034 
2034 2034 2034 2034 2034 2034 2034 2034 2034 
2034 2034 2034 2034 2034 2034 2034 2034 2034 
2034 2034 2034 2034 2034 2034 2034 2034 2034 
2034 2034 2034 2034 2034 2034 2034 2034 2034 
2034 2034 2034 2034 2034 2034 2034 2034 2034 
2034 2034 2034 2034 2034 2034 2034 2034 2034 
2034 2034 2034 2034 2034 2034 2034 2034 2034 
2034 2034 2034 2034 2034 2034 2034 2034 2034 
2034 2034 2034 2034 2034 2034 2034 2034 2034 
2034 2034 2034 2034 2034 2034 2034 2034 2034 
2034 2034 2034 2034 2034 2034 2034 2034 2034 
2034 2034 2034 2034 2034 2034 2034 2034 2034 
2034 2034 2034 2034 2034 2034 2034 2034 2034 
2034 2034 2034 2034 2034 2034 2034 2034 2034 
2034 2034 2034 2034 2034 2034 2034 2034 2034 
2034 2034 2034 2034 2034 2034 2034 2034 2034 
2034 2034 2034 2034 2034 2034 2034 2034 2034 
2034 2034 2034 2034 2034 2034 2034 2034 2034 
2034 2034 2034 2034 2034 2034 2034 2034 2034 
2034 2034 2034 2034 2034 2034 2034 2034 2034 
2034 2034 2034 2034 2034 2034 2034 2034 2034 
2034 2034 2034 2034 2034 2034 2034 2034 2034 
2034 2034 2034 2034 2034 2034 2034 2034 2034 
2034 2034 2034 2034 2034 2034 2034 2034 2034 
2034 2034 2034 2034 2034 2034 2034 2034 2034 
2034 2034 2034 2034 2034 2034 2034 2034 2034 
2034 2034 2034 2034 2034 2034 2034 2034 2034 
2034 2034 2034 2034 2034 2034 2034 2034 2034 
2034 2034 2034 2034 2034 2034 2034 2034 2034 
2034 2034 2034 2034 2034 2034 2034 2034 2034 
2034 2034 2034 2034 2034 2034 2034 2034 2034 
2034 2034 2034 2034 2034 2034 2034 2034 2034 
2034 2034 2034 2034 2034 2034 2034 2034 2034 
2034 2034 2034 2034 2034 2034 2034 2034 2034 
2034 2034 2034 2034 2034 2034 2034 2034 2034 
2034 2034 2034 2034 2034 2034 2034 2034 2034 
2034 2034 2034 2034 2034 2034 2034 2034 2034 
2034 2034 2034 2034 2034 2034 2034 2034 2034 
2034 2034 2034 2034 2034 2034 2034 2034 2034 
2034 2034 2034 2034 2034 2034 2034 2034 2034 
2034 2034 2034 2034 2034 2034 2034 2034 2034 
2034 2034 2034 2034 2034 2034 2034 2034 2034 
2034 2034 2034 2034 2034 2034 2034 2034 2034 
2034 2034 2034 2034 2034 2034 2034 2034 2034 
2034 2034 2034 2034 2034 2034 2034 2034 2034 
2034 2034 2034 2034 2034 2034 2034 2034 2034 
2034 2034 2034 2034 2034 2034 2034 2034 2034 
2034 2034 2034 2034 2034 2034 2034 2034 2034 
2034 2034 2034 2034 2034 2034 2034 2034 2034 
2034 2034 2034 2034 2034 2034 2034 2034 2034 
2034 2034 2034 2034 2034 2034 2034 2034 2034 
2034 2034 2034 2034 2034 2034 2034 2034 2034 
2034 2034 2034 2034 2034 2034 2034 2034 2034 
2034 2034 2034 2034 2034 2034 2034 2034 2034 
2034 2034 2034 2034 2034 2034 2034 2034 2034 
2034 2034 2034 2034 2034 2034 2034 2034 2034 
2034 2034 2034 2034 
