# vtk DataFile Version 4.2
vtk output
ASCII
DATASET POLYDATA
POINTS 14432 float
-46.6279 0.731734 25.2173 -46.6761 0.497674 25.6137 -46.3035 0.452224 25.3502 
-46.8822 0.496293 25.4625 -44.8421 0.881439 24.2606 -44.717 0.531199 24.8989 
-44.1286 0.53445 24.4654 -45.9862 0.920843 24.5466 -45.4794 0.405931 25.0951 
-46.9501 0.922186 24.2757 -47.2269 0.409067 24.8602 -43.9639 0.812066 23.5311 
-43.4499 0.469458 23.8898 -43.2988 0.533927 23.4291 -44.8324 1.05706 23.2697 
-45.6936 1.08692 23.4303 -46.7397 1.07595 23.406 -47.6136 0.633301 24.0289 
-47.61 0.871796 23.3312 -48.0758 0.284669 23.6062 -43.5309 0.427215 22.9217 
-44.1484 0.512419 22.401 -44.4715 0.837675 22.676 -45.4378 0.930524 22.5365 
-46.4721 0.933739 22.5192 -47.4037 0.845193 22.5252 -47.9716 0.440374 22.7517 
-44.7424 0.368045 21.9985 -45.9897 0.527722 21.8939 -46.9572 0.470226 22.0116 
-47.6025 0.382838 22.2299 -44.7533 -0.000892101 25.2677 -44.7872 -0.685311 25.8157 
-44.0922 -0.399683 25.2896 -45.7237 -0.178499 25.4417 -45.6575 -0.68824 25.7663 
-46.8863 0.150131 25.3796 -46.3109 -0.695674 25.5901 -42.8485 -0.247594 24.48 
-42.6745 -0.683049 24.9307 -42.3397 -0.635919 24.3579 -43.5947 0.0269455 24.5678 
-43.3421 -0.504711 25.0368 -46.4807 -0.225915 25.3312 -47.6502 -0.622263 25.0836 
-47.845 0.100312 24.3455 -48.3091 -0.530967 24.2956 -42.8651 0.0122361 23.6911 
-42.2792 -0.848779 23.379 -48.338 -0.586005 23.2604 -42.8723 -0.311832 22.8714 
-43.6514 0.00333277 22.3853 -43.1139 -0.502081 22.4207 -47.8299 -0.07114 22.562 
-47.4205 -0.195957 22.1193 -47.8385 -0.656492 22.6589 -43.6463 -0.513428 21.9209 
-44.5923 -0.165966 21.4944 -44.1543 -0.516429 21.4272 -45.4538 0.00473795 21.4108 
-46.5753 -0.0380436 21.5065 -47.4133 -0.349596 21.4926 -47.675 -0.510553 21.9164 
-48.0063 -0.867321 21.5138 -44.7109 -0.635746 21.0147 -45.9679 -0.474988 20.8891 
-46.9972 -0.470588 20.914 -47.6056 -0.521292 21.0328 -41.0117 -1.15292 30.424 
-40.8961 -1.71037 30.9377 -40.1934 -1.60316 30.445 -41.8948 -1.15387 30.296 
-41.4634 -1.51362 30.8602 -42.1725 -1.8332 30.5786 -40.7548 -1.0758 29.5011 
-40.127 -1.4624 29.2048 -41.6778 -0.903934 29.4956 -42.5999 -1.49963 30.0361 
-42.5826 -1.14961 29.4273 -43.0095 -1.70566 29.4681 -40.646 -1.22523 28.6877 
-40.3316 -1.56767 28.3555 -41.5347 -1.07148 28.4959 -42.764 -1.06186 28.428 
-43.26 -1.72939 28.7 -41.0066 -1.50401 28.0066 -41.7887 -1.45465 27.7825 
-42.3338 -1.62727 27.2806 -42.6717 -1.18348 27.568 -43.8248 -1.57178 28.0427 
-43.8584 -1.06886 27.4536 -44.7731 -1.18869 27.2504 -44.532 -1.44635 27.7296 
-45.0052 -1.71567 27.4635 -42.8923 -1.48439 26.868 -43.019 -1.48972 26.2812 
-43.4842 -1.11855 26.532 -44.5866 -1.03247 26.4875 -45.2621 -1.72685 26.7181 
-43.0515 -1.08755 25.6096 -42.601 -1.6306 25.8618 -42.2705 -1.33886 25.1117 
-43.9057 -0.799445 25.729 -45.6721 -1.47496 26.1051 -47.0887 -0.997559 25.5261 
-46.7185 -1.52258 25.8684 -47.708 -1.22726 25.5221 -47.5853 -1.60714 25.7697 
-48.0906 -1.6908 25.5273 -41.9873 -1.35548 24.1704 -48.8225 -1.15019 24.1036 
-48.5387 -1.56592 24.8396 -48.9825 -1.67089 24.2323 -41.9579 -1.70819 23.2352 
-45.8346 -1.24393 23.424 -45.4119 -1.693 23.2947 -45.5723 -1.68712 23.6532 
-46.277 -1.59548 23.8558 -46.4116 -1.24567 23.3296 -46.9345 -1.54706 23.5508 
-48.8298 -1.15947 23.5415 -48.9914 -1.50695 23.7088 -42.6908 -0.894892 22.5108 
-42.2928 -1.58986 22.561 -45.9522 -1.57081 23.0617 -46.8609 -1.73888 23.0855 
-47.7925 -0.77704 22.2611 -48.2421 -1.54171 22.6386 -48.7093 -1.39126 23.23 
-42.875 -1.38057 21.9363 -43.6583 -1.01325 21.4217 -43.182 -1.83896 21.4109 
-48.4743 -1.53341 21.6684 -43.8907 -1.38816 20.9263 -44.5802 -1.17171 20.5192 
-44.2164 -1.82919 20.4408 -45.5649 -0.998106 20.2987 -46.7383 -0.831818 20.267 
-47.7776 -0.868681 20.5569 -48.7109 -1.55382 21.0216 -48.4793 -1.2707 20.1859 
-49.1441 -1.67772 20.5263 -44.887 -1.50217 20.1592 -45.6081 -1.53825 19.788 
-46.1729 -1.51314 19.4053 -46.4736 -1.19819 19.6511 -47.5408 -1.15863 19.6363 
-48.3323 -1.40554 19.5741 -48.9256 -1.57731 20.0018 -46.7227 -1.63131 19.0149 
-47.7944 -1.53092 19.0665 -38.9894 -2.15907 31.4164 -38.6332 -2.80428 31.904 
-38.2246 -2.46606 31.2021 -39.8076 -2.10626 31.2962 -39.6377 -2.61429 31.849 
-40.3785 -2.85211 31.3074 -38.7814 -2.08387 30.5004 -38.1635 -2.48038 30.2129 
-39.4042 -1.86557 30.7249 -40.701 -2.32494 30.9769 -41.5587 -2.20099 30.8971 
-42.271 -2.54883 30.3831 -38.7954 -2.17685 29.5276 -38.2729 -2.49605 29.5312 
-39.4902 -1.81773 29.771 -42.7792 -2.20204 29.9338 -43.1306 -2.29512 29.223 
-38.5545 -2.5967 28.9356 -39.1083 -2.65244 28.0971 -39.6127 -1.97667 28.5707 
-43.4171 -2.68198 28.7154 -39.8184 -2.20302 27.4763 -39.3651 -2.75906 27.2345 
-40.651 -1.91149 27.4954 -41.6596 -1.84085 27.2956 -43.8043 -2.28811 28.2373 
-44.5208 -2.39639 27.8271 -45.0864 -2.60581 27.1372 -39.8367 -2.41171 26.8466 
-40.1478 -2.47833 26.4302 -40.6388 -2.20438 26.5706 -41.5458 -2.04973 26.6283 
-42.413 -1.84948 26.5548 -45.4214 -2.71303 26.4604 -40.5659 -2.62828 25.9491 
-41.1325 -2.66977 25.1049 -41.717 -2.0621 25.7606 -45.7797 -2.3986 26.1649 
-46.6504 -2.57766 25.886 -47.6684 -2.28868 25.8223 -48.1206 -2.37197 25.3667 
-41.7005 -1.97244 24.72 -41.3352 -2.51143 24.2791 -47.0768 -2.10533 24.3008 
-46.306 -2.45399 24.5326 -46.8347 -2.60389 24.8877 -47.4658 -2.63747 25.0832 
-48.1133 -2.15598 24.4903 -48.741 -1.92185 24.3873 -41.6446 -2.04067 23.7936 
-41.3523 -2.82183 23.5444 -45.3517 -2.61582 23.7013 -45.7217 -2.24966 24.0379 
-47.6776 -1.92819 23.4482 -48.6288 -1.84621 23.6598 -41.7008 -2.42417 23.0952 
-42.1231 -2.61613 22.5323 -45.5686 -2.23978 23.1135 -46.3827 -2.35553 23.0089 
-47.6617 -2.48268 23.0125 -48.7354 -2.11477 22.1251 -48.5631 -2.47408 22.6853 
-48.9784 -2.81547 22.45 -42.6192 -2.29363 21.9372 -43.1257 -2.81094 21.4373 
-48.7539 -1.90296 21.5587 -49.2271 -2.59747 21.7311 -43.6187 -2.28606 20.9155 
-44.1294 -2.78603 20.4348 -49.6317 -2.00038 20.1244 -49.5367 -2.2458 20.9521 
-50.2362 -2.5034 20.4756 -44.8287 -2.24521 19.9333 -45.694 -1.98601 19.404 
-45.2313 -2.80968 19.4077 -48.7776 -1.80463 19.2162 -49.7073 -1.99628 19.405 
-50.3711 -2.26827 19.4529 -50.7052 -2.52528 19.9984 -50.9897 -2.58166 19.6033 
-45.9279 -2.36493 18.9077 -46.5951 -2.14555 18.4816 -46.2023 -2.82078 18.407 
-47.5634 -1.96813 18.5016 -48.5097 -2.13203 18.3995 -49.525 -2.16942 18.648 
-50.2859 -2.41502 18.5783 -50.8706 -2.5488 18.9865 -41.7676 -2.17224 17.1566 
-41.8128 -2.7355 17.7693 -41.0856 -2.57111 17.5414 -42.2581 -2.6335 17.5894 
-46.9725 -2.64111 18.1155 -47.9486 -2.61052 18.0314 -48.9586 -2.63317 18.039 
-49.9142 -2.74213 18.1107 -40.9675 -2.11334 16.4894 -40.4714 -2.5048 16.8946 
-40.2181 -2.44928 16.1158 -41.7914 -1.93097 16.3082 -42.5801 -2.36674 17.1997 
-42.7507 -2.02755 16.4787 -43.8989 -2.14177 16.2164 -43.6128 -2.66192 17.0215 
-44.2956 -2.6118 16.5658 -40.6082 -2.20697 15.6719 -40.2054 -2.4756 15.5329 
-41.3683 -2.11146 15.6244 -42.5337 -2.06645 15.488 -43.6848 -1.90975 15.4536 
-44.7801 -2.63547 16.0843 -44.7792 -2.0841 15.3329 -45.2914 -2.59369 15.5607 
-40.6853 -2.65966 15.0915 -41.9142 -2.52886 14.9722 -42.7852 -2.4728 14.8065 
-43.2873 -2.61502 14.3107 -43.6484 -2.14279 14.57 -44.6775 -1.90744 14.4317 
-45.7717 -2.63172 15.0882 -45.5684 -2.11758 14.3659 -46.2295 -2.60708 14.4521 
-43.8588 -2.46087 13.8759 -44.2273 -2.73926 13.2542 -44.535 -2.17659 13.6877 
-45.3787 -2.13815 13.5592 -46.1588 -2.56986 13.5062 -41.5879 -2.53787 12.7811 
-41.328 -2.39002 12.1795 -41.9999 -2.14787 12.2608 -42.7378 -2.20071 12.2047 
-42.398 -2.49989 12.8909 -43.1118 -2.58078 12.5592 -45.0376 -2.63339 13.1161 
-45.6225 -2.54082 13.1222 -41.6619 -2.16171 11.6455 -41.3156 -2.65424 11.6373 
-42.3694 -2.14028 11.5419 -43.1438 -2.48084 11.7253 -41.8687 -2.38679 11.1864 
-42.5751 -2.67717 10.9584 -37.7967 -2.96176 31.5428 -37.7052 -3.67348 31.8899 
-37.2102 -3.45223 31.1978 -38.8908 -3.63914 32.0611 -39.5678 -3.30589 32.0573 
-40.7681 -3.24011 31.5086 -40.4286 -3.38582 31.7873 -40.8718 -3.52144 31.5299 
-37.631 -2.95103 30.7397 -37.095 -3.49917 30.2067 -40.7799 -2.95691 30.3742 
-40.3306 -3.54036 30.4938 -40.6369 -3.55002 31.2645 -41.6224 -2.81922 30.3585 
-37.746 -2.99022 29.6556 -37.131 -3.65673 29.4091 -40.585 -3.26136 29.6194 
-40.3379 -3.7622 29.6348 -41.3712 -3.16774 29.5342 -42.6105 -3.02823 29.4434 
-37.7668 -3.49544 28.9137 -38.5177 -3.07478 28.5019 -38.2452 -3.82915 28.4328 
-40.834 -3.45533 29.1768 -41.7868 -3.64862 29.1127 -42.7034 -3.65883 29.0356 
-43.395 -3.53724 28.7739 -43.9722 -3.05653 28.2656 -43.9366 -3.67189 28.2199 
-38.7535 -3.38411 28.1162 -39.0238 -3.47845 27.5695 -44.3807 -3.44576 27.5827 
-44.7859 -3.03567 27.4789 -39.7392 -2.83966 26.5027 -39.3061 -3.66599 26.6753 
-44.8149 -3.39551 27.0319 -45.1068 -3.48683 26.4743 -39.9158 -3.34908 25.9418 
-40.5307 -3.09504 25.4959 -40.1945 -3.81663 25.2634 -45.8466 -3.54876 25.9629 
-46.5946 -3.03742 25.3083 -46.131 -3.69482 25.3926 -47.5174 -2.81217 25.6066 
-40.7133 -3.3298 24.9819 -41.0037 -3.44064 24.1972 -45.7243 -3.09617 24.5822 
-45.3652 -3.44668 24.3166 -45.751 -3.69833 24.8737 -46.6484 -3.6141 24.7928 
-46.1787 -3.66296 24.6366 -46.6554 -3.3513 24.1077 -47.092 -3.63976 24.6327 
-41.2934 -3.68341 23.3972 -45.6462 -3.39937 24.0833 -45.8985 -2.90881 23.4468 
-46.8274 -2.92707 23.3585 -47.5347 -3.53207 24.0758 -47.6487 -3.21847 23.5068 
-48.1497 -3.62279 23.6607 -41.765 -3.4273 22.9028 -42.3151 -3.64766 22.4885 
-48.56 -3.24067 23.0183 -49.2391 -3.72844 22.2452 -42.8007 -3.53669 22.0579 
-43.3204 -3.64927 21.5251 -49.7979 -3.55608 21.7949 -50.0775 -2.97696 21.3239 
-50.9197 -3.23921 21.2137 -50.4533 -3.63803 21.7597 -51.1295 -3.62801 21.5979 
-43.6476 -3.25946 21.0016 -44.1692 -3.84998 20.6202 -50.8737 -2.83762 20.4211 
-51.6624 -3.45516 21.1296 -51.7124 -3.1534 20.5615 -52.4621 -3.29975 20.2103 
-52.6168 -3.72247 20.9652 -53.1153 -3.70959 20.5234 -44.6492 -3.30098 19.9163 
-45.1332 -3.81387 19.2282 -51.6885 -2.9778 19.3436 -52.4925 -3.38748 19.5999 
-52.9169 -3.59213 20.0384 -40.0008 -3.18867 18.3588 -39.7402 -3.67232 18.8808 
[...]
CELL_DATA 28892
SCALARS scalars float
LOOKUP_TABLE default
1031 1031 1031 1031 1031 1031 1031 1031 1031 
1031 1031 1031 1031 1031 1031 1031 1031 1031 
1031 1031 1031 1031 1031 1031 1031 1031 1031 
1031 1031 1031 1031 1031 1031 1031 1031 1031 
1031 1031 1031 1031 1031 1031 1031 1031 1031 
1031 1031 1031 1031 1031 1031 1031 1031 1031 
1031 1031 1031 1031 1031 1031 1031 1031 1031 
1031 1031 1031 1031 1031 1031 1031 1031 1031 
1031 1031 1031 1031 1031 1031 1031 1031 1031 
1031 1031 1031 1031 1031 1031 1031 1031 1031 
1031 1031 1031 1031 1031 1031 1031 1031 1031 
1031 1031 1031 1031 1031 1031 1031 1031 1031 
1031 1031 1031 1031 1031 1031 1031 1031 1031 
1031 1031 1031 1031 1031 1031 1031 1031 1031 
1031 1031 1031 1031 1031 1031 1031 1031 1031 
1031 1031 1031 1031 1031 1031 1031 1031 1031 
1031 1031 1031 1031 1031 1031 1031 1031 1031 
1031 1031 1031 1031 1031 1031 1031 1031 1031 
1031 1031 1031 1031 1031 1031 1031 1031 1031 
1031 1031 1031 1031 1031 1031 1031 1031 1031 
1031 1031 1031 1031 1031 1031 1031 1031 1031 
1031 1031 1031 1031 1031 1031 1031 1031 1031 
1031 1031 1031 1031 1031 1031 1031 1031 1031 
1031 1031 1031 1031 1031 1031 1031 1031 1031 
1031 1031 1031 1031 1031 1031 1031 1031 1031 
1031 1031 1031 1031 1031 1031 1031 1031 1031 
1031 1031 1031 1031 1031 1031 1031 1031 1031 
1031 1031 1031 1031 1031 1031 1031 1031 1031 
1031 1031 1031 1031 1031 1031 1031 1031 1031 
1031 1031 1031 1031 1031 1031 1031 1031 1031 
1031 1031 1031 1031 1031 1031 1031 1031 1031 
1031 1031 1031 1031 1031 1031 1031 1031 1031 
1031 1031 1031 1031 1031 1031 1031 1031 1031 
1031 1031 1031 1031 1031 1031 1031 1031 1031 
1031 1031 1031 1031 1031 1031 1031 1031 1031 
1031 1031 1031 1031 1031 1031 1031 1031 1031 
1031 1031 1031 1031 1031 1031 1031 1031 1031 
1031 1031 1031 1031 1031 1031 1031 1031 1031 
1031 1031 1031 1031 1031 1031 1031 1031 1031 
1031 1031 1031 1031 1031 1031 1031 1031 1031 
1031 1031 1031 1031 1031 1031 1031 1031 1031 
1031 1031 1031 1031 1031 1031 1031 1031 1031 
1031 1031 1031 1031 1031 1031 1031 1031 1031 
1031 1031 1031 1031 1031 1031 1031 1031 1031 
1031 1031 1031 1031 1031 1031 1031 1031 1031 
1031 1031 1031 1031 1031 1031 1031 1031 1031 
1031 1031 1031 1031 1031 1031 1031 1031 1031 
1031 1031 1031 1031 1031 1031 1031 1031 1031 
1031 1031 1031 1031 1031 1031 1031 1031 1031 
1031 1031 1031 1031 1031 1031 1031 1031 1031 
1031 1031 1031 1031 1031 1031 1031 1031 1031 
1031 1031 1031 1031 1031 1031 1031 1031 1031 
1031 1031 1031 1031 1031 1031 1031 1031 1031 
1031 1031 1031 1031 1031 1031 1031 1031 1031 
1031 1031 1031 1031 1031 1031 1031 1031 1031 
1031 1031 1031 1031 1031 1031 1031 1031 1031 
1031 1031 1031 1031 1031 1031 1031 1031 1031 
1031 1031 1031 1031 1031 1031 1031 1031 1031 
1031 1031 1031 1031 1031 1031 1031 1031 1031 
1031 1031 1031 1031 1031 1031 1031 1031 1031 
1031 1031 1031 1031 1031 1031 1031 1031 1031 
1031 1031 1031 1031 1031 1031 1031 1031 1031 
1031 1031 1031 1031 1031 1031 1031 1031 1031 
1031 1031 1031 1031 1031 1031 1031 1031 1031 
1031 1031 1031 1031 1031 1031 1031 1031 1031 
1031 1031 1031 1031 1031 1031 1031 1031 1031 
1031 1031 1031 1031 1031 1031 1031 1031 1031 
1031 1031 1031 1031 1031 1031 1031 1031 1031 
1031 1031 1031 1031 1031 1031 1031 1031 1031 
1031 1031 1031 1031 1031 1031 1031 1031 1031 
1031 1031 1031 1031 1031 1031 1031 1031 1031 
1031 1031 1031 1031 1031 1031 1031 1031 1031 
1031 1031 1031 1031 1031 1031 1031 1031 1031 
1031 1031 1031 1031 1031 1031 1031 1031 1031 
1031 1031 1031 1031 1031 1031 1031 1031 1031 
1031 1031 1031 1031 1031 1031 1031 1031 1031 
1031 1031 1031 1031 1031 1031 1031 1031 1031 
1031 1031 1031 1031 1031 1031 1031 1031 1031 
1031 1031 1031 1031 1031 1031 1031 1031 1031 
1031 1031 1031 1031 1031 1031 1031 1031 1031 
1031 1031 1031 1031 1031 1031 1031 1031 1031 
1031 1031 1031 1031 1031 1031 1031 1031 1031 
1031 1031 1031 1031 1031 1031 1031 1031 1031 
1031 1031 1031 1031 1031 1031 1031 1031 1031 
1031 1031 1031 1031 1031 1031 1031 1031 1031 
1031 1031 1031 1031 1031 1031 1031 1031 1031 
1031 1031 1031 1031 1031 1031 1031 1031 1031 
1031 1031 1031 1031 1031 1031 1031 1031 1031 
1031 1031 1031 1031 1031 1031 1031 1031 1031 
1031 1031 1031 1031 1031 1031 1031 1031 1031 
1031 1031 1031 1031 1031 1031 1031 1031 1031 
1031 1031 1031 1031 1031 1031 1031 1031 1031 
1031 1031 1031 1031 1031 1031 1031 1031 1031 
1031 1031 1031 1031 1031 1031 1031 1031 1031 
1031 1031 1031 1031 1031 1031 1031 1031 1031 
1031 1031 1031 1031 1031 1031 1031 1031 1031 
1031 1031 1031 1031 1031 1031 1031 1031 1031 
1031 1031 1031 1031 1031 1031 1031 1031 1031 
1031 1031 1031 1031 1031 1031 1031 1031 1031 
1031 1031 1031 1031 1031 1031 1031 1031 1031 
1031 1031 1031 1031 1031 1031 1031 1031 1031 
1031 1031 1031 1031 1031 1031 1031 1031 1031 
1031 1031 1031 1031 1031 1031 1031 1031 1031 
1031 1031 1031 1031 1031 1031 1031 1031 1031 
1031 1031 1031 1031 1031 1031 1031 1031 1031 
1031 1031 1031 1031 1031 1031 1031 1031 1031 
1031 1031 1031 1031 1031 1031 1031 1031 1031 
1031 1031 1031 1031 1031 1031 1031 1031 1031 
1031 1031 1031 1031 1031 1031 1031 1031 1031 
1031 1031 1031 1031 1031 1031 1031 1031 1031 
1031 1031 1031 1031 1031 1031 1031 1031 1031 
1031 1031 1031 1031 1031 1031 1031 1031 1031 
1031 1031 1031 1031 1031 1031 1031 1031 1031 
1031 1031 1031 1031 1031 1031 1031 1031 1031 
1031 1031 1031 1031 1031 1031 1031 1031 1031 
1031 1031 1031 1031 1031 1031 1031 1031 1031 
1031 1031 1031 1031 1031 1031 1031 1031 1031 
1031 1031 1031 1031 1031 1031 1031 1031 1031 
1031 1031 1031 1031 1031 1031 1031 1031 1031 
1031 1031 1031 1031 1031 1031 1031 1031 1031 
1031 1031 1031 1031 1031 1031 1031 1031 1031 
1031 1031 1031 1031 1031 1031 1031 1031 1031 
1031 1031 1031 1031 1031 1031 1031 1031 1031 
1031 1031 1031 1031 1031 1031 1031 1031 1031 
1031 1031 1031 1031 1031 1031 1031 1031 1031 
1031 1031 1031 1031 1031 1031 1031 1031 1031 
1031 1031 1031 1031 1031 1031 1031 1031 1031 
1031 1031 1031 1031 1031 1031 1031 1031 1031 
1031 1031 1031 1031 1031 1031 1031 1031 1031 
1031 1031 1031 1031 1031 1031 1031 1031 1031 
1031 1031 1031 1031 1031 1031 1031 1031 1031 
1031 1031 1031 1031 1031 1031 1031 1031 1031 
1031 1031 1031 1031 1031 1031 1031 1031 1031 
1031 1031 1031 1031 1031 1031 1031 1031 1031 
1031 1031 1031 1031 1031 1031 1031 1031 1031 
1031 1031 1031 1031 1031 1031 1031 1031 1031 
1031 1031 1031 1031 1031 1031 1031 1031 1031 
1031 1031 1031 1031 1031 1031 1031 1031 1031 
1031 1031 1031 1031 1031 1031 1031 1031 1031 
1031 1031 1031 1031 1031 1031 1031 1031 1031 
1031 1031 1031 1031 1031 1031 1031 1031 1031 
1031 1031 1031 1031 1031 1031 1031 1031 1031 
1031 1031 1031 1031 1031 1031 1031 1031 1031 
1031 1031 1031 1031 1031 1031 1031 1031 1031 
1031 1031 1031 1031 1031 1031 1031 1031 1031 
1031 1031 1031 1031 1031 1031 1031 1031 1031 
1031 1031 1031 1031 1031 1031 1031 1031 1031 
1031 1031 1031 1031 1031 1031 1031 1031 1031 
1031 1031 1031 1031 1031 1031 1031 1031 1031 
1031 1031 1031 1031 1031 1031 1031 1031 1031 
1031 1031 1031 1031 1031 1031 1031 1031 1031 
1031 1031 1031 1031 1031 1031 1031 1031 1031 
1031 1031 1031 1031 1031 1031 1031 1031 1031 
1031 1031 1031 1031 1031 1031 1031 1031 1031 
1031 1031 1031 1031 1031 1031 1031 1031 1031 
1031 1031 1031 1031 1031 1031 1031 1031 1031 
1031 1031 1031 1031 1031 1031 1031 1031 1031 
1031 1031 1031 1031 1031 1031 1031 1031 1031 
1031 1031 1031 1031 1031 1031 1031 1031 1031 
1031 1031 1031 1031 1031 1031 1031 1031 1031 
1031 1031 1031 1031 1031 1031 1031 1031 1031 
1031 1031 1031 1031 1031 1031 1031 1031 1031 
1031 1031 1031 1031 1031 1031 1031 1031 1031 
1031 1031 1031 1031 1031 1031 1031 1031 1031 
1031 1031 1031 1031 1031 1031 1031 1031 1031 
1031 1031 1031 1031 1031 1031 1031 1031 1031 
1031 1031 1031 1031 1031 1031 1031 1031 1031 
1031 1031 1031 1031 1031 1031 1031 1031 1031 
1031 1031 1031 1031 1031 1031 1031 1031 1031 
1031 1031 1031 1031 1031 1031 1031 1031 1031 
1031 1031 1031 1031 1031 1031 1031 1031 1031 
1031 1031 1031 1031 1031 1031 1031 1031 1031 
1031 1031 1031 1031 1031 1031 1031 1031 1031 
1031 1031 1031 1031 1031 1031 1031 1031 1031 
1031 1031 1031 1031 1031 1031 1031 1031 1031 
1031 1031 1031 1031 1031 1031 1031 1031 1031 
1031 1031 1031 1031 1031 1031 1031 1031 1031 
1031 1031 1031 1031 1031 1031 1031 1031 1031 
1031 1031 1031 1031 1031 1031 1031 1031 1031 
1031 1031 1031 1031 1031 1031 1031 1031 1031 
1031 1031 1031 1031 1031 1031 1031 1031 1031 
1031 1031 1031 1031 1031 1031 1031 1031 1031 
1031 1031 1031 1031 1031 1031 1031 1031 1031 
1031 1031 1031 1031 1031 1031 1031 1031 1031 
1031 1031 1031 1031 1031 1031 1031 1031 1031 
1031 1031 1031 1031 1031 1031 1031 1031 1031 
1031 1031 1031 1031 1031 1031 1031 1031 1031 
1031 1031 1031 1031 1031 1031 1031 1031 1031 
1031 1031 1031 1031 1031 1031 1031 1031 1031 
1031 1031 1031 1031 1031 1031 1031 1031 1031 
1031 1031 1031 1031 1031 1031 1031 1031 1031 
1031 1031 1031 1031 1031 1031 1031 1031 1031 
1031 1031 1031 1031 1031 1031 1031 1031 1031 
1031 1031 1031 1031 1031 1031 1031 1031 1031 
1031 1031 1031 1031 1031 1031 1031 1031 1031 
1031 1031 1031 1031 1031 1031 1031 1031 1031 
1031 1031 1031 1031 1031 1031 1031 1031 1031 
1031 1031 1031 1031 1031 1031 1031 1031 1031 
1031 1031 1031 1031 1031 1031 1031 1031 1031 
1031 1031 1031 1031 1031 1031 1031 1031 1031 
1031 1031 1031 1031 1031 1031 1031 1031 1031 
1031 1031 1031 1031 1031 1031 1031 1031 1031 
1031 1031 1031 1031 1031 1031 1031 1031 1031 
1031 1031 1031 1031 1031 1031 1031 1031 1031 
1031 1031 1031 1031 1031 1031 1031 1031 1031 
1031 1031 1031 1031 1031 1031 1031 1031 1031 
1031 1031 1031 1031 1031 1031 1031 1031 1031 
1031 1031 1031 1031 1031 1031 1031 1031 1031 
1031 1031 1031 1031 1031 1031 1031 1031 1031 
1031 1031 1031 1031 1031 1031 1031 1031 1031 
1031 1031 1031 1031 1031 1031 1031 1031 1031 
1031 1031 1031 1031 1031 1031 1031 1031 1031 
1031 1031 1031 1031 1031 1031 1031 1031 1031 
1031 1031 1031 1031 1031 1031 1031 1031 1031 
1031 1031 1031 1031 1031 1031 1031 1031 1031 
1031 1031 1031 1031 1031 1031 1031 1031 1031 
1031 1031 1031 1031 1031 1031 1031 1031 1031 
1031 1031 1031 1031 1031 1031 1031 1031 1031 
1031 1031 1031 1031 1031 1031 1031 1031 1031 
1031 1031 1031 1031 1031 1031 1031 1031 1031 
1031 1031 1031 1031 1031 1031 1031 1031 1031 
1031 1031 1031 1031 1031 1031 1031 1031 1031 
1031 1031 1031 1031 1031 1031 1031 1031 1031 
1031 1031 1031 1031 1031 1031 1031 1031 1031 
1031 1031 1031 1031 1031 1031 1031 1031 1031 
1031 1031 1031 1031 1031 1031 1031 1031 1031 
1031 1031 1031 1031 1031 1031 1031 1031 1031 
1031 1031 1031 1031 1031 1031 1031 1031 1031 
1031 1031 1031 1031 1031 1031 1031 1031 1031 
1031 1031 1031 1031 1031 1031 1031 1031 1031 
1031 1031 1031 1031 1031 1031 1031 1031 1031 
1031 1031 1031 1031 1031 1031 1031 1031 1031 
1031 1031 1031 1031 1031 1031 1031 1031 1031 
1031 1031 1031 1031 1031 1031 1031 1031 1031 
1031 1031 1031 1031 1031 1031 1031 1031 1031 
1031 1031 1031 1031 1031 1031 1031 1031 1031 
1031 1031 1031 1031 1031 1031 1031 1031 1031 
1031 1031 1031 1031 1031 1031 1031 1031 1031 
1031 1031 1031 1031 1031 1031 1031 1031 1031 
1031 1031 1031 1031 1031 1031 1031 1031 1031 
1031 1031 1031 1031 1031 1031 1031 1031 1031 
1031 1031 1031 1031 1031 1031 1031 1031 1031 
1031 1031 1031 1031 1031 1031 1031 1031 1031 
1031 1031 1031 1031 1031 1031 1031 1031 1031 
1031 1031 1031 1031 1031 1031 1031 1031 1031 
1031 1031 1031 1031 1031 1031 1031 1031 1031 
1031 1031 1031 1031 1031 1031 1031 1031 1031 
1031 1031 1031 1031 1031 1031 1031 1031 1031 
1031 1031 1031 1031 1031 1031 1031 1031 1031 
1031 1031 1031 1031 1031 1031 1031 1031 1031 
1031 1031 1031 1031 1031 1031 1031 1031 1031 
1031 1031 1031 1031 1031 1031 1031 1031 1031 
1031 1031 1031 1031 1031 1031 1031 1031 1031 
1031 1031 1031 1031 1031 1031 1031 1031 1031 
1031 1031 1031 1031 1031 1031 1031 1031 1031 
1031 1031 1031 1031 1031 1031 1031 1031 1031 
1031 1031 1031 1031 1031 1031 1031 1031 1031 
1031 1031 1031 1031 1031 1031 1031 1031 1031 
1031 1031 1031 1031 1031 1031 1031 1031 1031 
1031 1031 1031 1031 1031 1031 1031 1031 1031 
1031 1031 1031 1031 1031 1031 1031 1031 1031 
1031 1031 1031 1031 1031 1031 1031 1031 1031 
1031 1031 1031 1031 1031 1031 1031 1031 1031 
1031 1031 1031 1031 1031 1031 1031 1031 1031 
1031 1031 1031 1031 1031 1031 1031 1031 1031 
1031 1031 1031 1031 1031 1031 1031 1031 1031 
1031 1031 1031 1031 1031 1031 1031 1031 1031 
1031 1031 1031 1031 1031 1031 1031 1031 1031 
1031 1031 1031 1031 1031 1031 1031 1031 1031 
1031 1031 1031 1031 1031 1031 1031 1031 1031 
1031 1031 1031 1031 1031 1031 1031 1031 1031 
1031 1031 1031 1031 1031 1031 1031 1031 1031 
1031 1031 1031 1031 1031 1031 1031 1031 1031 
1031 1031 1031 1031 1031 1031 1031 1031 1031 
1031 1031 1031 1031 1031 1031 1031 1031 1031 
1031 1031 1031 1031 1031 1031 1031 1031 1031 
1031 1031 1031 1031 1031 1031 1031 1031 1031 
1031 1031 1031 1031 1031 1031 1031 1031 1031 
1031 1031 1031 1031 1031 1031 1031 1031 1031 
1031 1031 1031 1031 1031 1031 1031 1031 1031 
1031 1031 1031 1031 1031 1031 1031 1031 1031 
1031 1031 1031 1031 1031 1031 1031 1031 1031 
1031 1031 1031 1031 1031 1031 1031 1031 1031 
1031 1031 1031 1031 1031 1031 1031 1031 1031 
1031 1031 1031 1031 1031 1031 1031 1031 1031 
1031 1031 1031 1031 1031 1031 1031 1031 1031 
1031 1031 1031 1031 1031 1031 1031 1031 1031 
1031 1031 1031 1031 1031 1031 1031 1031 1031 
1031 1031 1031 1031 1031 1031 1031 1031 1031 
1031 1031 1031 1031 1031 1031 1031 1031 1031 
1031 1031 1031 1031 1031 1031 1031 1031 1031 
1031 1031 1031 1031 1031 1031 1031 1031 1031 
1031 1031 1031 1031 1031 1031 1031 1031 1031 
1031 1031 1031 1031 1031 1031 1031 1031 1031 
1031 1031 1031 1031 1031 1031 1031 1031 1031 
1031 1031 1031 1031 1031 1031 1031 1031 1031 
1031 1031 1031 1031 1031 1031 1031 1031 1031 
1031 1031 1031 1031 1031 1031 1031 1031 1031 
1031 1031 1031 1031 1031 1031 1031 1031 1031 
1031 1031 1031 1031 1031 1031 1031 1031 1031 
1031 1031 1031 1031 1031 1031 1031 1031 1031 
1031 1031 1031 1031 1031 1031 1031 1031 1031 
1031 1031 1031 1031 1031 1031 1031 1031 1031 
1031 1031 1031 1031 1031 1031 1031 1031 1031 
1031 1031 1031 1031 1031 1031 1031 1031 1031 
1031 1031 1031 1031 1031 1031 1031 1031 1031 
1031 1031 1031 1031 1031 1031 1031 1031 1031 
1031 1031 1031 1031 1031 1031 1031 1031 1031 
1031 1031 1031 1031 1031 1031 1031 1031 1031 
1031 1031 1031 1031 1031 1031 1031 1031 1031 
1031 1031 1031 1031 1031 1031 1031 1031 1031 
1031 1031 1031 1031 1031 1031 1031 1031 1031 
1031 1031 1031 1031 1031 1031 1031 1031 1031 
1031 1031 1031 1031 1031 1031 1031 1031 1031 
1031 1031 1031 1031 1031 1031 1031 1031 1031 
1031 1031 1031 1031 1031 1031 1031 1031 1031 
1031 1031 1031 1031 1031 1031 1031 1031 1031 
1031 1031 1031 1031 1031 1031 1031 1031 1031 
1031 1031 1031 1031 1031 1031 1031 1031 1031 
1031 1031 1031 1031 1031 1031 1031 1031 1031 
1031 1031 1031 1031 1031 1031 1031 1031 1031 
1031 1031 1031 1031 1031 1031 1031 1031 1031 
1031 1031 1031 1031 1031 1031 1031 1031 1031 
1031 1031 1031 1031 1031 1031 1031 1031 1031 
1031 1031 1031 1031 1031 1031 1031 1031 1031 
1031 1031 1031 1031 1031 1031 1031 1031 1031 
1031 1031 1031 1031 1031 1031 1031 1031 1031 
1031 1031 1031 1031 1031 1031 1031 1031 1031 
1031 1031 1031 1031 1031 1031 1031 1031 1031 
1031 1031 1031 1031 1031 1031 1031 1031 1031 
1031 1031 1031 1031 1031 1031 1031 1031 1031 
1031 1031 1031 1031 1031 1031 1031 1031 1031 
1031 1031 1031 1031 1031 1031 1031 1031 1031 
1031 1031 1031 1031 1031 1031 1031 1031 1031 
1031 1031 1031 1031 1031 1031 1031 1031 1031 
1031 1031 1031 1031 1031 1031 1031 1031 1031 
1031 1031 1031 1031 1031 1031 1031 1031 1031 
1031 1031 1031 1031 1031 1031 1031 1031 1031 
1031 1031 1031 1031 1031 1031 1031 1031 1031 
1031 1031 1031 1031 1031 1031 1031 1031 1031 
1031 1031 1031 1031 1031 1031 1031 1031 1031 
1031 1031 1031 1031 1031 1031 1031 1031 1031 
1031 1031 1031 1031 1031 1031 1031 1031 1031 
1031 1031 1031 1031 1031 1031 1031 1031 1031 
1031 1031 1031 1031 1031 1031 1031 1031 1031 
1031 1031 1031 1031 1031 1031 1031 1031 1031 
1031 1031 1031 1031 1031 1031 1031 1031 1031 
1031 1031 1031 1031 1031 1031 1031 1031 1031 
1031 1031 1031 1031 1031 1031 1031 1031 1031 
1031 1031 1031 1031 1031 1031 1031 1031 1031 
1031 1031 1031 1031 1031 1031 1031 1031 1031 
1031 1031 1031 1031 1031 1031 1031 1031 1031 
1031 1031 1031 1031 1031 1031 1031 1031 1031 
1031 1031 1031 1031 1031 1031 1031 1031 1031 
1031 1031 1031 1031 1031 1031 1031 1031 1031 
1031 1031 1031 1031 1031 1031 1031 1031 1031 
1031 1031 1031 1031 1031 1031 1031 1031 1031 
1031 1031 1031 1031 1031 1031 1031 1031 1031 
1031 1031 1031 1031 1031 1031 1031 1031 1031 
1031 1031 1031 1031 1031 1031 1031 1031 1031 
1031 1031 1031 1031 1031 1031 1031 1031 1031 
1031 1031 1031 1031 1031 1031 1031 1031 1031 
1031 1031 1031 1031 1031 1031 1031 1031 1031 
1031 1031 1031 1031 1031 1031 1031 1031 1031 
1031 1031 1031 1031 1031 1031 1031 1031 1031 
1031 1031 1031 1031 1031 1031 1031 1031 1031 
1031 1031 1031 1031 1031 1031 1031 1031 1031 
1031 1031 1031 1031 1031 1031 1031 1031 1031 
1031 1031 1031 1031 1031 1031 1031 1031 1031 
1031 1031 1031 1031 1031 1031 1031 1031 1031 
1031 1031 1031 1031 1031 1031 1031 1031 1031 
1031 1031 1031 1031 1031 1031 1031 1031 1031 
1031 1031 1031 1031 1031 1031 1031 1031 1031 
1031 1031 1031 1031 1031 1031 1031 1031 1031 
1031 1031 1031 1031 1031 1031 1031 1031 1031 
1031 1031 1031 1031 1031 1031 1031 1031 1031 
1031 1031 1031 1031 1031 1031 1031 1031 1031 
1031 1031 1031 1031 1031 1031 1031 1031 1031 
1031 1031 1031 1031 1031 1031 1031 1031 1031 
1031 1031 1031 1031 1031 1031 1031 1031 1031 
1031 1031 1031 1031 1031 1031 1031 1031 1031 
1031 1031 1031 1031 1031 1031 1031 1031 1031 
1031 1031 1031 1031 1031 1031 1031 1031 1031 
1031 1031 1031 1031 1031 1031 1031 1031 1031 
1031 1031 1031 1031 1031 1031 1031 1031 1031 
1031 1031 1031 1031 1031 1031 1031 1031 1031 
1031 1031 1031 1031 1031 1031 1031 1031 1031 
1031 1031 1031 1031 1031 1031 1031 1031 1031 
1031 1031 1031 1031 1031 1031 1031 1031 1031 
1031 1031 1031 1031 1031 1031 1031 1031 1031 
1031 1031 1031 1031 1031 1031 1031 1031 1031 
1031 1031 1031 1031 1031 1031 1031 1031 1031 
1031 1031 1031 1031 1031 1031 1031 1031 1031 
1031 1031 1031 1031 1031 1031 1031 1031 1031 
1031 1031 1031 1031 1031 1031 1031 1031 1031 
1031 1031 1031 1031 1031 1031 1031 1031 1031 
1031 1031 1031 1031 1031 1031 1031 1031 1031 
1031 1031 1031 1031 1031 1031 1031 1031 1031 
1031 1031 1031 1031 1031 1031 1031 1031 1031 
1031 1031 1031 1031 1031 1031 1031 1031 1031 
1031 1031 1031 1031 1031 1031 1031 1031 1031 
1031 1031 1031 1031 1031 1031 1031 1031 1031 
1031 1031 1031 1031 1031 1031 1031 1031 1031 
1031 1031 1031 1031 1031 1031 1031 1031 1031 
1031 1031 1031 1031 1031 1031 1031 1031 1031 
1031 1031 1031 1031 1031 1031 1031 1031 1031 
1031 1031 1031 1031 1031 1031 1031 1031 1031 
1031 1031 1031 1031 1031 1031 1031 1031 1031 
1031 1031 1031 1031 1031 1031 1031 1031 1031 
1031 1031 1031 1031 1031 1031 1031 1031 1031 
1031 1031 1031 1031 1031 1031 1031 1031 1031 
1031 1031 1031 1031 1031 1031 1031 1031 1031 
1031 1031 1031 1031 1031 1031 1031 1031 1031 
1031 1031 1031 1031 1031 1031 1031 1031 1031 
1031 1031 1031 1031 1031 1031 1031 1031 1031 
1031 1031 1031 1031 1031 1031 1031 1031 1031 
1031 1031 1031 1031 1031 1031 1031 1031 1031 
1031 1031 1031 1031 1031 1031 1031 1031 1031 
1031 1031 1031 1031 1031 1031 1031 1031 1031 
1031 1031 1031 1031 1031 1031 1031 1031 1031 
1031 1031 1031 1031 1031 1031 1031 1031 1031 
1031 1031 1031 1031 1031 1031 1031 1031 1031 
1031 1031 1031 1031 1031 1031 1031 1031 1031 
1031 1031 1031 1031 1031 1031 1031 1031 1031 
1031 1031 1031 1031 1031 1031 1031 1031 1031 
1031 1031 1031 1031 1031 1031 1031 1031 1031 
1031 1031 1031 1031 1031 1031 1031 1031 1031 
1031 1031 1031 1031 1031 1031 1031 1031 1031 
1031 1031 1031 1031 1031 1031 1031 1031 1031 
1031 1031 1031 1031 1031 1031 1031 1031 1031 
1031 1031 1031 1031 1031 1031 1031 1031 1031 
1031 1031 1031 1031 1031 1031 1031 1031 1031 
1031 1031 1031 1031 1031 1031 1031 1031 1031 