# vtk DataFile Version 4.2
vtk output
ASCII
DATASET POLYDATA
POINTS 14954 float
32.417 -11.2586 -0.115984 32.7261 -10.9242 -0.437494 32.8452 -11.2877 -0.252686 
32.2705 -10.9686 -0.381766 31.3263 -11.1992 -0.0587265 31.21 -10.8906 -0.387611 
31.7003 -11.0703 -0.312117 30.9196 -11.2636 -0.0773483 30.8938 -10.9445 -0.236632 
30.5322 -10.9937 -0.352011 32.6543 -11.7257 -0.017308 33.0097 -11.7449 -0.198871 
32.0619 -11.2352 -0.184731 32.0271 -11.6677 -0.0335129 31.4076 -11.6401 -0.0442657 
31.0643 -11.6237 -0.215231 30.6294 -11.3874 -0.44333 33.0449 -12.1829 -0.120255 
33.3001 -12.0652 -0.302696 33.3501 -12.3524 -0.282655 32.6296 -12.2589 -0.0762589 
32.2746 -12.274 -0.236023 31.8276 -12.0482 -0.397224 31.3623 -11.879 -0.371306 
34.2603 -12.9303 -0.0850296 34.4183 -12.5901 -0.346719 34.5919 -12.9683 -0.353352 
33.9441 -13.1191 -0.105766 33.9888 -12.648 -0.2431 33.0819 -12.5183 -0.387296 
33.6747 -12.86 -0.359601 32.604 -12.5232 -0.400269 34.3565 -13.3619 -0.0987442 
34.5848 -13.4128 -0.360255 34.1512 -13.4913 -0.197191 33.8949 -13.2387 -0.480766 
34.4178 -13.6206 -0.232288 31.9844 -10.7045 -0.676611 32.143 -10.3764 -1.08089 
32.2869 -10.5101 -0.889929 31.6819 -10.4026 -1.03496 30.1921 -10.7053 -0.706773 
30.0413 -10.3573 -1.03032 30.4565 -10.3767 -0.994981 29.8128 -10.606 -1.02359 
33.707 -11.1865 -0.703285 33.8584 -10.8667 -0.936548 34.1761 -11.165 -0.862651 
33.1481 -11.0579 -0.535428 33.2513 -10.761 -0.830173 32.5755 -10.665 -0.782492 
31.9779 -11.0286 -0.372395 31.4297 -10.721 -0.724594 30.813 -10.6958 -0.704828 
30.225 -11.099 -0.54684 29.9667 -10.9706 -0.826208 34.2087 -11.6506 -0.714111 
34.5363 -11.4164 -0.937546 34.6976 -11.8701 -0.905846 33.7837 -11.6646 -0.603117 
33.3373 -11.5793 -0.463939 31.0394 -11.7354 -0.688861 30.6628 -11.528 -1.05792 
30.2091 -11.288 -0.89073 34.3333 -12.2086 -0.576416 34.682 -12.4481 -0.816339 
33.6424 -12.3078 -0.504034 32.3075 -12.3658 -0.681097 32.0113 -12.1013 -1.07902 
31.4493 -11.962 -0.882381 35.9873 -12.9192 -0.695686 36.2573 -12.6478 -0.896356 
36.3404 -12.9802 -0.887091 35.4427 -13.0632 -0.670541 35.7925 -12.6392 -0.862596 
35.2202 -13.017 -1.04065 34.5775 -13.0354 -0.815726 33.228 -12.6104 -0.795154 
33.5412 -12.8387 -0.804758 32.7858 -12.5416 -0.814014 39.2259 -13.4875 -0.750659 
39.3189 -13.2643 -0.951407 39.3404 -13.6611 -0.974533 39.0208 -13.4674 -1.02823 
36.0867 -13.2497 -0.799718 35.923 -13.5811 -0.943323 35.6622 -13.3483 -0.668166 
35.007 -13.3 -0.793483 35.1333 -13.4894 -0.712605 34.8651 -13.5418 -0.84245 
34.2449 -13.2264 -0.817159 34.3659 -13.4625 -0.485431 33.9096 -13.0999 -0.925781 
39.2032 -13.6578 -0.809761 35.5164 -13.721 -0.961075 35.0875 -13.6904 -1.02556 
34.1637 0.229843 -1.3009 34.4138 0.535995 -1.52767 34.6223 0.132211 -1.48044 
33.7717 0.196252 -1.32279 33.9745 0.587494 -1.47959 33.5802 0.379157 -1.51654 
34.3717 -0.351471 -1.23556 34.785 -0.326917 -1.44413 33.8546 -0.265192 -1.25516 
33.4817 -0.118085 -1.4738 34.8656 -0.903882 -1.26525 35.0963 -0.624316 -1.53768 
35.3367 -0.975824 -1.46212 34.3063 -0.983954 -1.16189 33.8947 -0.878925 -1.25017 
33.5025 -0.720264 -1.47938 35.3826 -1.45785 -1.29065 35.6824 -1.24083 -1.54014 
35.8601 -1.69197 -1.48478 34.8835 -1.56071 -1.16213 34.381 -1.50234 -1.15595 
33.8755 -1.4915 -1.25467 33.5094 -1.32995 -1.50073 35.5792 -2.17112 -1.23598 
35.9967 -2.14922 -1.43232 34.9787 -2.08635 -1.1485 34.3892 -2.11248 -1.14579 
33.7568 -2.14865 -1.2472 33.4298 -1.9104 -1.49201 36.0472 -2.59342 -1.30436 
36.3033 -2.44888 -1.51826 36.4693 -2.90952 -1.4852 35.6359 -2.85223 -1.24047 
35.0103 -2.70041 -1.15865 34.4903 -2.6165 -1.14819 33.9421 -2.75847 -1.24433 
33.2614 -2.35839 -1.44837 33.363 -2.67686 -1.35741 33.0184 -2.60951 -1.54416 
36.168 -3.09873 -1.351 36.427 -3.35539 -1.5381 35.8777 -3.19963 -1.42973 
35.5303 -3.15609 -1.43116 35.2524 -3.3975 -1.5434 35.11 -3.14855 -1.30513 
34.4912 -3.15734 -1.28197 34.0307 -3.23621 -1.43584 33.5548 -3.06447 -1.48242 
33.1059 -2.89724 -1.54801 36.1331 -3.43588 -1.53914 34.7858 -3.54042 -1.51065 
34.326 -3.51923 -1.53423 28.3884 -8.72366 -1.39453 28.4177 -8.60378 -1.60076 
28.4985 -8.79884 -1.54897 28.1104 -8.71204 -1.65186 31.2342 -9.43137 -1.3593 
31.3893 -9.17521 -1.49795 31.5372 -9.46296 -1.54308 31.2528 -9.2906 -1.5887 
28.9166 -9.4712 -1.34209 28.8755 -9.20475 -1.55582 29.2373 -9.36284 -1.54044 
28.3429 -8.94571 -1.52975 28.7067 -9.47375 -1.52856 31.4013 -9.97888 -1.2715 
31.6958 -9.82493 -1.57305 30.9586 -9.57338 -1.58369 30.7933 -9.94706 -1.26596 
30.4898 -9.77292 -1.60583 29.0222 -9.76423 -1.33553 29.1969 -9.85039 -1.45509 
28.8016 -9.77774 -1.43503 34.3574 -10.5445 -1.30739 34.342 -10.2388 -1.4837 
34.6878 -10.4841 -1.49382 33.7428 -10.536 -1.19479 33.9575 -10.1773 -1.49136 
33.0227 -10.466 -1.17913 33.339 -10.1797 -1.4968 32.5271 -10.4381 -1.09445 
32.5872 -10.2129 -1.50902 31.9182 -10.1273 -1.48962 31.2437 -10.4752 -1.02198 
30.9155 -10.3462 -1.07895 30.2363 -10.1111 -1.31898 29.5729 -10.6053 -1.32755 
29.7363 -10.2464 -1.36603 28.9955 -10.0199 -1.60263 29.4308 -10.4251 -1.57178 
34.9311 -11.0474 -1.29938 35.0995 -10.841 -1.5284 35.3579 -11.2206 -1.46552 
34.3867 -10.9961 -1.08921 29.8477 -11.0025 -1.26042 29.6252 -10.7902 -1.69948 
36.7359 -11.8812 -1.3322 36.8867 -11.5468 -1.54002 37.1474 -11.7896 -1.44759 
36.5365 -11.6 -1.54897 35.4813 -11.7366 -1.2957 35.6946 -11.4803 -1.5444 
35.9552 -11.7951 -1.4562 34.9065 -11.5475 -1.12464 31.1001 -11.7467 -1.29337 
30.8913 -11.5142 -1.65028 30.3489 -11.3251 -1.52919 39.1414 -12.4765 -1.28616 
39.3951 -12.1063 -1.627 39.5932 -12.3477 -1.40582 38.9083 -12.1766 -1.58357 
37.267 -12.3245 -1.26673 37.4955 -12.0287 -1.52094 37.7552 -12.3899 -1.44436 
36.7725 -12.2606 -1.17676 36.2946 -11.8384 -1.4467 36.1892 -12.2056 -1.17114 
35.4824 -12.4067 -1.12411 35.0203 -12.1943 -1.16524 33.1213 -12.448 -1.2137 
33.4809 -12.3051 -1.53735 33.1249 -12.0862 -1.52425 32.6352 -12.0175 -1.46219 
32.5364 -12.3036 -1.10847 32.0657 -11.9104 -1.53767 31.5646 -11.9015 -1.43993 
39.5934 -12.845 -1.26299 39.8675 -12.4951 -1.54792 39.9645 -12.861 -1.6314 
39.078 -12.9506 -1.08899 38.6553 -12.5006 -1.41989 38.5296 -12.8487 -1.2456 
37.8736 -12.788 -1.25594 38.1983 -12.5555 -1.4617 37.4 -13.0558 -1.22086 
36.7162 -12.7881 -1.08994 35.0016 -12.7418 -1.29343 34.5726 -12.6544 -1.34073 
34.7426 -12.8245 -1.56722 34.2093 -12.943 -1.17931 33.9902 -12.5734 -1.5284 
33.7064 -12.7713 -1.23569 40.4037 -13.5001 -1.37181 40.4027 -13.396 -1.59158 
40.5058 -13.5412 -1.60931 39.7971 -13.1708 -1.45772 40.252 -13.4859 -1.42127 
39.5895 -13.5394 -1.45519 38.6456 -13.2802 -1.33887 38.7551 -13.6389 -1.61876 
38.4173 -13.7038 -1.62438 37.9992 -13.5178 -1.26329 37.5999 -13.4152 -1.47329 
37.3002 -13.2951 -1.60499 37.0902 -13.5648 -1.51554 36.9474 -13.4964 -1.22958 
36.3902 -13.5429 -1.12956 34.9629 -13.4568 -1.01663 35.1712 -13.4386 -1.39103 
35.0111 -13.0781 -1.43037 40.2474 -13.6173 -1.59691 39.1091 -13.9243 -1.13379 
39.3772 -14.1736 -1.54007 38.7519 -13.8026 -1.3724 38.5997 -14.0319 -1.31227 
38.1051 -14.1613 -1.27209 37.4682 -13.7696 -1.56986 37.4131 -14.0149 -1.29277 
36.8354 -14.0955 -1.31585 36.5274 -14.0822 -1.45668 36.0874 -13.8424 -1.38767 
35.568 -13.743 -1.42581 39.0449 -14.2988 -1.50951 38.584 -14.2875 -1.51324 
37.996 -14.3013 -1.4747 37.3658 -14.3254 -1.49594 36.9028 -14.3026 -1.55761 
33.6347 -14.759 -1.251 33.6845 -14.5636 -1.49637 33.9341 -14.8404 -1.4887 
33.0613 -14.7495 -1.20221 33.2284 -14.5232 -1.45455 32.4398 -14.7372 -1.20436 
32.5614 -14.4884 -1.55322 31.8398 -14.7465 -1.19958 31.9709 -14.4201 -1.53115 
31.2872 -14.837 -1.24627 31.419 -14.4571 -1.53266 31.0275 -14.6135 -1.53401 
33.8616 -15.1437 -1.3039 34.1005 -15.2555 -1.617 33.4088 -15.191 -1.20871 
32.7853 -15.2042 -1.19486 32.1612 -15.2 -1.19502 31.5446 -15.2208 -1.19539 
30.8873 -14.9449 -1.38312 30.9922 -15.2725 -1.2905 30.6442 -15.2097 -1.47269 
33.7293 -15.4972 -1.58719 33.1328 -15.5091 -1.43003 32.5188 -15.6073 -1.60989 
31.8403 -15.5176 -1.52858 31.2104 -15.5368 -1.51778 30.6527 -15.5048 -1.59627 
34.9481 1.9233 -1.91195 35.0347 2.29558 -2.06503 35.3367 2.13285 -2.05941 
34.7638 2.2236 -2.10721 35.4373 1.54543 -1.87526 35.6864 1.89227 -2.14354 
35.8203 1.46461 -2.14387 34.9112 1.41531 -1.78291 34.4725 1.93761 -2.0271 
34.3278 1.51214 -1.844 33.617 1.43506 -1.85421 33.956 1.838 -2.06817 
33.046 1.35029 -1.87759 33.2263 1.82217 -2.1997 32.8093 1.55328 -2.13809 
35.6068 0.839136 -1.84432 35.9645 0.944586 -2.15766 35.1129 1.02329 -1.76606 
34.4752 0.93761 -1.70183 33.7503 0.896796 -1.69482 33.1703 0.890607 -1.75263 
32.656 1.24023 -2.00291 32.6702 0.859277 -1.8711 32.3907 1.02252 -2.23384 
35.9985 0.303113 -1.88351 36.2077 0.56618 -2.25861 36.3688 0.137531 -2.05738 
35.4968 0.208191 -1.78221 34.9676 0.482208 -1.71105 33.182 0.240308 -1.69298 
32.6661 0.30011 -1.83344 32.273 0.446594 -2.16209 36.2051 -0.385757 -1.84247 
36.6079 -0.252676 -2.09867 35.6905 -0.212796 -1.78431 35.128 -0.184891 -1.68542 
33.1053 -0.458661 -1.6964 32.5555 -0.346912 -1.84209 32.2269 -0.128467 -2.05469 
36.6111 -0.877386 -1.89154 36.8582 -0.533716 -2.16657 36.9983 -0.957092 -2.15002 
36.186 -0.905978 -1.78282 35.6481 -0.780579 -1.70115 33.125 -1.05701 -1.71846 
32.6031 -0.913229 -1.79523 31.9533 -0.537488 -2.15961 32.0732 -0.920499 -1.90817 
31.6923 -0.897015 -2.15391 36.7985 -1.58256 -1.8527 37.2034 -1.46589 -2.11849 
36.1652 -1.34112 -1.71882 33.1063 -1.65183 -1.73203 32.6041 -1.48863 -1.80549 
31.9756 -1.50745 -1.85455 31.6397 -1.29294 -2.05867 37.2088 -2.08717 -1.88227 
37.444 -1.75201 -2.17125 37.5985 -2.16163 -2.1414 36.8031 -2.10815 -1.77761 
36.3532 -2.0074 -1.67202 33.0176 -2.22167 -1.67788 32.5829 -2.09269 -1.79782 
31.9818 -2.08495 -1.80059 31.4893 -1.74107 -2.02132 31.47 -2.13295 -1.9087 
31.1895 -2.05351 -2.12554 37.4118 -2.77899 -1.82624 37.8176 -2.66188 -2.08971 
36.7854 -2.55088 -1.70191 32.6523 -2.78036 -1.73466 31.9655 -2.69774 -1.77751 
31.3221 -2.74149 -1.83936 31.0309 -2.50935 -2.08093 37.8346 -3.243 -1.8912 
38.0737 -2.95096 -2.14919 38.201 -3.38088 -2.24611 37.3302 -3.4131 -1.75949 
[...]
CELL_DATA 29996
SCALARS scalars float
LOOKUP_TABLE default
2031 2031 2031 2031 2031 2031 2031 2031 2031 
2031 2031 2031 2031 2031 2031 2031 2031 2031 
2031 2031 2031 2031 2031 2031 2031 2031 2031 
2031 2031 2031 2031 2031 2031 2031 2031 2031 
2031 2031 2031 2031 2031 2031 2031 2031 2031 
2031 2031 2031 2031 2031 2031 2031 2031 2031 
2031 2031 2031 2031 2031 2031 2031 2031 2031 
2031 2031 2031 2031 2031 2031 2031 2031 2031 
2031 2031 2031 2031 2031 2031 2031 2031 2031 
2031 2031 2031 2031 2031 2031 2031 2031 2031 
2031 2031 2031 2031 2031 2031 2031 2031 2031 
2031 2031 2031 2031 2031 2031 2031 2031 2031 
2031 2031 2031 2031 2031 2031 2031 2031 2031 
2031 2031 2031 2031 2031 2031 2031 2031 2031 
2031 2031 2031 2031 2031 2031 2031 2031 2031 
2031 2031 2031 2031 2031 2031 2031 2031 2031 
2031 2031 2031 2031 2031 2031 2031 2031 2031 
2031 2031 2031 2031 2031 2031 2031 2031 2031 
2031 2031 2031 2031 2031 2031 2031 2031 2031 
2031 2031 2031 2031 2031 2031 2031 2031 2031 
2031 2031 2031 2031 2031 2031 2031 2031 2031 
2031 2031 2031 2031 2031 2031 2031 2031 2031 
2031 2031 2031 2031 2031 2031 2031 2031 2031 
2031 2031 2031 2031 2031 2031 2031 2031 2031 
2031 2031 2031 2031 2031 2031 2031 2031 2031 
2031 2031 2031 2031 2031 2031 2031 2031 2031 
2031 2031 2031 2031 2031 2031 2031 2031 2031 
2031 2031 2031 2031 2031 2031 2031 2031 2031 
2031 2031 2031 2031 2031 2031 2031 2031 2031 
2031 2031 2031 2031 2031 2031 2031 2031 2031 
2031 2031 2031 2031 2031 2031 2031 2031 2031 
2031 2031 2031 2031 2031 2031 2031 2031 2031 
2031 2031 2031 2031 2031 2031 2031 2031 2031 
2031 2031 2031 2031 2031 2031 2031 2031 2031 
2031 2031 2031 2031 2031 2031 2031 2031 2031 
2031 2031 2031 2031 2031 2031 2031 2031 2031 
2031 2031 2031 2031 2031 2031 2031 2031 2031 
2031 2031 2031 2031 2031 2031 2031 2031 2031 
2031 2031 2031 2031 2031 2031 2031 2031 2031 
2031 2031 2031 2031 2031 2031 2031 2031 2031 
2031 2031 2031 2031 2031 2031 2031 2031 2031 
2031 2031 2031 2031 2031 2031 2031 2031 2031 
2031 2031 2031 2031 2031 2031 2031 2031 2031 
2031 2031 2031 2031 2031 2031 2031 2031 2031 
2031 2031 2031 2031 2031 2031 2031 2031 2031 
2031 2031 2031 2031 2031 2031 2031 2031 2031 
2031 2031 2031 2031 2031 2031 2031 2031 2031 
2031 2031 2031 2031 2031 2031 2031 2031 2031 
2031 2031 2031 2031 2031 2031 2031 2031 2031 
2031 2031 2031 2031 2031 2031 2031 2031 2031 
2031 2031 2031 2031 2031 2031 2031 2031 2031 
2031 2031 2031 2031 2031 2031 2031 2031 2031 
2031 2031 2031 2031 2031 2031 2031 2031 2031 
2031 2031 2031 2031 2031 2031 2031 2031 2031 
2031 2031 2031 2031 2031 2031 2031 2031 2031 
2031 2031 2031 2031 2031 2031 2031 2031 2031 
2031 2031 2031 2031 2031 2031 2031 2031 2031 
2031 2031 2031 2031 2031 2031 2031 2031 2031 
2031 2031 2031 2031 2031 2031 2031 2031 2031 
2031 2031 2031 2031 2031 2031 2031 2031 2031 
2031 2031 2031 2031 2031 2031 2031 2031 2031 
2031 2031 2031 2031 2031 2031 2031 2031 2031 
2031 2031 2031 2031 2031 2031 2031 2031 2031 
2031 2031 2031 2031 2031 2031 2031 2031 2031 
2031 2031 2031 2031 2031 2031 2031 2031 2031 
2031 2031 2031 2031 2031 2031 2031 2031 2031 
2031 2031 2031 2031 2031 2031 2031 2031 2031 
2031 2031 2031 2031 2031 2031 2031 2031 2031 
2031 2031 2031 2031 2031 2031 2031 2031 2031 
2031 2031 2031 2031 2031 2031 2031 2031 2031 
2031 2031 2031 2031 2031 2031 2031 2031 2031 
2031 2031 2031 2031 2031 2031 2031 2031 2031 
2031 2031 2031 2031 2031 2031 2031 2031 2031 
2031 2031 2031 2031 2031 2031 2031 2031 2031 
2031 2031 2031 2031 2031 2031 2031 2031 2031 
2031 2031 2031 2031 2031 2031 2031 2031 2031 
2031 2031 2031 2031 2031 2031 2031 2031 2031 
2031 2031 2031 2031 2031 2031 2031 2031 2031 
2031 2031 2031 2031 2031 2031 2031 2031 2031 
2031 2031 2031 2031 2031 2031 2031 2031 2031 
2031 2031 2031 2031 2031 2031 2031 2031 2031 
2031 2031 2031 2031 2031 2031 2031 2031 2031 
2031 2031 2031 2031 2031 2031 2031 2031 2031 
2031 2031 2031 2031 2031 2031 2031 2031 2031 
2031 2031 2031 2031 2031 2031 2031 2031 2031 
2031 2031 2031 2031 2031 2031 2031 2031 2031 
2031 2031 2031 2031 2031 2031 2031 2031 2031 
2031 2031 2031 2031 2031 2031 2031 2031 2031 
2031 2031 2031 2031 2031 2031 2031 2031 2031 
2031 2031 2031 2031 2031 2031 2031 2031 2031 
2031 2031 2031 2031 2031 2031 2031 2031 2031 
2031 2031 2031 2031 2031 2031 2031 2031 2031 
2031 2031 2031 2031 2031 2031 2031 2031 2031 
2031 2031 2031 2031 2031 2031 2031 2031 2031 
2031 2031 2031 2031 2031 2031 2031 2031 2031 
2031 2031 2031 2031 2031 2031 2031 2031 2031 
2031 2031 2031 2031 2031 2031 2031 2031 2031 
2031 2031 2031 2031 2031 2031 2031 2031 2031 
2031 2031 2031 2031 2031 2031 2031 2031 2031 
2031 2031 2031 2031 2031 2031 2031 2031 2031 
2031 2031 2031 2031 2031 2031 2031 2031 2031 
2031 2031 2031 2031 2031 2031 2031 2031 2031 
2031 2031 2031 2031 2031 2031 2031 2031 2031 
2031 2031 2031 2031 2031 2031 2031 2031 2031 
2031 2031 2031 2031 2031 2031 2031 2031 2031 
2031 2031 2031 2031 2031 2031 2031 2031 2031 
2031 2031 2031 2031 2031 2031 2031 2031 2031 
2031 2031 2031 2031 2031 2031 2031 2031 2031 
2031 2031 2031 2031 2031 2031 2031 2031 2031 
2031 2031 2031 2031 2031 2031 2031 2031 2031 
2031 2031 2031 2031 2031 2031 2031 2031 2031 
2031 2031 2031 2031 2031 2031 2031 2031 2031 
2031 2031 2031 2031 2031 2031 2031 2031 2031 
2031 2031 2031 2031 2031 2031 2031 2031 2031 
2031 2031 2031 2031 2031 2031 2031 2031 2031 
2031 2031 2031 2031 2031 2031 2031 2031 2031 
2031 2031 2031 2031 2031 2031 2031 2031 2031 
2031 2031 2031 2031 2031 2031 2031 2031 2031 
2031 2031 2031 2031 2031 2031 2031 2031 2031 
2031 2031 2031 2031 2031 2031 2031 2031 2031 
2031 2031 2031 2031 2031 2031 2031 2031 2031 
2031 2031 2031 2031 2031 2031 2031 2031 2031 
2031 2031 2031 2031 2031 2031 2031 2031 2031 
2031 2031 2031 2031 2031 2031 2031 2031 2031 
2031 2031 2031 2031 2031 2031 2031 2031 2031 
2031 2031 2031 2031 2031 2031 2031 2031 2031 
2031 2031 2031 2031 2031 2031 2031 2031 2031 
2031 2031 2031 2031 2031 2031 2031 2031 2031 
2031 2031 2031 2031 2031 2031 2031 2031 2031 
2031 2031 2031 2031 2031 2031 2031 2031 2031 
2031 2031 2031 2031 2031 2031 2031 2031 2031 
2031 2031 2031 2031 2031 2031 2031 2031 2031 
2031 2031 2031 2031 2031 2031 2031 2031 2031 
2031 2031 2031 2031 2031 2031 2031 2031 2031 
2031 2031 2031 2031 2031 2031 2031 2031 2031 
2031 2031 2031 2031 2031 2031 2031 2031 2031 
2031 2031 2031 2031 2031 2031 2031 2031 2031 
2031 2031 2031 2031 2031 2031 2031 2031 2031 
2031 2031 2031 2031 2031 2031 2031 2031 2031 
2031 2031 2031 2031 2031 2031 2031 2031 2031 
2031 2031 2031 2031 2031 2031 2031 2031 2031 
2031 2031 2031 2031 2031 2031 2031 2031 2031 
2031 2031 2031 2031 2031 2031 2031 2031 2031 
2031 2031 2031 2031 2031 2031 2031 2031 2031 
2031 2031 2031 2031 2031 2031 2031 2031 2031 
2031 2031 2031 2031 2031 2031 2031 2031 2031 
2031 2031 2031 2031 2031 2031 2031 2031 2031 
2031 2031 2031 2031 2031 2031 2031 2031 2031 
2031 2031 2031 2031 2031 2031 2031 2031 2031 
2031 2031 2031 2031 2031 2031 2031 2031 2031 
2031 2031 2031 2031 2031 2031 2031 2031 2031 
2031 2031 2031 2031 2031 2031 2031 2031 2031 
2031 2031 2031 2031 2031 2031 2031 2031 2031 
2031 2031 2031 2031 2031 2031 2031 2031 2031 
2031 2031 2031 2031 2031 2031 2031 2031 2031 
2031 2031 2031 2031 2031 2031 2031 2031 2031 
2031 2031 2031 2031 2031 2031 2031 2031 2031 
2031 2031 2031 2031 2031 2031 2031 2031 2031 
2031 2031 2031 2031 2031 2031 2031 2031 2031 
2031 2031 2031 2031 2031 2031 2031 2031 2031 
2031 2031 2031 2031 2031 2031 2031 2031 2031 
2031 2031 2031 2031 2031 2031 2031 2031 2031 
2031 2031 2031 2031 2031 2031 2031 2031 2031 
2031 2031 2031 2031 2031 2031 2031 2031 2031 
2031 2031 2031 2031 2031 2031 2031 2031 2031 
2031 2031 2031 2031 2031 2031 2031 2031 2031 
2031 2031 2031 2031 2031 2031 2031 2031 2031 
2031 2031 2031 2031 2031 2031 2031 2031 2031 
2031 2031 2031 2031 2031 2031 2031 2031 2031 
2031 2031 2031 2031 2031 2031 2031 2031 2031 
2031 2031 2031 2031 2031 2031 2031 2031 2031 
2031 2031 2031 2031 2031 2031 2031 2031 2031 
2031 2031 2031 2031 2031 2031 2031 2031 2031 
2031 2031 2031 2031 2031 2031 2031 2031 2031 
2031 2031 2031 2031 2031 2031 2031 2031 2031 
2031 2031 2031 2031 2031 2031 2031 2031 2031 
2031 2031 2031 2031 2031 2031 2031 2031 2031 
2031 2031 2031 2031 2031 2031 2031 2031 2031 
2031 2031 2031 2031 2031 2031 2031 2031 2031 
2031 2031 2031 2031 2031 2031 2031 2031 2031 
2031 2031 2031 2031 2031 2031 2031 2031 2031 
2031 2031 2031 2031 2031 2031 2031 2031 2031 
2031 2031 2031 2031 2031 2031 2031 2031 2031 
2031 2031 2031 2031 2031 2031 2031 2031 2031 
2031 2031 2031 2031 2031 2031 2031 2031 2031 
2031 2031 2031 2031 2031 2031 2031 2031 2031 
2031 2031 2031 2031 2031 2031 2031 2031 2031 
2031 2031 2031 2031 2031 2031 2031 2031 2031 
2031 2031 2031 2031 2031 2031 2031 2031 2031 
2031 2031 2031 2031 2031 2031 2031 2031 2031 
2031 2031 2031 2031 2031 2031 2031 2031 2031 
2031 2031 2031 2031 2031 2031 2031 2031 2031 
2031 2031 2031 2031 2031 2031 2031 2031 2031 
2031 2031 2031 2031 2031 2031 2031 2031 2031 
2031 2031 2031 2031 2031 2031 2031 2031 2031 
2031 2031 2031 2031 2031 2031 2031 2031 2031 
2031 2031 2031 2031 2031 2031 2031 2031 2031 
2031 2031 2031 2031 2031 2031 2031 2031 2031 
2031 2031 2031 2031 2031 2031 2031 2031 2031 
2031 2031 2031 2031 2031 2031 2031 2031 2031 
2031 2031 2031 2031 2031 2031 2031 2031 2031 
2031 2031 2031 2031 2031 2031 2031 2031 2031 
2031 2031 2031 2031 2031 2031 2031 2031 2031 
2031 2031 2031 2031 2031 2031 2031 2031 2031 
2031 2031 2031 2031 2031 2031 2031 2031 2031 
2031 2031 2031 2031 2031 2031 2031 2031 2031 
2031 2031 2031 2031 2031 2031 2031 2031 2031 
2031 2031 2031 2031 2031 2031 2031 2031 2031 
2031 2031 2031 2031 2031 2031 2031 2031 2031 
2031 2031 2031 2031 2031 2031 2031 2031 2031 
2031 2031 2031 2031 2031 2031 2031 2031 2031 
2031 2031 2031 2031 2031 2031 2031 2031 2031 
2031 2031 2031 2031 2031 2031 2031 2031 2031 
2031 2031 2031 2031 2031 2031 2031 2031 2031 
2031 2031 2031 2031 2031 2031 2031 2031 2031 
2031 2031 2031 2031 2031 2031 2031 2031 2031 
2031 2031 2031 2031 2031 2031 2031 2031 2031 
2031 2031 2031 2031 2031 2031 2031 2031 2031 
2031 2031 2031 2031 2031 2031 2031 2031 2031 
2031 2031 2031 2031 2031 2031 2031 2031 2031 
2031 2031 2031 2031 2031 2031 2031 2031 2031 
2031 2031 2031 2031 2031 2031 2031 2031 2031 
2031 2031 2031 2031 2031 2031 2031 2031 2031 
2031 2031 2031 2031 2031 2031 2031 2031 2031 
2031 2031 2031 2031 2031 2031 2031 2031 2031 
2031 2031 2031 2031 2031 2031 2031 2031 2031 
2031 2031 2031 2031 2031 2031 2031 2031 2031 
2031 2031 2031 2031 2031 2031 2031 2031 2031 
2031 2031 2031 2031 2031 2031 2031 2031 2031 
2031 2031 2031 2031 2031 2031 2031 2031 2031 
2031 2031 2031 2031 2031 2031 2031 2031 2031 
2031 2031 2031 2031 2031 2031 2031 2031 2031 
2031 2031 2031 2031 2031 2031 2031 2031 2031 
2031 2031 2031 2031 2031 2031 2031 2031 2031 
2031 2031 2031 2031 2031 2031 2031 2031 2031 
2031 2031 2031 2031 2031 2031 2031 2031 2031 
2031 2031 2031 2031 2031 2031 2031 2031 2031 
2031 2031 2031 2031 2031 2031 2031 2031 2031 
2031 2031 2031 2031 2031 2031 2031 2031 2031 
2031 2031 2031 2031 2031 2031 2031 2031 2031 
2031 2031 2031 2031 2031 2031 2031 2031 2031 
2031 2031 2031 2031 2031 2031 2031 2031 2031 
2031 2031 2031 2031 2031 2031 2031 2031 2031 
2031 2031 2031 2031 2031 2031 2031 2031 2031 
2031 2031 2031 2031 2031 2031 2031 2031 2031 
2031 2031 2031 2031 2031 2031 2031 2031 2031 
2031 2031 2031 2031 2031 2031 2031 2031 2031 
2031 2031 2031 2031 2031 2031 2031 2031 2031 
2031 2031 2031 2031 2031 2031 2031 2031 2031 
2031 2031 2031 2031 2031 2031 2031 2031 2031 
2031 2031 2031 2031 2031 2031 2031 2031 2031 
2031 2031 2031 2031 2031 2031 2031 2031 2031 
2031 2031 2031 2031 2031 2031 2031 2031 2031 
2031 2031 2031 2031 2031 2031 2031 2031 2031 
2031 2031 2031 2031 2031 2031 2031 2031 2031 
2031 2031 2031 2031 2031 2031 2031 2031 2031 
2031 2031 2031 2031 2031 2031 2031 2031 2031 
2031 2031 2031 2031 2031 2031 2031 2031 2031 
2031 2031 2031 2031 2031 2031 2031 2031 2031 
2031 2031 2031 2031 2031 2031 2031 2031 2031 
2031 2031 2031 2031 2031 2031 2031 2031 2031 
2031 2031 2031 2031 2031 2031 2031 2031 2031 
2031 2031 2031 2031 2031 2031 2031 2031 2031 
2031 2031 2031 2031 2031 2031 2031 2031 2031 
2031 2031 2031 2031 2031 2031 2031 2031 2031 
2031 2031 2031 2031 2031 2031 2031 2031 2031 
2031 2031 2031 2031 2031 2031 2031 2031 2031 
2031 2031 2031 2031 2031 2031 2031 2031 2031 
2031 2031 2031 2031 2031 2031 2031 2031 2031 
2031 2031 2031 2031 2031 2031 2031 2031 2031 
2031 2031 2031 2031 2031 2031 2031 2031 2031 
2031 2031 2031 2031 2031 2031 2031 2031 2031 
2031 2031 2031 2031 2031 2031 2031 2031 2031 
2031 2031 2031 2031 2031 2031 2031 2031 2031 
2031 2031 2031 2031 2031 2031 2031 2031 2031 
2031 2031 2031 2031 2031 2031 2031 2031 2031 
2031 2031 2031 2031 2031 2031 2031 2031 2031 
2031 2031 2031 2031 2031 2031 2031 2031 2031 
2031 2031 2031 2031 2031 2031 2031 2031 2031 
2031 2031 2031 2031 2031 2031 2031 2031 2031 
2031 2031 2031 2031 2031 2031 2031 2031 2031 
2031 2031 2031 2031 2031 2031 2031 2031 2031 
2031 2031 2031 2031 2031 2031 2031 2031 2031 
2031 2031 2031 2031 2031 2031 2031 2031 2031 
2031 2031 2031 2031 2031 2031 2031 2031 2031 
2031 2031 2031 2031 2031 2031 2031 2031 2031 
2031 2031 2031 2031 2031 2031 2031 2031 2031 
2031 2031 2031 2031 2031 2031 2031 2031 2031 
2031 2031 2031 2031 2031 2031 2031 2031 2031 
2031 2031 2031 2031 2031 2031 2031 2031 2031 
2031 2031 2031 2031 2031 2031 2031 2031 2031 
2031 2031 2031 2031 2031 2031 2031 2031 2031 
2031 2031 2031 2031 2031 2031 2031 2031 2031 
2031 2031 2031 2031 2031 2031 2031 2031 2031 
2031 2031 2031 2031 2031 2031 2031 2031 2031 
2031 2031 2031 2031 2031 2031 2031 2031 2031 
2031 2031 2031 2031 2031 2031 2031 2031 2031 
2031 2031 2031 2031 2031 2031 2031 2031 2031 
2031 2031 2031 2031 2031 2031 2031 2031 2031 
2031 2031 2031 2031 2031 2031 2031 2031 2031 
2031 2031 2031 2031 2031 2031 2031 2031 2031 
2031 2031 2031 2031 2031 2031 2031 2031 2031 
2031 2031 2031 2031 2031 2031 2031 2031 2031 
2031 2031 2031 2031 2031 2031 2031 2031 2031 
2031 2031 2031 2031 2031 2031 2031 2031 2031 
2031 2031 2031 2031 2031 2031 2031 2031 2031 
2031 2031 2031 2031 2031 2031 2031 2031 2031 
2031 2031 2031 2031 2031 2031 2031 2031 2031 
2031 2031 2031 2031 2031 2031 2031 2031 2031 
2031 2031 2031 2031 2031 2031 2031 2031 2031 
2031 2031 2031 2031 2031 2031 2031 2031 2031 
2031 2031 2031 2031 2031 2031 2031 2031 2031 
2031 2031 2031 2031 2031 2031 2031 2031 2031 
2031 2031 2031 2031 2031 2031 2031 2031 2031 
2031 2031 2031 2031 2031 2031 2031 2031 2031 
2031 2031 2031 2031 2031 2031 2031 2031 2031 
2031 2031 2031 2031 2031 2031 2031 2031 2031 
2031 2031 2031 2031 2031 2031 2031 2031 2031 
2031 2031 2031 2031 2031 2031 2031 2031 2031 
2031 2031 2031 2031 2031 2031 2031 2031 2031 
2031 2031 2031 2031 2031 2031 2031 2031 2031 
2031 2031 2031 2031 2031 2031 2031 2031 2031 
2031 2031 2031 2031 2031 2031 2031 2031 2031 
2031 2031 2031 2031 2031 2031 2031 2031 2031 
2031 2031 2031 2031 2031 2031 2031 2031 2031 
2031 2031 2031 2031 2031 2031 2031 2031 2031 
2031 2031 2031 2031 2031 2031 2031 2031 2031 
2031 2031 2031 2031 2031 2031 2031 2031 2031 
2031 2031 2031 2031 2031 2031 2031 2031 2031 
2031 2031 2031 2031 2031 2031 2031 2031 2031 
2031 2031 2031 2031 2031 2031 2031 2031 2031 
2031 2031 2031 2031 2031 2031 2031 2031 2031 
2031 2031 2031 2031 2031 2031 2031 2031 2031 
2031 2031 2031 2031 2031 2031 2031 2031 2031 
2031 2031 2031 2031 2031 2031 2031 2031 2031 
2031 2031 2031 2031 2031 2031 2031 2031 2031 
2031 2031 2031 2031 2031 2031 2031 2031 2031 
2031 2031 2031 2031 2031 2031 2031 2031 2031 
2031 2031 2031 2031 2031 2031 2031 2031 2031 
2031 2031 2031 2031 2031 2031 2031 2031 2031 
2031 2031 2031 2031 2031 2031 2031 2031 2031 
2031 2031 2031 2031 2031 2031 2031 2031 2031 
2031 2031 2031 2031 2031 2031 2031 2031 2031 
2031 2031 2031 2031 2031 2031 2031 2031 2031 
2031 2031 2031 2031 2031 2031 2031 2031 2031 
2031 2031 2031 2031 2031 2031 2031 2031 2031 
2031 2031 2031 2031 2031 2031 2031 2031 2031 
2031 2031 2031 2031 2031 2031 2031 2031 2031 
2031 2031 2031 2031 2031 2031 2031 2031 2031 
2031 2031 2031 2031 2031 2031 2031 2031 2031 
2031 2031 2031 2031 2031 2031 2031 2031 2031 
2031 2031 2031 2031 2031 2031 2031 2031 2031 
2031 2031 2031 2031 2031 2031 2031 2031 2031 
2031 2031 2031 2031 2031 2031 2031 2031 2031 
2031 2031 2031 2031 2031 2031 2031 2031 2031 
2031 2031 2031 2031 2031 2031 2031 2031 2031 
2031 2031 2031 2031 2031 2031 2031 2031 2031 
2031 2031 2031 2031 2031 2031 2031 2031 2031 
2031 2031 2031 2031 2031 2031 2031 2031 2031 
2031 2031 2031 2031 2031 2031 2031 2031 2031 
2031 2031 2031 2031 2031 2031 2031 2031 2031 
2031 2031 2031 2031 2031 2031 2031 2031 2031 
2031 2031 2031 2031 2031 2031 2031 2031 2031 
2031 2031 2031 2031 2031 2031 2031 2031 2031 
2031 2031 2031 2031 2031 2031 2031 2031 2031 
2031 2031 2031 2031 2031 2031 2031 2031 2031 
2031 2031 2031 2031 2031 2031 2031 2031 2031 
2031 2031 2031 2031 2031 2031 2031 2031 2031 
2031 2031 2031 2031 2031 2031 2031 2031 2031 
2031 2031 2031 2031 2031 2031 2031 2031 2031 
2031 2031 2031 2031 2031 2031 2031 2031 2031 
2031 2031 2031 2031 2031 2031 2031 2031 2031 
2031 2031 2031 2031 2031 2031 2031 2031 2031 
2031 2031 2031 2031 2031 2031 2031 2031 2031 
2031 2031 2031 2031 2031 2031 2031 2031 2031 
2031 2031 2031 2031 2031 2031 2031 2031 2031 
2031 2031 2031 2031 2031 2031 2031 2031 2031 
2031 2031 2031 2031 2031 2031 2031 2031 2031 
2031 2031 2031 2031 2031 2031 2031 2031 2031 
2031 2031 2031 2031 2031 2031 2031 2031 2031 
2031 2031 2031 2031 2031 2031 2031 2031 2031 
2031 2031 2031 2031 2031 2031 2031 2031 2031 
2031 2031 2031 2031 2031 2031 2031 2031 2031 
2031 2031 2031 2031 2031 2031 2031 2031 2031 
2031 2031 2031 2031 2031 2031 2031 2031 2031 
2031 2031 2031 2031 2031 2031 2031 2031 2031 
2031 2031 2031 2031 2031 2031 2031 2031 2031 
2031 2031 2031 2031 2031 2031 2031 2031 2031 
2031 2031 2031 2031 2031 2031 2031 2031 2031 
2031 2031 2031 2031 2031 2031 2031 2031 2031 
2031 2031 2031 2031 2031 2031 2031 2031 2031 
2031 2031 2031 2031 2031 2031 2031 2031 2031 
2031 2031 2031 2031 2031 2031 2031 2031 2031 
2031 2031 2031 2031 2031 2031 2031 2031 2031 
2031 2031 2031 2031 2031 2031 2031 2031 2031 
2031 2031 2031 2031 2031 2031 2031 2031 2031 
2031 2031 2031 2031 2031 2031 2031 2031 2031 
2031 2031 2031 2031 2031 2031 2031 2031 2031 
2031 2031 2031 2031 2031 2031 2031 2031 2031 
2031 2031 2031 2031 2031 2031 2031 2031 2031 
2031 2031 2031 2031 2031 2031 2031 2031 2031 
2031 2031 2031 2031 2031 2031 2031 2031 2031 
2031 2031 2031 2031 2031 2031 2031 2031 2031 
2031 2031 2031 2031 2031 2031 2031 2031 2031 
2031 2031 2031 2031 2031 2031 2031 2031 2031 
2031 2031 2031 2031 2031 2031 2031 2031 2031 
2031 2031 2031 2031 2031 2031 2031 2031 2031 
2031 2031 2031 2031 2031 2031 2031 2031 2031 
2031 2031 2031 2031 2031 2031 2031 2031 2031 
2031 2031 2031 2031 2031 2031 2031 2031 2031 
2031 2031 2031 2031 2031 2031 2031 2031 2031 
2031 2031 2031 2031 2031 2031 2031 2031 2031 
2031 2031 2031 2031 2031 2031 2031 2031 2031 
2031 2031 2031 2031 2031 2031 2031 2031 2031 
2031 2031 2031 2031 2031 2031 2031 2031 2031 
2031 2031 2031 2031 2031 2031 2031 2031 2031 
2031 2031 2031 2031 2031 2031 2031 2031 2031 
2031 2031 2031 2031 2031 2031 2031 2031 2031 
2031 2031 2031 2031 2031 2031 2031 2031 2031 
2031 2031 2031 2031 2031 2031 2031 2031 2031 
2031 2031 2031 2031 2031 2031 2031 2031 2031 
2031 2031 2031 2031 2031 2031 2031 2031 2031 
2031 2031 2031 2031 2031 2031 2031 2031 2031 
2031 2031 2031 2031 2031 2031 2031 2031 2031 
2031 2031 2031 2031 2031 2031 2031 2031 2031 
2031 2031 2031 2031 2031 2031 2031 2031 2031 
2031 2031 2031 2031 2031 2031 2031 2031 2031 
2031 2031 2031 2031 2031 2031 2031 2031 2031 
2031 2031 2031 2031 2031 2031 2031 2031 2031 
2031 2031 2031 2031 2031 2031 2031 2031 2031 
2031 2031 2031 2031 2031 2031 2031 2031 2031 
2031 2031 2031 2031 2031 2031 2031 2031 2031 
2031 2031 2031 2031 2031 2031 2031 2031 2031 