# vtk DataFile Version 4.2
vtk output
ASCII
DATASET POLYDATA
POINTS 11196 float
13.2729 75.7722 -24.6945 13.4078 75.3444 -24.2835 13.6453 75.6108 -24.7476 
13.0371 75.3166 -24.4433 13.4249 75.8102 -25.2815 13.7112 75.2772 -25.427 
12.8614 75.4106 -25.1729 13.0604 75.3452 -25.8097 13.2404 74.7849 -24.2792 
13.7011 74.7258 -24.7294 12.8799 74.7744 -24.6249 13.7704 74.3632 -25.5478 
12.5553 74.3828 -24.9344 12.2046 74.9934 -25.6171 11.4632 74.7056 -25.68 
11.6132 74.529 -25.1446 10.9916 74.4358 -25.4039 13.2404 74.5252 -25.9738 
12.1314 74.5373 -25.9996 11.1446 74.3505 -25.8241 10.3077 74.5369 -26.2695 
10.4987 74.2368 -26.6455 10.3006 74.6424 -26.5235 10.0752 74.4816 -26.3873 
10.1662 74.454 -26.7757 9.05698 74.3842 -27.1132 9.55149 74.4624 -27.3828 
8.94284 74.8014 -27.6112 8.27419 74.8288 -27.7717 8.51535 74.5478 -27.2836 
8.05871 74.3231 -27.5468 9.42931 74.4695 -28.0652 8.90377 74.3988 -28.636 
8.53511 74.8163 -28.2952 7.82655 74.2955 -28.4319 8.42358 74.3404 -28.8151 
11.2438 73.8393 -22.7882 11.4061 73.3158 -22.2629 11.8666 73.4907 -22.6136 
10.8108 73.3969 -22.2893 11.9847 73.8658 -23.3948 12.3405 73.1642 -23.0522 
12.5854 73.4925 -23.7281 11.1436 74.0548 -23.6264 10.4907 73.665 -22.9072 
10.2433 73.8839 -23.5946 9.84559 73.2177 -23.3539 13.2557 74.1594 -24.6919 
12.1811 74.0226 -24.3714 12.8336 73.4914 -24.3897 11.229 74.1727 -24.5456 
10.2696 74.0638 -24.4849 9.16339 73.412 -23.9273 9.11942 73.9248 -24.4829 
8.22291 73.7717 -24.7252 8.41446 73.5634 -24.2153 7.94566 73.2932 -24.4854 
13.2985 73.4679 -24.8343 13.6823 73.4254 -25.3065 10.4182 74.1442 -25.7687 
9.45397 74.0295 -25.3512 8.59771 73.8179 -25.5666 7.88413 73.2088 -25.4252 
13.2657 73.4569 -25.9328 12.3348 73.4973 -26.0925 11.3168 73.6961 -26.0393 
10.8455 73.4085 -26.4151 9.43992 74.1132 -26.552 8.54812 73.5918 -26.3955 
8.24637 73.4665 -26.0387 10.1402 74.1679 -27.3738 10.668 73.2976 -27.4894 
8.46799 73.8677 -26.9862 7.81564 73.6517 -27.5251 10.123 73.7221 -28.1417 
9.49553 73.9404 -28.5382 9.9241 73.3413 -28.6551 7.2246 73.3917 -28.0578 
7.05075 73.9244 -28.8337 6.73863 73.3625 -28.488 9.15978 73.5832 -28.931 
8.29286 73.6802 -29.1821 7.42315 73.9595 -29.3392 7.90993 73.4089 -29.6448 
6.40225 73.6716 -28.9105 6.41399 73.8927 -29.4868 5.51534 73.7651 -29.6635 
5.64436 73.601 -29.1117 4.96255 73.3079 -29.3797 7.10377 73.3429 -29.9247 
5.96026 73.4349 -29.9845 5.21413 73.3231 -29.8549 10.3621 72.8501 -21.7997 
10.2429 72.5141 -21.1656 10.634 72.4824 -21.3199 9.94515 72.2625 -21.2876 
11.0649 72.7872 -21.8794 11.8776 72.4198 -22.6097 10.241 73.252 -22.5922 
9.88727 72.5438 -22.427 12.2961 72.5277 -23.1118 12.7344 72.6502 -23.7329 
9.66611 72.2346 -23.4234 13.2836 72.895 -24.4387 13.3612 72.2749 -24.1604 
13.8361 72.4765 -24.9203 9.14493 72.5106 -23.8981 8.36729 72.8061 -24.1282 
7.88988 72.4901 -24.6416 13.694 72.2723 -25.5724 7.64493 72.188 -25.3901 
13.1972 72.4386 -25.9032 12.4887 72.6075 -26.0735 11.5196 72.625 -26.2071 
10.9411 72.418 -26.8314 7.91819 73.1956 -26.5847 7.28045 72.475 -26.0528 
7.12896 72.8236 -26.5726 6.37979 72.7674 -26.73 6.4909 72.4925 -26.2356 
5.5427 72.6665 -26.6103 5.63616 72.3748 -26.0968 4.9681 72.2949 -26.2964 
0.358413 72.8308 -26.8517 0.0466226 72.3208 -26.0216 0.810757 72.6307 -26.4648 
-0.299363 72.3338 -26.6456 10.807 72.486 -27.5534 7.31045 73.0663 -27.2156 
6.71622 72.67 -27.4896 5.98142 72.2827 -27.1209 5.30125 72.2631 -26.788 
1.04524 72.8415 -27.3116 1.31493 72.6446 -26.9684 1.51522 72.44 -27.5429 
0.529432 72.8186 -27.5932 0.0235336 72.5908 -27.3316 10.4291 73.0543 -28.4211 
10.6948 72.2951 -28.4819 5.99843 73.0985 -28.5275 6.38093 72.5645 -28.043 
4.97013 72.9747 -28.6392 5.35601 72.3112 -28.1501 3.98329 72.8567 -28.612 
4.31655 72.3684 -28.1512 3.26379 72.8131 -28.7631 3.50635 72.5581 -28.2628 
2.83794 72.3539 -28.4241 0.933594 72.3567 -28.0706 0.265662 72.3522 -27.8568 
10.0344 72.6572 -29.0346 9.1387 72.7772 -29.2946 8.49459 72.9397 -29.5234 
8.96791 72.328 -29.6523 4.26061 72.485 -29.2148 4.81464 72.7235 -29.6497 
3.52012 72.3855 -29.5815 3.49282 72.7693 -29.3125 2.99851 72.4365 -29.2739 
8.13343 72.4428 -29.9286 7.14074 72.3723 -30.1164 6.27417 72.5186 -30.1177 
5.36591 72.5496 -29.9633 3.24611 72.5453 -29.7269 21.3632 71.7058 -15.4388 
21.2992 71.2762 -15.2063 21.6021 71.3477 -15.7219 20.9454 71.4811 -15.354 
21.1697 71.5494 -15.7242 10.3216 71.9924 -20.7731 10.2027 71.4024 -20.2322 
10.7794 71.3638 -20.4203 9.90543 71.4225 -20.5613 14.019 71.7473 -21.5975 
14.1825 71.3729 -21.3152 14.4331 71.5349 -21.4996 13.1272 71.794 -21.8074 
13.57 71.4369 -21.2483 12.8481 71.438 -21.3973 11.2277 71.9868 -21.4937 
11.3986 71.3876 -21.11 11.8113 71.5512 -21.7125 9.73217 71.4952 -21.4502 
14.2223 71.6338 -21.918 14.0355 71.3896 -22.421 13.6149 71.8969 -22.4878 
12.3849 71.5684 -21.8189 12.3801 71.8716 -22.3861 9.75898 71.5037 -22.5342 
14.0956 71.8392 -23.3896 14.3359 71.2168 -23.1544 14.6067 71.556 -23.8077 
13.1619 71.8464 -23.5184 12.2208 72.0026 -23.355 12.3019 71.5734 -23.2378 
12.5267 71.3826 -23.6219 12.0887 71.5412 -23.3897 9.66029 71.2219 -23.4217 
14.189 71.968 -24.2553 14.6712 71.2309 -24.4236 12.5527 71.6639 -23.7356 
9.29911 71.6642 -23.9036 8.51904 71.7195 -24.2292 7.94443 71.6898 -24.783 
14.3177 71.6219 -24.9143 13.8749 71.355 -25.4876 7.66472 71.3158 -25.2881 
4.8942 71.9279 -25.6066 5.29816 71.1819 -25.177 5.69558 71.6909 -25.5881 
4.297 71.7657 -25.4559 4.33295 71.4072 -25.1714 3.86303 71.3771 -25.4037 
0.440673 71.9948 -25.6645 0.309083 71.2756 -25.2434 0.730298 71.534 -25.6039 
-0.187783 71.3167 -25.4835 13.184 71.43 -25.9143 12.214 71.7049 -26.1433 
11.3656 71.8411 -26.4246 11.6354 71.1019 -26.4775 7.28874 71.696 -25.7849 
6.49245 71.7643 -25.8713 4.29127 71.6617 -25.9504 4.81148 71.7751 -26.5919 
1.29438 72.0702 -26.4801 1.41929 71.1655 -26.0279 1.94169 71.2699 -26.8424 
-0.760485 71.7687 -26.6607 -0.646354 71.7302 -26.0783 -1.03112 71.2708 -26.4346 
11.1282 71.5237 -26.8111 10.8776 71.6238 -27.5227 6.22485 72.0176 -27.6281 
5.7695 71.5632 -27.4703 5.29748 71.5927 -27.0577 2.2136 71.93 -27.6167 
2.31457 71.4532 -27.2312 2.72208 71.4027 -27.6729 -0.248067 71.8764 -27.3988 
-0.667651 71.0857 -27.024 10.8013 71.3641 -28.4014 5.61222 71.6517 -27.8399 
4.55243 71.4052 -27.9659 3.37933 71.6857 -28.043 2.42885 72.0038 -28.7275 
1.62181 71.9284 -28.4688 0.907742 71.5336 -28.4591 0.363782 71.7837 -28.071 
10.3946 71.9771 -29.4319 10.6846 71.3337 -29.3419 9.71598 72.0554 -29.6065 
4.86429 71.8291 -29.5692 4.51639 71.2402 -29.1923 3.40883 71.6 -29.1218 
3.24257 72.2495 -29.6623 2.30697 71.4628 -28.894 1.54784 71.3424 -28.8153 
10.089 71.3762 -29.9007 9.1056 71.5387 -29.9728 8.18126 71.3389 -30.0765 
7.33133 71.4853 -30.093 6.5017 71.6343 -30.1068 5.64617 71.4161 -29.8902 
21.1891 70.3131 -15.0726 21.7141 70.7387 -15.4848 20.2643 71.0609 -15.822 
20.5811 70.7573 -15.1335 19.8031 70.2078 -15.4448 21.0991 71.1046 -16.3994 
21.9027 70.4551 -16.2759 20.1069 71.1126 -16.7057 19.3705 70.5336 -16.0081 
19.3576 70.8683 -16.6217 18.9449 70.3129 -16.507 21.3694 70.4295 -17.0256 
20.831 70.4485 -17.6814 20.5187 70.959 -17.3499 19.5796 70.9249 -17.6003 
18.9137 70.2998 -17.3574 20.2019 70.8755 -18.4214 20.6962 70.4566 -18.535 
19.5826 70.6857 -18.522 19.1666 70.4464 -18.1515 20.4005 70.7666 -19.3143 
20.6908 70.2418 -19.5988 19.8126 70.3988 -19.4699 15.0369 70.8547 -19.6355 
15.2702 70.5829 -19.0896 15.7237 70.5188 -19.6892 14.0644 70.9087 -19.6595 
14.5981 70.5815 -18.967 13.0109 70.8683 -19.6395 13.4276 70.4294 -18.9696 
12.0125 70.8554 -19.6149 12.2967 70.3982 -19.0941 11.1076 70.8362 -19.6906 
11.4853 70.4711 -19.1939 10.7912 70.1351 -19.4314 20.2934 70.4204 -20.012 
15.3622 70.8108 -20.2913 15.7477 70.5895 -20.4418 14.4943 70.8621 -20.5181 
13.294 71.0826 -20.6694 12.4193 71.0164 -20.3384 11.5772 71.0994 -20.4114 
10.2992 70.7433 -19.961 9.83827 70.481 -20.578 16.5019 70.3816 -21.217 
16.4654 70.3242 -21.6486 16.2889 70.6548 -21.5912 15.2954 70.4682 -20.772 
16.1484 70.4055 -21.4451 14.5587 70.2567 -20.8724 14.2691 71.2969 -21.6508 
13.9247 70.6828 -21.2736 12.1618 71.2256 -21.2001 9.7426 70.468 -21.5303 
17.2737 70.6929 -22.5404 17.2848 70.2204 -22.3292 17.5064 70.2983 -22.7999 
16.2025 70.2922 -21.7666 17.0265 70.3428 -22.6439 13.9856 70.5707 -22.3893 
9.78777 70.4691 -22.5718 17.2266 70.4307 -22.9642 14.3549 70.4329 -22.9 
14.7196 70.6418 -23.6057 12.2508 71.2475 -23.5972 9.69386 70.2172 -23.4481 
14.7366 70.1952 -24.6427 9.15311 70.7598 -24.0499 8.27099 70.9143 -24.6569 
8.72734 70.1674 -24.5212 14.3833 70.8063 -25.1355 14.0095 70.384 -25.6407 
8.20837 70.3975 -24.8367 7.40635 70.3544 -25.179 6.98778 71.0492 -25.5268 
6.2148 71.1553 -25.4441 6.19063 70.4471 -25.144 5.1481 70.3394 -24.9629 
4.47366 70.6776 -24.9627 3.27096 70.9659 -25.8529 3.64681 70.5113 -25.0093 
2.85136 70.4096 -25.3389 0.377125 70.3702 -25.1689 0.80618 70.7973 -25.4526 
-0.337995 70.1252 -25.6737 13.4444 70.4145 -25.9251 12.4774 70.5878 -26.2036 
11.8288 70.5112 -26.5001 4.23414 71.1239 -26.7724 3.26787 70.9684 -26.5388 
2.19382 70.6641 -25.8673 2.43035 70.9452 -26.4605 1.4911 70.4905 -25.7267 
-0.844069 70.8395 -26.0356 -1.03463 70.6891 -26.594 11.4053 70.5603 -26.9832 
10.951 70.4754 -27.8847 5.04635 71.1632 -27.4946 4.24441 70.8812 -27.6261 
3.31703 70.7296 -27.3232 2.14324 70.9861 -27.7326 2.33167 70.2026 -27.2079 
3.04173 70.4184 -27.5432 1.79093 70.6042 -27.3395 0.26394 71.075 -27.8153 
0.812189 70.4931 -27.7587 0.24681 70.2844 -27.2796 -0.580791 70.2109 -26.8757 
10.8196 70.6888 -28.7462 3.67137 70.5148 -28.1899 2.95437 71.1304 -28.4085 
3.3535 70.4401 -27.8147 2.09884 71.0675 -28.6148 1.42701 70.5187 -27.7721 
1.26887 70.9077 -28.2923 10.7213 70.2814 -29.4668 5.16173 70.9772 -29.45 
5.65356 70.4815 -29.5827 5.09604 70.2174 -29.1792 4.06563 70.3607 -28.9107 
10.2511 70.5119 -29.9629 9.37637 70.5149 -30.1025 8.3601 70.4836 -30.0881 
7.34209 70.4372 -30.0667 6.3444 70.5523 -29.9312 21.1574 69.234 -15.0973 
21.906 69.6742 -15.7507 20.2567 69.586 -15.0178 19.5436 69.3876 -15.3627 
[...]
CELL_DATA 22428
SCALARS scalars float
LOOKUP_TABLE default
2012 2012 2012 2012 2012 2012 2012 2012 2012 
2012 2012 2012 2012 2012 2012 2012 2012 2012 
2012 2012 2012 2012 2012 2012 2012 2012 2012 
2012 2012 2012 2012 2012 2012 2012 2012 2012 
2012 2012 2012 2012 2012 2012 2012 2012 2012 
2012 2012 2012 2012 2012 2012 2012 2012 2012 
2012 2012 2012 2012 2012 2012 2012 2012 2012 
2012 2012 2012 2012 2012 2012 2012 2012 2012 
2012 2012 2012 2012 2012 2012 2012 2012 2012 
2012 2012 2012 2012 2012 2012 2012 2012 2012 
2012 2012 2012 2012 2012 2012 2012 2012 2012 
2012 2012 2012 2012 2012 2012 2012 2012 2012 
2012 2012 2012 2012 2012 2012 2012 2012 2012 
2012 2012 2012 2012 2012 2012 2012 2012 2012 
2012 2012 2012 2012 2012 2012 2012 2012 2012 
2012 2012 2012 2012 2012 2012 2012 2012 2012 
2012 2012 2012 2012 2012 2012 2012 2012 2012 
2012 2012 2012 2012 2012 2012 2012 2012 2012 
2012 2012 2012 2012 2012 2012 2012 2012 2012 
2012 2012 2012 2012 2012 2012 2012 2012 2012 
2012 2012 2012 2012 2012 2012 2012 2012 2012 
2012 2012 2012 2012 2012 2012 2012 2012 2012 
2012 2012 2012 2012 2012 2012 2012 2012 2012 
2012 2012 2012 2012 2012 2012 2012 2012 2012 
2012 2012 2012 2012 2012 2012 2012 2012 2012 
2012 2012 2012 2012 2012 2012 2012 2012 2012 
2012 2012 2012 2012 2012 2012 2012 2012 2012 
2012 2012 2012 2012 2012 2012 2012 2012 2012 
2012 2012 2012 2012 2012 2012 2012 2012 2012 
2012 2012 2012 2012 2012 2012 2012 2012 2012 
2012 2012 2012 2012 2012 2012 2012 2012 2012 
2012 2012 2012 2012 2012 2012 2012 2012 2012 
2012 2012 2012 2012 2012 2012 2012 2012 2012 
2012 2012 2012 2012 2012 2012 2012 2012 2012 
2012 2012 2012 2012 2012 2012 2012 2012 2012 
2012 2012 2012 2012 2012 2012 2012 2012 2012 
2012 2012 2012 2012 2012 2012 2012 2012 2012 
2012 2012 2012 2012 2012 2012 2012 2012 2012 
2012 2012 2012 2012 2012 2012 2012 2012 2012 
2012 2012 2012 2012 2012 2012 2012 2012 2012 
2012 2012 2012 2012 2012 2012 2012 2012 2012 
2012 2012 2012 2012 2012 2012 2012 2012 2012 
2012 2012 2012 2012 2012 2012 2012 2012 2012 
2012 2012 2012 2012 2012 2012 2012 2012 2012 
2012 2012 2012 2012 2012 2012 2012 2012 2012 
2012 2012 2012 2012 2012 2012 2012 2012 2012 
2012 2012 2012 2012 2012 2012 2012 2012 2012 
2012 2012 2012 2012 2012 2012 2012 2012 2012 
2012 2012 2012 2012 2012 2012 2012 2012 2012 
2012 2012 2012 2012 2012 2012 2012 2012 2012 
2012 2012 2012 2012 2012 2012 2012 2012 2012 
2012 2012 2012 2012 2012 2012 2012 2012 2012 
2012 2012 2012 2012 2012 2012 2012 2012 2012 
2012 2012 2012 2012 2012 2012 2012 2012 2012 
2012 2012 2012 2012 2012 2012 2012 2012 2012 
2012 2012 2012 2012 2012 2012 2012 2012 2012 
2012 2012 2012 2012 2012 2012 2012 2012 2012 
2012 2012 2012 2012 2012 2012 2012 2012 2012 
2012 2012 2012 2012 2012 2012 2012 2012 2012 
2012 2012 2012 2012 2012 2012 2012 2012 2012 
2012 2012 2012 2012 2012 2012 2012 2012 2012 
2012 2012 2012 2012 2012 2012 2012 2012 2012 
2012 2012 2012 2012 2012 2012 2012 2012 2012 
2012 2012 2012 2012 2012 2012 2012 2012 2012 
2012 2012 2012 2012 2012 2012 2012 2012 2012 
2012 2012 2012 2012 2012 2012 2012 2012 2012 
2012 2012 2012 2012 2012 2012 2012 2012 2012 
2012 2012 2012 2012 2012 2012 2012 2012 2012 
2012 2012 2012 2012 2012 2012 2012 2012 2012 
2012 2012 2012 2012 2012 2012 2012 2012 2012 
2012 2012 2012 2012 2012 2012 2012 2012 2012 
2012 2012 2012 2012 2012 2012 2012 2012 2012 
2012 2012 2012 2012 2012 2012 2012 2012 2012 
2012 2012 2012 2012 2012 2012 2012 2012 2012 
2012 2012 2012 2012 2012 2012 2012 2012 2012 
2012 2012 2012 2012 2012 2012 2012 2012 2012 
2012 2012 2012 2012 2012 2012 2012 2012 2012 
2012 2012 2012 2012 2012 2012 2012 2012 2012 
2012 2012 2012 2012 2012 2012 2012 2012 2012 
2012 2012 2012 2012 2012 2012 2012 2012 2012 
2012 2012 2012 2012 2012 2012 2012 2012 2012 
2012 2012 2012 2012 2012 2012 2012 2012 2012 
2012 2012 2012 2012 2012 2012 2012 2012 2012 
2012 2012 2012 2012 2012 2012 2012 2012 2012 
2012 2012 2012 2012 2012 2012 2012 2012 2012 
2012 2012 2012 2012 2012 2012 2012 2012 2012 
2012 2012 2012 2012 2012 2012 2012 2012 2012 
2012 2012 2012 2012 2012 2012 2012 2012 2012 
2012 2012 2012 2012 2012 2012 2012 2012 2012 
2012 2012 2012 2012 2012 2012 2012 2012 2012 
2012 2012 2012 2012 2012 2012 2012 2012 2012 
2012 2012 2012 2012 2012 2012 2012 2012 2012 
2012 2012 2012 2012 2012 2012 2012 2012 2012 
2012 2012 2012 2012 2012 2012 2012 2012 2012 
2012 2012 2012 2012 2012 2012 2012 2012 2012 
2012 2012 2012 2012 2012 2012 2012 2012 2012 
2012 2012 2012 2012 2012 2012 2012 2012 2012 
2012 2012 2012 2012 2012 2012 2012 2012 2012 
2012 2012 2012 2012 2012 2012 2012 2012 2012 
2012 2012 2012 2012 2012 2012 2012 2012 2012 
2012 2012 2012 2012 2012 2012 2012 2012 2012 
2012 2012 2012 2012 2012 2012 2012 2012 2012 
2012 2012 2012 2012 2012 2012 2012 2012 2012 
2012 2012 2012 2012 2012 2012 2012 2012 2012 
2012 2012 2012 2012 2012 2012 2012 2012 2012 
2012 2012 2012 2012 2012 2012 2012 2012 2012 
2012 2012 2012 2012 2012 2012 2012 2012 2012 
2012 2012 2012 2012 2012 2012 2012 2012 2012 
2012 2012 2012 2012 2012 2012 2012 2012 2012 
2012 2012 2012 2012 2012 2012 2012 2012 2012 
2012 2012 2012 2012 2012 2012 2012 2012 2012 
2012 2012 2012 2012 2012 2012 2012 2012 2012 
2012 2012 2012 2012 2012 2012 2012 2012 2012 
2012 2012 2012 2012 2012 2012 2012 2012 2012 
2012 2012 2012 2012 2012 2012 2012 2012 2012 
2012 2012 2012 2012 2012 2012 2012 2012 2012 
2012 2012 2012 2012 2012 2012 2012 2012 2012 
2012 2012 2012 2012 2012 2012 2012 2012 2012 
2012 2012 2012 2012 2012 2012 2012 2012 2012 
2012 2012 2012 2012 2012 2012 2012 2012 2012 
2012 2012 2012 2012 2012 2012 2012 2012 2012 
2012 2012 2012 2012 2012 2012 2012 2012 2012 
2012 2012 2012 2012 2012 2012 2012 2012 2012 
2012 2012 2012 2012 2012 2012 2012 2012 2012 
2012 2012 2012 2012 2012 2012 2012 2012 2012 
2012 2012 2012 2012 2012 2012 2012 2012 2012 
2012 2012 2012 2012 2012 2012 2012 2012 2012 
2012 2012 2012 2012 2012 2012 2012 2012 2012 
2012 2012 2012 2012 2012 2012 2012 2012 2012 
2012 2012 2012 2012 2012 2012 2012 2012 2012 
2012 2012 2012 2012 2012 2012 2012 2012 2012 
2012 2012 2012 2012 2012 2012 2012 2012 2012 
2012 2012 2012 2012 2012 2012 2012 2012 2012 
2012 2012 2012 2012 2012 2012 2012 2012 2012 
2012 2012 2012 2012 2012 2012 2012 2012 2012 
2012 2012 2012 2012 2012 2012 2012 2012 2012 
2012 2012 2012 2012 2012 2012 2012 2012 2012 
2012 2012 2012 2012 2012 2012 2012 2012 2012 
2012 2012 2012 2012 2012 2012 2012 2012 2012 
2012 2012 2012 2012 2012 2012 2012 2012 2012 
2012 2012 2012 2012 2012 2012 2012 2012 2012 
2012 2012 2012 2012 2012 2012 2012 2012 2012 
2012 2012 2012 2012 2012 2012 2012 2012 2012 
2012 2012 2012 2012 2012 2012 2012 2012 2012 
2012 2012 2012 2012 2012 2012 2012 2012 2012 
2012 2012 2012 2012 2012 2012 2012 2012 2012 
2012 2012 2012 2012 2012 2012 2012 2012 2012 
2012 2012 2012 2012 2012 2012 2012 2012 2012 
2012 2012 2012 2012 2012 2012 2012 2012 2012 
2012 2012 2012 2012 2012 2012 2012 2012 2012 
2012 2012 2012 2012 2012 2012 2012 2012 2012 
2012 2012 2012 2012 2012 2012 2012 2012 2012 
2012 2012 2012 2012 2012 2012 2012 2012 2012 
2012 2012 2012 2012 2012 2012 2012 2012 2012 
2012 2012 2012 2012 2012 2012 2012 2012 2012 
2012 2012 2012 2012 2012 2012 2012 2012 2012 
2012 2012 2012 2012 2012 2012 2012 2012 2012 
2012 2012 2012 2012 2012 2012 2012 2012 2012 
2012 2012 2012 2012 2012 2012 2012 2012 2012 
2012 2012 2012 2012 2012 2012 2012 2012 2012 
2012 2012 2012 2012 2012 2012 2012 2012 2012 
2012 2012 2012 2012 2012 2012 2012 2012 2012 
2012 2012 2012 2012 2012 2012 2012 2012 2012 
2012 2012 2012 2012 2012 2012 2012 2012 2012 
2012 2012 2012 2012 2012 2012 2012 2012 2012 
2012 2012 2012 2012 2012 2012 2012 2012 2012 
2012 2012 2012 2012 2012 2012 2012 2012 2012 
2012 2012 2012 2012 2012 2012 2012 2012 2012 
2012 2012 2012 2012 2012 2012 2012 2012 2012 
2012 2012 2012 2012 2012 2012 2012 2012 2012 
2012 2012 2012 2012 2012 2012 2012 2012 2012 
2012 2012 2012 2012 2012 2012 2012 2012 2012 
2012 2012 2012 2012 2012 2012 2012 2012 2012 
2012 2012 2012 2012 2012 2012 2012 2012 2012 
2012 2012 2012 2012 2012 2012 2012 2012 2012 
2012 2012 2012 2012 2012 2012 2012 2012 2012 
2012 2012 2012 2012 2012 2012 2012 2012 2012 
2012 2012 2012 2012 2012 2012 2012 2012 2012 
2012 2012 2012 2012 2012 2012 2012 2012 2012 
2012 2012 2012 2012 2012 2012 2012 2012 2012 
2012 2012 2012 2012 2012 2012 2012 2012 2012 
2012 2012 2012 2012 2012 2012 2012 2012 2012 
2012 2012 2012 2012 2012 2012 2012 2012 2012 
2012 2012 2012 2012 2012 2012 2012 2012 2012 
2012 2012 2012 2012 2012 2012 2012 2012 2012 
2012 2012 2012 2012 2012 2012 2012 2012 2012 
2012 2012 2012 2012 2012 2012 2012 2012 2012 
2012 2012 2012 2012 2012 2012 2012 2012 2012 
2012 2012 2012 2012 2012 2012 2012 2012 2012 
2012 2012 2012 2012 2012 2012 2012 2012 2012 
2012 2012 2012 2012 2012 2012 2012 2012 2012 
2012 2012 2012 2012 2012 2012 2012 2012 2012 
2012 2012 2012 2012 2012 2012 2012 2012 2012 
2012 2012 2012 2012 2012 2012 2012 2012 2012 
2012 2012 2012 2012 2012 2012 2012 2012 2012 
2012 2012 2012 2012 2012 2012 2012 2012 2012 
2012 2012 2012 2012 2012 2012 2012 2012 2012 
2012 2012 2012 2012 2012 2012 2012 2012 2012 
2012 2012 2012 2012 2012 2012 2012 2012 2012 
2012 2012 2012 2012 2012 2012 2012 2012 2012 
2012 2012 2012 2012 2012 2012 2012 2012 2012 
2012 2012 2012 2012 2012 2012 2012 2012 2012 
2012 2012 2012 2012 2012 2012 2012 2012 2012 
2012 2012 2012 2012 2012 2012 2012 2012 2012 
2012 2012 2012 2012 2012 2012 2012 2012 2012 
2012 2012 2012 2012 2012 2012 2012 2012 2012 
2012 2012 2012 2012 2012 2012 2012 2012 2012 
2012 2012 2012 2012 2012 2012 2012 2012 2012 
2012 2012 2012 2012 2012 2012 2012 2012 2012 
2012 2012 2012 2012 2012 2012 2012 2012 2012 
2012 2012 2012 2012 2012 2012 2012 2012 2012 
2012 2012 2012 2012 2012 2012 2012 2012 2012 
2012 2012 2012 2012 2012 2012 2012 2012 2012 
2012 2012 2012 2012 2012 2012 2012 2012 2012 
2012 2012 2012 2012 2012 2012 2012 2012 2012 
2012 2012 2012 2012 2012 2012 2012 2012 2012 
2012 2012 2012 2012 2012 2012 2012 2012 2012 
2012 2012 2012 2012 2012 2012 2012 2012 2012 
2012 2012 2012 2012 2012 2012 2012 2012 2012 
2012 2012 2012 2012 2012 2012 2012 2012 2012 
2012 2012 2012 2012 2012 2012 2012 2012 2012 
2012 2012 2012 2012 2012 2012 2012 2012 2012 
2012 2012 2012 2012 2012 2012 2012 2012 2012 
2012 2012 2012 2012 2012 2012 2012 2012 2012 
2012 2012 2012 2012 2012 2012 2012 2012 2012 
2012 2012 2012 2012 2012 2012 2012 2012 2012 
2012 2012 2012 2012 2012 2012 2012 2012 2012 
2012 2012 2012 2012 2012 2012 2012 2012 2012 
2012 2012 2012 2012 2012 2012 2012 2012 2012 
2012 2012 2012 2012 2012 2012 2012 2012 2012 
2012 2012 2012 2012 2012 2012 2012 2012 2012 
2012 2012 2012 2012 2012 2012 2012 2012 2012 
2012 2012 2012 2012 2012 2012 2012 2012 2012 
2012 2012 2012 2012 2012 2012 2012 2012 2012 
2012 2012 2012 2012 2012 2012 2012 2012 2012 
2012 2012 2012 2012 2012 2012 2012 2012 2012 
2012 2012 2012 2012 2012 2012 2012 2012 2012 
2012 2012 2012 2012 2012 2012 2012 2012 2012 
2012 2012 2012 2012 2012 2012 2012 2012 2012 
2012 2012 2012 2012 2012 2012 2012 2012 2012 
2012 2012 2012 2012 2012 2012 2012 2012 2012 
2012 2012 2012 2012 2012 2012 2012 2012 2012 
2012 2012 2012 2012 2012 2012 2012 2012 2012 
2012 2012 2012 2012 2012 2012 2012 2012 2012 
2012 2012 2012 2012 2012 2012 2012 2012 2012 
2012 2012 2012 2012 2012 2012 2012 2012 2012 
2012 2012 2012 2012 2012 2012 2012 2012 2012 
2012 2012 2012 2012 2012 2012 2012 2012 2012 
2012 2012 2012 2012 2012 2012 2012 2012 2012 
2012 2012 2012 2012 2012 2012 2012 2012 2012 
2012 2012 2012 2012 2012 2012 2012 2012 2012 
2012 2012 2012 2012 2012 2012 2012 2012 2012 
2012 2012 2012 2012 2012 2012 2012 2012 2012 
2012 2012 2012 2012 2012 2012 2012 2012 2012 
2012 2012 2012 2012 2012 2012 2012 2012 2012 
2012 2012 2012 2012 2012 2012 2012 2012 2012 
2012 2012 2012 2012 2012 2012 2012 2012 2012 
2012 2012 2012 2012 2012 2012 2012 2012 2012 
2012 2012 2012 2012 2012 2012 2012 2012 2012 
2012 2012 2012 2012 2012 2012 2012 2012 2012 
2012 2012 2012 2012 2012 2012 2012 2012 2012 
2012 2012 2012 2012 2012 2012 2012 2012 2012 
2012 2012 2012 2012 2012 2012 2012 2012 2012 
2012 2012 2012 2012 2012 2012 2012 2012 2012 
2012 2012 2012 2012 2012 2012 2012 2012 2012 
2012 2012 2012 2012 2012 2012 2012 2012 2012 
2012 2012 2012 2012 2012 2012 2012 2012 2012 
2012 2012 2012 2012 2012 2012 2012 2012 2012 
2012 2012 2012 2012 2012 2012 2012 2012 2012 
2012 2012 2012 2012 2012 2012 2012 2012 2012 
2012 2012 2012 2012 2012 2012 2012 2012 2012 
2012 2012 2012 2012 2012 2012 2012 2012 2012 
2012 2012 2012 2012 2012 2012 2012 2012 2012 
2012 2012 2012 2012 2012 2012 2012 2012 2012 
2012 2012 2012 2012 2012 2012 2012 2012 2012 
2012 2012 2012 2012 2012 2012 2012 2012 2012 
2012 2012 2012 2012 2012 2012 2012 2012 2012 
2012 2012 2012 2012 2012 2012 2012 2012 2012 
2012 2012 2012 2012 2012 2012 2012 2012 2012 
2012 2012 2012 2012 2012 2012 2012 2012 2012 
2012 2012 2012 2012 2012 2012 2012 2012 2012 
2012 2012 2012 2012 2012 2012 2012 2012 2012 
2012 2012 2012 2012 2012 2012 2012 2012 2012 
2012 2012 2012 2012 2012 2012 2012 2012 2012 
2012 2012 2012 2012 2012 2012 2012 2012 2012 
2012 2012 2012 2012 2012 2012 2012 2012 2012 
2012 2012 2012 2012 2012 2012 2012 2012 2012 
2012 2012 2012 2012 2012 2012 2012 2012 2012 
2012 2012 2012 2012 2012 2012 2012 2012 2012 
2012 2012 2012 2012 2012 2012 2012 2012 2012 
2012 2012 2012 2012 2012 2012 2012 2012 2012 
2012 2012 2012 2012 2012 2012 2012 2012 2012 
2012 2012 2012 2012 2012 2012 2012 2012 2012 
2012 2012 2012 2012 2012 2012 2012 2012 2012 
2012 2012 2012 2012 2012 2012 2012 2012 2012 
2012 2012 2012 2012 2012 2012 2012 2012 2012 
2012 2012 2012 2012 2012 2012 2012 2012 2012 
2012 2012 2012 2012 2012 2012 2012 2012 2012 
2012 2012 2012 2012 2012 2012 2012 2012 2012 
2012 2012 2012 2012 2012 2012 2012 2012 2012 
2012 2012 2012 2012 2012 2012 2012 2012 2012 
2012 2012 2012 2012 2012 2012 2012 2012 2012 
2012 2012 2012 2012 2012 2012 2012 2012 2012 
2012 2012 2012 2012 2012 2012 2012 2012 2012 
2012 2012 2012 2012 2012 2012 2012 2012 2012 
2012 2012 2012 2012 2012 2012 2012 2012 2012 
2012 2012 2012 2012 2012 2012 2012 2012 2012 
2012 2012 2012 2012 2012 2012 2012 2012 2012 
2012 2012 2012 2012 2012 2012 2012 2012 2012 
2012 2012 2012 2012 2012 2012 2012 2012 2012 
2012 2012 2012 2012 2012 2012 2012 2012 2012 
2012 2012 2012 2012 2012 2012 2012 2012 2012 
2012 2012 2012 2012 2012 2012 2012 2012 2012 
2012 2012 2012 2012 2012 2012 2012 2012 2012 
2012 2012 2012 2012 2012 2012 2012 2012 2012 
2012 2012 2012 2012 2012 2012 2012 2012 2012 
2012 2012 2012 2012 2012 2012 2012 2012 2012 
2012 2012 2012 2012 2012 2012 2012 2012 2012 
2012 2012 2012 2012 2012 2012 2012 2012 2012 
2012 2012 2012 2012 2012 2012 2012 2012 2012 
2012 2012 2012 2012 2012 2012 2012 2012 2012 
2012 2012 2012 2012 2012 2012 2012 2012 2012 
2012 2012 2012 2012 2012 2012 2012 2012 2012 
2012 2012 2012 2012 2012 2012 2012 2012 2012 
2012 2012 2012 2012 2012 2012 2012 2012 2012 
2012 2012 2012 2012 2012 2012 2012 2012 2012 
2012 2012 2012 2012 2012 2012 2012 2012 2012 
2012 2012 2012 2012 2012 2012 2012 2012 2012 
2012 2012 2012 2012 2012 2012 2012 2012 2012 
2012 2012 2012 2012 2012 2012 2012 2012 2012 
2012 2012 2012 2012 2012 2012 2012 2012 2012 
2012 2012 2012 2012 2012 2012 2012 2012 2012 
2012 2012 2012 2012 2012 2012 2012 2012 2012 
2012 2012 2012 2012 2012 2012 2012 2012 2012 
2012 2012 2012 2012 2012 2012 2012 2012 2012 
2012 2012 2012 2012 2012 2012 2012 2012 2012 
2012 2012 2012 2012 2012 2012 2012 2012 2012 
2012 2012 2012 2012 2012 2012 2012 2012 2012 
2012 2012 2012 2012 2012 2012 2012 2012 2012 
2012 2012 2012 2012 2012 2012 2012 2012 2012 
2012 2012 2012 2012 2012 2012 2012 2012 2012 
2012 2012 2012 2012 2012 2012 2012 2012 2012 
2012 2012 2012 2012 2012 2012 2012 2012 2012 
2012 2012 2012 2012 2012 2012 2012 2012 2012 
2012 2012 2012 2012 2012 2012 2012 2012 2012 
2012 2012 2012 2012 2012 2012 2012 2012 2012 
2012 2012 2012 2012 2012 2012 2012 2012 2012 
2012 2012 2012 2012 2012 2012 2012 2012 2012 
2012 2012 2012 2012 2012 2012 2012 2012 2012 
2012 2012 2012 2012 2012 2012 2012 2012 2012 
2012 2012 2012 2012 2012 2012 2012 2012 2012 
2012 2012 2012 2012 2012 2012 2012 2012 2012 
2012 2012 2012 2012 2012 2012 2012 2012 2012 
2012 2012 2012 2012 2012 2012 2012 2012 2012 
2012 2012 2012 2012 2012 2012 2012 2012 2012 
2012 2012 2012 2012 2012 2012 2012 2012 2012 
2012 2012 2012 2012 2012 2012 2012 2012 2012 
2012 2012 2012 2012 2012 2012 2012 2012 2012 
2012 2012 2012 2012 2012 2012 2012 2012 2012 
2012 2012 2012 2012 2012 2012 2012 2012 2012 
2012 2012 2012 2012 2012 2012 2012 2012 2012 
2012 2012 2012 2012 2012 2012 2012 2012 2012 
2012 2012 2012 2012 2012 2012 2012 2012 2012 
2012 2012 2012 2012 2012 2012 2012 2012 2012 
2012 2012 2012 2012 2012 2012 2012 2012 2012 
2012 2012 2012 2012 2012 2012 2012 2012 2012 
2012 2012 2012 2012 2012 2012 2012 2012 2012 
2012 2012 2012 2012 2012 2012 2012 2012 2012 
2012 2012 2012 2012 2012 2012 2012 2012 2012 
2012 2012 2012 2012 2012 2012 2012 2012 2012 
2012 2012 2012 2012 2012 2012 2012 2012 2012 
2012 2012 2012 2012 2012 2012 2012 2012 2012 
2012 2012 2012 2012 2012 2012 2012 2012 2012 
2012 2012 2012 2012 2012 2012 2012 2012 2012 
2012 2012 2012 2012 2012 2012 2012 2012 2012 
2012 2012 2012 2012 2012 2012 2012 2012 2012 
2012 2012 2012 2012 2012 2012 2012 2012 2012 
2012 2012 2012 2012 2012 2012 2012 2012 2012 
2012 2012 2012 2012 2012 2012 2012 2012 2012 
2012 2012 2012 2012 2012 2012 2012 2012 2012 
2012 2012 2012 2012 2012 2012 2012 2012 2012 
2012 2012 2012 2012 2012 2012 2012 2012 2012 
2012 2012 2012 2012 2012 2012 2012 2012 2012 
2012 2012 2012 2012 2012 2012 2012 2012 2012 
2012 2012 2012 2012 2012 2012 2012 2012 2012 
2012 2012 2012 2012 2012 2012 2012 2012 2012 
2012 2012 2012 2012 2012 2012 2012 2012 2012 
2012 2012 2012 2012 2012 2012 2012 2012 2012 
2012 2012 2012 2012 2012 2012 2012 2012 2012 
2012 2012 2012 2012 2012 2012 2012 2012 2012 
2012 2012 2012 2012 2012 2012 2012 2012 2012 
2012 2012 2012 2012 2012 2012 2012 2012 2012 
2012 2012 2012 2012 2012 2012 2012 2012 2012 
2012 2012 2012 2012 2012 2012 2012 2012 2012 
2012 2012 2012 2012 2012 2012 2012 2012 2012 
2012 2012 2012 2012 2012 2012 2012 2012 2012 
2012 2012 2012 2012 2012 2012 2012 2012 2012 
2012 2012 2012 2012 2012 2012 2012 2012 2012 
2012 2012 2012 2012 2012 2012 2012 2012 2012 
2012 2012 2012 2012 2012 2012 2012 2012 2012 
2012 2012 2012 2012 2012 2012 2012 2012 2012 
2012 2012 2012 2012 2012 2012 2012 2012 2012 
2012 2012 2012 2012 2012 2012 2012 2012 2012 
2012 2012 2012 2012 2012 2012 2012 2012 2012 
2012 2012 2012 2012 2012 2012 2012 2012 2012 
2012 2012 2012 2012 2012 2012 2012 2012 2012 
2012 2012 2012 2012 2012 2012 2012 2012 2012 
2012 2012 2012 2012 2012 2012 2012 2012 2012 
2012 2012 2012 2012 2012 2012 2012 2012 2012 
2012 2012 2012 2012 2012 2012 2012 2012 2012 
2012 2012 2012 2012 2012 2012 2012 2012 2012 
2012 2012 2012 2012 2012 2012 2012 2012 2012 
2012 2012 2012 2012 2012 2012 2012 2012 2012 
2012 2012 2012 2012 2012 2012 2012 2012 2012 
2012 2012 2012 2012 2012 2012 2012 2012 2012 
2012 2012 2012 2012 2012 2012 2012 2012 2012 
2012 2012 2012 2012 2012 2012 2012 2012 2012 
2012 2012 2012 2012 2012 2012 2012 2012 2012 
2012 2012 2012 2012 2012 2012 2012 2012 2012 
2012 2012 2012 2012 2012 2012 2012 2012 2012 
2012 2012 2012 2012 2012 2012 2012 2012 2012 
2012 2012 2012 2012 2012 2012 2012 2012 2012 
2012 2012 2012 2012 2012 2012 2012 2012 2012 
2012 2012 2012 2012 2012 2012 2012 2012 2012 
2012 2012 2012 2012 2012 2012 2012 2012 2012 
2012 2012 2012 2012 2012 2012 2012 2012 2012 
2012 2012 2012 2012 2012 2012 2012 2012 2012 
2012 2012 2012 2012 2012 2012 2012 2012 2012 
2012 2012 2012 2012 2012 2012 2012 2012 2012 
2012 2012 2012 2012 2012 2012 2012 2012 2012 
2012 2012 2012 2012 2012 2012 2012 2012 2012 
2012 2012 2012 2012 2012 2012 2012 2012 2012 
2012 2012 2012 2012 2012 2012 2012 2012 2012 