# vtk DataFile Version 4.2
vtk output
ASCII
DATASET POLYDATA
POINTS 4988 float
-52.2472 16.2207 48.71 -52.4285 16.7673 48.2148 -52.6504 16.2026 48.611 
-51.841 16.4241 48.2953 -50.2175 16.5143 48.7064 -50.4866 16.7267 48.337 
-50.5905 16.316 48.3882 -50.0513 16.6082 48.3507 -52.3807 15.685 48.7368 
-52.5767 15.6749 48.3776 -52.1184 15.6919 48.4828 -50.1469 16.3635 48.3933 
-52.3126 15.331 48.5222 -53.0629 16.3668 47.9936 -53.1427 16.9571 47.6921 
-53.6549 16.6836 47.4616 -52.3493 17.1697 47.4151 -51.2312 16.4113 48.1517 
-51.3391 16.9287 47.8301 -50.2516 17.0479 47.3361 -49.839 16.5161 47.6463 
-53.4252 16.0315 47.3176 -52.2234 15.8391 47.8939 -52.2817 15.4148 48.2644 
-52.0213 15.4526 47.5457 -51.3884 15.4275 47.8467 -50.3161 15.9931 47.7338 
-50.7127 15.4079 47.54 -52.3749 14.9918 47.4174 -52.4778 14.3341 47.3478 
-52.0845 14.5485 47.8164 -51.5851 14.4422 47.811 -50.9005 14.7617 47.524 
-52.0082 14.0726 47.4778 -51.1645 14.1028 47.3283 -53.2925 17.3102 47.0257 
-53.4528 17.8533 46.2092 -54.0309 17.3787 46.6509 -52.2675 17.4187 46.8132 
-52.28 17.7759 46.3099 -51.8087 17.5157 46.4855 -50.4199 17.7624 46.4014 
-50.6541 17.4311 46.6824 -50.2256 17.4793 46.7668 -49.8704 17.6228 46.2728 
-54.157 16.6851 46.922 -54.5316 17.1167 46.423 -54.6712 16.5891 46.1971 
-51.3842 17.2706 46.87 -49.2959 16.1555 46.9839 -49.334 16.8737 46.5526 
-48.7301 16.5769 46.3434 -54.1223 15.9645 46.6141 -53.2583 15.3311 46.8914 
-53.7654 15.4678 46.1617 -52.5853 15.5186 47.3375 -50.0706 15.2969 47.2112 
-49.1193 15.303 47.0129 -48.3913 16.2109 46.5779 -48.1836 15.5169 46.9295 
-47.017 15.366 46.937 -47.4157 16.0449 46.4239 -46.048 15.212 46.8485 
-46.3846 15.8128 46.417 -45.7143 15.5753 46.3494 -53.3418 15.0576 46.4127 
-52.8842 14.668 46.6061 -50.2484 14.3185 47.0867 -49.4515 14.5914 47.0193 
-48.4631 14.3183 46.9251 -47.4422 14.6721 47.0815 -46.4144 14.3448 46.9939 
-45.2137 15.1218 46.3418 -45.2289 14.3885 46.9013 -44.6587 14.5668 46.4242 
-52.3656 13.9602 46.4544 -51.4945 13.9807 46.8475 -50.3148 14.0084 46.4437 
-49.5471 13.4773 46.3379 -49.4279 13.7442 46.7774 -48.895 13.5247 46.6084 
-48.4744 13.6243 46.311 -47.919 13.3305 46.3228 -47.4395 13.7886 46.7945 
-46.6992 13.6073 46.626 -46.1191 13.713 46.6657 -45.7398 13.4478 46.5553 
-45.4635 13.7375 46.8552 -44.3753 14.0254 46.6519 -44.5593 13.5263 46.7879 
-43.7896 13.3404 46.2825 -49.2759 13.2825 46.5201 -47.23 13.1696 46.1752 
-45.2145 13.0069 46.3775 -44.1973 12.8529 46.366 -50.4621 18.2822 45.8634 
-50.2987 18.6586 45.5028 -50.569 18.5777 45.4714 -50.0391 18.3129 45.6444 
-54.2945 17.6173 46.1649 -54.1513 17.8838 45.4006 -54.7422 17.2837 45.7477 
-53.2199 18.0615 45.3894 -52.3494 18.0264 45.5176 -51.1433 18.1629 45.4481 
-51.1765 17.7416 46.2295 -49.6506 17.7835 45.3613 -54.7807 16.6456 45.2275 
-49.1555 17.1949 45.5622 -47.977 16.5062 46.0428 -48.3663 16.8626 45.5477 
-47.213 16.4322 45.8174 -47.3587 16.7495 45.3141 -46.6942 16.5644 45.308 
-54.2518 16.0223 45.5682 -53.636 15.5969 45.3802 -46.5156 16.2199 45.7654 
-45.3255 15.5273 45.9846 -45.6375 15.9478 45.6771 -44.9401 15.571 45.5674 
-53.2964 15.0871 45.8088 -52.9259 14.4341 45.3916 -51.2601 14.3292 46.0002 
-51.6376 14.4287 45.4395 -51.1837 14.8714 45.1638 -50.3888 14.8664 45.3672 
-50.4148 14.4951 45.9331 -49.8109 14.5229 45.4956 -43.8648 14.2541 46.1015 
-44.4082 14.9995 45.7885 -43.1565 14.2041 45.744 -43.5456 14.8983 45.5171 
-42.8857 14.6517 45.2286 -53.1158 13.605 45.8299 -53.2801 13.7064 45.3503 
-53.4697 13.4252 45.544 -52.6269 13.3388 45.8528 -51.9865 13.7966 45.5397 
-49.2215 13.9367 45.5585 -49.1272 13.426 46.2599 -48.3417 13.3745 45.9994 
-48.5763 13.546 45.4828 -46.2593 13.2844 46.3086 -43.2877 13.6321 45.9244 
-42.9126 13.7298 45.4205 -53.0529 13.178 45.4663 -52.3972 13.1928 45.2694 
-48.0785 13.1832 45.7301 -47.5031 13.0832 45.4616 -46.3755 12.9376 45.6683 
-45.3602 12.4369 45.8196 -45.7163 12.5173 45.4023 -44.5518 12.3334 45.9236 
-43.9051 12.5342 45.7759 -43.374 13.0344 45.5839 -45.065 12.1521 45.5254 
-44.496 12.1667 45.4304 -53.3053 8.51267 45.7422 -53.1176 8.90023 45.3645 
-53.5815 8.64699 45.5625 -52.8851 8.53489 45.4799 -30.1669 8.5918 45.7573 
-30.2628 8.81541 45.2214 -30.5744 8.34666 45.4343 -29.3393 8.53603 45.8387 
-29.366 8.92427 45.4184 -28.2452 8.49401 45.8467 -28.2635 8.90042 45.4581 
-27.4133 8.43044 45.7695 -27.4465 8.77182 45.5978 -26.973 8.59152 45.3341 
-53.4247 8.23715 45.4219 -31.2839 7.50717 45.6776 -31.44 7.70257 45.2952 
-31.6567 7.309 45.371 -30.0401 8.06598 45.615 -31.0262 7.5331 45.5747 
-29.0378 7.9581 45.6242 -27.9263 7.95547 45.4266 -27.1363 8.23343 45.2916 
-31.0253 7.28545 45.3232 -50.2305 18.343 45.1659 -54.1302 17.8655 44.3495 
-54.7384 17.3035 44.7011 -53.3483 18.0674 44.5357 -52.3501 18.0386 44.5601 
-51.3213 18.0218 44.5129 -50.3142 18.0787 44.4237 -49.4239 17.8749 44.4628 
-49.146 17.4104 44.8902 -48.7371 17.5287 44.3205 -54.7459 16.3368 44.2921 
-48.498 17.1641 44.7456 -47.4447 17.0757 44.4787 -45.9513 16.4973 45.0364 
-46.5016 16.8542 44.6393 -44.9569 16.3313 44.943 -45.424 16.9944 44.2279 
-43.925 16.3929 44.8555 -44.2832 16.8988 44.3619 -43.1968 16.3134 44.7571 
-43.4758 16.8127 44.4906 -42.9944 16.5425 44.2647 -54.2162 16.0184 44.5926 
-53.5364 15.7632 44.7176 -53.176 15.3563 45.0388 -53.0195 15.1827 44.4837 
-44.1929 15.6484 45.207 -43.3322 15.6042 45.0557 -42.8912 15.5103 44.4877 
-52.8612 14.2843 44.2022 -51.6436 14.4287 44.8371 -51.076 14.9144 44.2843 
-50.3049 15.1213 44.4664 -49.4049 14.9109 44.5317 -49.2959 14.5414 44.9509 
-48.8045 14.5295 44.4508 -42.8766 14.2409 44.7659 -53.212 13.3584 45.1156 
-52.7979 13.4484 44.464 -51.8568 13.6393 44.6591 -48.4849 13.9899 44.6934 
-48.0544 13.4464 45.0173 -47.643 13.9971 44.4391 -47.1414 13.4184 44.9455 
-46.6592 13.9992 44.4684 -46.0716 13.2267 44.9685 -45.6374 13.9636 44.4917 
-45.0314 13.2558 44.8271 -44.5749 13.9489 44.4596 -44.0871 13.3784 44.7693 
-43.5543 13.9795 44.4856 -43.3118 13.3704 44.9788 -52.4336 13.1378 44.6774 
-45.1876 12.4974 45.1494 -44.1513 12.6954 45.1434 -53.4974 9.22906 45.018 
-53.4188 9.90343 44.3691 -53.821 9.4581 44.4266 -52.9417 9.61612 44.3277 
-54.0449 8.65747 44.977 -54.3141 8.94185 44.1664 -54.5879 8.24985 44.2511 
-52.2958 8.10473 45.0154 -52.4871 8.82645 44.764 -51.8255 8.43182 44.1571 
-30.222 8.88945 44.2378 -30.7361 8.43815 44.7555 -29.3386 9.06122 44.4898 
-28.2383 9.05383 44.5173 -27.2906 8.88527 44.7956 -26.9025 8.4917 44.4962 
-54.1167 7.9119 44.7777 -53.2759 7.57763 45.0089 -53.9392 7.12343 44.5403 
-52.469 7.26209 44.9002 -51.2484 7.94832 44.3425 -51.5493 7.5234 44.74 
-50.8262 7.58484 44.3272 -32.3088 7.35848 45.0769 -32.2259 7.84113 44.3423 
-32.9079 7.33674 44.6676 -31.2059 8.0878 44.4752 -30.5342 7.62885 45.1604 
-29.51 7.46952 45.2559 -28.6192 7.24667 45.0107 -27.8924 7.49267 44.6425 
-27.2631 7.97344 44.4079 -53.2806 6.78595 44.7187 -53.7569 6.53103 44.4466 
-52.7224 6.58166 44.5448 -51.9536 6.88221 44.5011 -51.1448 7.18405 44.4096 
-50.2704 6.84665 44.5116 -50.7649 6.51342 44.5012 -50.3202 6.20817 44.7539 
-49.9329 6.62147 44.4513 -44.3245 6.43216 44.7086 -44.5222 6.81544 44.4091 
-44.4812 6.37359 44.3498 -44.0395 6.67562 44.3639 -33.0897 6.74805 44.7846 
-33.5305 6.90829 44.473 -33.7783 6.39283 44.3214 -32.3249 6.70817 44.8583 
-31.263 6.83067 44.7144 -31.8255 6.52385 44.4981 -30.3083 6.86995 44.7165 
-29.6243 6.26994 44.4054 -29.3912 6.76585 44.7967 -28.7436 6.41164 44.392 
-28.2631 6.95033 44.2114 -54.1249 5.15984 44.7901 -54.4445 5.86301 44.3752 
-54.6953 5.40215 44.4279 -53.3192 6.20364 44.3257 -53.9212 5.58988 44.4403 
-51.0795 5.39832 44.8632 -51.4194 5.92626 44.4017 -51.8321 5.29438 44.5624 
-50.2835 5.37006 44.8624 -49.7725 5.7859 44.5352 -44.2026 6.27701 44.3496 
-33.2505 6.17832 44.3275 -32.37 6.13097 44.263 -29.1303 6.00626 44.3321 
-54.3597 4.68238 44.8428 -54.6788 4.63236 44.2651 -53.4278 5.05892 44.5974 
-53.3556 4.43455 44.8595 -52.1083 4.6204 44.8983 -52.6191 4.99639 44.5156 
-51.4892 4.2745 44.9037 -50.6185 4.62024 44.815 -49.8551 4.84032 44.5427 
-33.2436 4.49379 44.6456 -33.5356 4.70429 44.2323 -33.5077 4.29799 44.4932 
-32.8895 4.70218 44.3209 -54.1416 4.1988 44.6158 -53.4261 3.80329 44.5207 
-52.7692 3.32088 44.4413 -52.444 3.79083 44.8024 -51.7371 3.60366 44.6034 
-50.981 3.8815 44.5189 -50.207 4.17368 44.4435 -49.2753 3.77724 44.5521 
-49.5215 3.49043 44.4205 -49.2552 3.52608 44.6327 -48.896 3.44362 44.2692 
-33.0903 4.23797 44.5257 -52.1701 3.21824 44.4464 -49.2094 3.11274 44.361 
-37.2922 20.5029 43.6572 -37.3891 20.8215 43.2219 -37.5767 20.3678 43.4973 
-36.7764 20.3793 43.2244 -37.2142 20.084 43.407 -38.1391 18.602 43.7057 
-38.4628 18.8533 43.4418 -38.6235 18.37 43.4683 -37.5122 19.0177 43.4374 
-37.2463 18.3834 43.8165 -36.1542 18.1957 43.8578 -36.5764 18.7278 43.5565 
-35.7991 18.3444 43.1668 -54.4887 17.438 43.9516 -54.0488 17.6577 43.5683 
-53.3367 17.9458 43.4052 -52.3349 18.0524 43.5019 -51.3099 18.017 43.4844 
-50.2949 18.0133 43.4568 -49.3105 18.0122 43.4569 -47.9771 17.473 44.0051 
-48.3528 17.8823 43.5004 -47.2021 17.4165 43.7502 -47.3409 17.7817 43.2964 
-46.704 17.5821 43.3041 -45.1388 17.3955 43.7171 -45.4047 17.7234 43.1425 
-45.6968 17.3993 43.6254 -44.6945 17.5389 43.3301 -38.0139 18.0604 43.5257 
-37.0668 17.7622 43.3283 -36.7025 17.44 43.57 -36.5749 17.7093 43.8638 
-35.1981 17.9526 43.4691 -35.4368 17.5712 43.8581 -34.2739 17.4118 43.8204 
-34.2481 17.8384 43.4212 -33.4433 17.3459 43.7842 -33.2983 17.757 43.4312 
-32.7795 17.5008 43.4239 -54.3903 17.1482 43.1752 -54.7715 16.7459 43.7096 
-46.4173 17.2321 43.8041 -44.4816 17.2255 43.7644 -43.4995 17.0541 43.7588 
-42.8458 16.3264 43.4251 -36.1775 17.2716 43.6805 -35.2284 17.1721 43.4851 
-34.0249 17.0393 43.4674 -33.0039 17.1039 43.3232 -54.1967 15.4619 44.0229 
-54.7592 15.6054 43.4887 -53.5229 15.5224 44.2067 -43.2837 15.4369 43.8365 
-43.6942 15.3422 43.5107 -43.2092 15.7782 43.2844 -54.3011 14.7364 43.7036 
-54.666 14.4094 43.106 -53.463 14.7326 43.9328 -51.3355 14.2237 44.0509 
-50.8514 14.4663 43.4516 -50.2752 14.9341 43.595 -49.3154 14.966 43.6181 
[...]
CELL_DATA 9988
SCALARS scalars float
LOOKUP_TABLE default
2018 2018 2018 2018 2018 2018 2018 2018 2018 
2018 2018 2018 2018 2018 2018 2018 2018 2018 
2018 2018 2018 2018 2018 2018 2018 2018 2018 
2018 2018 2018 2018 2018 2018 2018 2018 2018 
2018 2018 2018 2018 2018 2018 2018 2018 2018 
2018 2018 2018 2018 2018 2018 2018 2018 2018 
2018 2018 2018 2018 2018 2018 2018 2018 2018 
2018 2018 2018 2018 2018 2018 2018 2018 2018 
2018 2018 2018 2018 2018 2018 2018 2018 2018 
2018 2018 2018 2018 2018 2018 2018 2018 2018 
2018 2018 2018 2018 2018 2018 2018 2018 2018 
2018 2018 2018 2018 2018 2018 2018 2018 2018 
2018 2018 2018 2018 2018 2018 2018 2018 2018 
2018 2018 2018 2018 2018 2018 2018 2018 2018 
2018 2018 2018 2018 2018 2018 2018 2018 2018 
2018 2018 2018 2018 2018 2018 2018 2018 2018 
2018 2018 2018 2018 2018 2018 2018 2018 2018 
2018 2018 2018 2018 2018 2018 2018 2018 2018 
2018 2018 2018 2018 2018 2018 2018 2018 2018 
2018 2018 2018 2018 2018 2018 2018 2018 2018 
2018 2018 2018 2018 2018 2018 2018 2018 2018 
2018 2018 2018 2018 2018 2018 2018 2018 2018 
2018 2018 2018 2018 2018 2018 2018 2018 2018 
2018 2018 2018 2018 2018 2018 2018 2018 2018 
2018 2018 2018 2018 2018 2018 2018 2018 2018 
2018 2018 2018 2018 2018 2018 2018 2018 2018 
2018 2018 2018 2018 2018 2018 2018 2018 2018 
2018 2018 2018 2018 2018 2018 2018 2018 2018 
2018 2018 2018 2018 2018 2018 2018 2018 2018 
2018 2018 2018 2018 2018 2018 2018 2018 2018 
2018 2018 2018 2018 2018 2018 2018 2018 2018 
2018 2018 2018 2018 2018 2018 2018 2018 2018 
2018 2018 2018 2018 2018 2018 2018 2018 2018 
2018 2018 2018 2018 2018 2018 2018 2018 2018 
2018 2018 2018 2018 2018 2018 2018 2018 2018 
2018 2018 2018 2018 2018 2018 2018 2018 2018 
2018 2018 2018 2018 2018 2018 2018 2018 2018 
2018 2018 2018 2018 2018 2018 2018 2018 2018 
2018 2018 2018 2018 2018 2018 2018 2018 2018 
2018 2018 2018 2018 2018 2018 2018 2018 2018 
2018 2018 2018 2018 2018 2018 2018 2018 2018 
2018 2018 2018 2018 2018 2018 2018 2018 2018 
2018 2018 2018 2018 2018 2018 2018 2018 2018 
2018 2018 2018 2018 2018 2018 2018 2018 2018 
2018 2018 2018 2018 2018 2018 2018 2018 2018 
2018 2018 2018 2018 2018 2018 2018 2018 2018 
2018 2018 2018 2018 2018 2018 2018 2018 2018 
2018 2018 2018 2018 2018 2018 2018 2018 2018 
2018 2018 2018 2018 2018 2018 2018 2018 2018 
2018 2018 2018 2018 2018 2018 2018 2018 2018 
2018 2018 2018 2018 2018 2018 2018 2018 2018 
2018 2018 2018 2018 2018 2018 2018 2018 2018 
2018 2018 2018 2018 2018 2018 2018 2018 2018 
2018 2018 2018 2018 2018 2018 2018 2018 2018 
2018 2018 2018 2018 2018 2018 2018 2018 2018 
2018 2018 2018 2018 2018 2018 2018 2018 2018 
2018 2018 2018 2018 2018 2018 2018 2018 2018 
2018 2018 2018 2018 2018 2018 2018 2018 2018 
2018 2018 2018 2018 2018 2018 2018 2018 2018 
2018 2018 2018 2018 2018 2018 2018 2018 2018 
2018 2018 2018 2018 2018 2018 2018 2018 2018 
2018 2018 2018 2018 2018 2018 2018 2018 2018 
2018 2018 2018 2018 2018 2018 2018 2018 2018 
2018 2018 2018 2018 2018 2018 2018 2018 2018 
2018 2018 2018 2018 2018 2018 2018 2018 2018 
2018 2018 2018 2018 2018 2018 2018 2018 2018 
2018 2018 2018 2018 2018 2018 2018 2018 2018 
2018 2018 2018 2018 2018 2018 2018 2018 2018 
2018 2018 2018 2018 2018 2018 2018 2018 2018 
2018 2018 2018 2018 2018 2018 2018 2018 2018 
2018 2018 2018 2018 2018 2018 2018 2018 2018 
2018 2018 2018 2018 2018 2018 2018 2018 2018 
2018 2018 2018 2018 2018 2018 2018 2018 2018 
2018 2018 2018 2018 2018 2018 2018 2018 2018 
2018 2018 2018 2018 2018 2018 2018 2018 2018 
2018 2018 2018 2018 2018 2018 2018 2018 2018 
2018 2018 2018 2018 2018 2018 2018 2018 2018 
2018 2018 2018 2018 2018 2018 2018 2018 2018 
2018 2018 2018 2018 2018 2018 2018 2018 2018 
2018 2018 2018 2018 2018 2018 2018 2018 2018 
2018 2018 2018 2018 2018 2018 2018 2018 2018 
2018 2018 2018 2018 2018 2018 2018 2018 2018 
2018 2018 2018 2018 2018 2018 2018 2018 2018 
2018 2018 2018 2018 2018 2018 2018 2018 2018 
2018 2018 2018 2018 2018 2018 2018 2018 2018 
2018 2018 2018 2018 2018 2018 2018 2018 2018 
2018 2018 2018 2018 2018 2018 2018 2018 2018 
2018 2018 2018 2018 2018 2018 2018 2018 2018 
2018 2018 2018 2018 2018 2018 2018 2018 2018 
2018 2018 2018 2018 2018 2018 2018 2018 2018 
2018 2018 2018 2018 2018 2018 2018 2018 2018 
2018 2018 2018 2018 2018 2018 2018 2018 2018 
2018 2018 2018 2018 2018 2018 2018 2018 2018 
2018 2018 2018 2018 2018 2018 2018 2018 2018 
2018 2018 2018 2018 2018 2018 2018 2018 2018 
2018 2018 2018 2018 2018 2018 2018 2018 2018 
2018 2018 2018 2018 2018 2018 2018 2018 2018 
2018 2018 2018 2018 2018 2018 2018 2018 2018 
2018 2018 2018 2018 2018 2018 2018 2018 2018 
2018 2018 2018 2018 2018 2018 2018 2018 2018 
2018 2018 2018 2018 2018 2018 2018 2018 2018 
2018 2018 2018 2018 2018 2018 2018 2018 2018 
2018 2018 2018 2018 2018 2018 2018 2018 2018 
2018 2018 2018 2018 2018 2018 2018 2018 2018 
2018 2018 2018 2018 2018 2018 2018 2018 2018 
2018 2018 2018 2018 2018 2018 2018 2018 2018 
2018 2018 2018 2018 2018 2018 2018 2018 2018 
2018 2018 2018 2018 2018 2018 2018 2018 2018 
2018 2018 2018 2018 2018 2018 2018 2018 2018 
2018 2018 2018 2018 2018 2018 2018 2018 2018 
2018 2018 2018 2018 2018 2018 2018 2018 2018 
2018 2018 2018 2018 2018 2018 2018 2018 2018 
2018 2018 2018 2018 2018 2018 2018 2018 2018 
2018 2018 2018 2018 2018 2018 2018 2018 2018 
2018 2018 2018 2018 2018 2018 2018 2018 2018 
2018 2018 2018 2018 2018 2018 2018 2018 2018 
2018 2018 2018 2018 2018 2018 2018 2018 2018 
2018 2018 2018 2018 2018 2018 2018 2018 2018 
2018 2018 2018 2018 2018 2018 2018 2018 2018 
2018 2018 2018 2018 2018 2018 2018 2018 2018 
2018 2018 2018 2018 2018 2018 2018 2018 2018 
2018 2018 2018 2018 2018 2018 2018 2018 2018 
2018 2018 2018 2018 2018 2018 2018 2018 2018 
2018 2018 2018 2018 2018 2018 2018 2018 2018 
2018 2018 2018 2018 2018 2018 2018 2018 2018 
2018 2018 2018 2018 2018 2018 2018 2018 2018 
2018 2018 2018 2018 2018 2018 2018 2018 2018 
2018 2018 2018 2018 2018 2018 2018 2018 2018 
2018 2018 2018 2018 2018 2018 2018 2018 2018 
2018 2018 2018 2018 2018 2018 2018 2018 2018 
2018 2018 2018 2018 2018 2018 2018 2018 2018 
2018 2018 2018 2018 2018 2018 2018 2018 2018 
2018 2018 2018 2018 2018 2018 2018 2018 2018 
2018 2018 2018 2018 2018 2018 2018 2018 2018 
2018 2018 2018 2018 2018 2018 2018 2018 2018 
2018 2018 2018 2018 2018 2018 2018 2018 2018 
2018 2018 2018 2018 2018 2018 2018 2018 2018 
2018 2018 2018 2018 2018 2018 2018 2018 2018 
2018 2018 2018 2018 2018 2018 2018 2018 2018 
2018 2018 2018 2018 2018 2018 2018 2018 2018 
2018 2018 2018 2018 2018 2018 2018 2018 2018 
2018 2018 2018 2018 2018 2018 2018 2018 2018 
2018 2018 2018 2018 2018 2018 2018 2018 2018 
2018 2018 2018 2018 2018 2018 2018 2018 2018 
2018 2018 2018 2018 2018 2018 2018 2018 2018 
2018 2018 2018 2018 2018 2018 2018 2018 2018 
2018 2018 2018 2018 2018 2018 2018 2018 2018 
2018 2018 2018 2018 2018 2018 2018 2018 2018 
2018 2018 2018 2018 2018 2018 2018 2018 2018 
2018 2018 2018 2018 2018 2018 2018 2018 2018 
2018 2018 2018 2018 2018 2018 2018 2018 2018 
2018 2018 2018 2018 2018 2018 2018 2018 2018 
2018 2018 2018 2018 2018 2018 2018 2018 2018 
2018 2018 2018 2018 2018 2018 2018 2018 2018 
2018 2018 2018 2018 2018 2018 2018 2018 2018 
2018 2018 2018 2018 2018 2018 2018 2018 2018 
2018 2018 2018 2018 2018 2018 2018 2018 2018 
2018 2018 2018 2018 2018 2018 2018 2018 2018 
2018 2018 2018 2018 2018 2018 2018 2018 2018 
2018 2018 2018 2018 2018 2018 2018 2018 2018 
2018 2018 2018 2018 2018 2018 2018 2018 2018 
2018 2018 2018 2018 2018 2018 2018 2018 2018 
2018 2018 2018 2018 2018 2018 2018 2018 2018 
2018 2018 2018 2018 2018 2018 2018 2018 2018 
2018 2018 2018 2018 2018 2018 2018 2018 2018 
2018 2018 2018 2018 2018 2018 2018 2018 2018 
2018 2018 2018 2018 2018 2018 2018 2018 2018 
2018 2018 2018 2018 2018 2018 2018 2018 2018 
2018 2018 2018 2018 2018 2018 2018 2018 2018 
2018 2018 2018 2018 2018 2018 2018 2018 2018 
2018 2018 2018 2018 2018 2018 2018 2018 2018 
2018 2018 2018 2018 2018 2018 2018 2018 2018 
2018 2018 2018 2018 2018 2018 2018 2018 2018 
2018 2018 2018 2018 2018 2018 2018 2018 2018 
2018 2018 2018 2018 2018 2018 2018 2018 2018 
2018 2018 2018 2018 2018 2018 2018 2018 2018 
2018 2018 2018 2018 2018 2018 2018 2018 2018 
2018 2018 2018 2018 2018 2018 2018 2018 2018 
2018 2018 2018 2018 2018 2018 2018 2018 2018 
2018 2018 2018 2018 2018 2018 2018 2018 2018 
2018 2018 2018 2018 2018 2018 2018 2018 2018 
2018 2018 2018 2018 2018 2018 2018 2018 2018 
2018 2018 2018 2018 2018 2018 2018 2018 2018 
2018 2018 2018 2018 2018 2018 2018 2018 2018 
2018 2018 2018 2018 2018 2018 2018 2018 2018 
2018 2018 2018 2018 2018 2018 2018 2018 2018 
2018 2018 2018 2018 2018 2018 2018 2018 2018 
2018 2018 2018 2018 2018 2018 2018 2018 2018 
2018 2018 2018 2018 2018 2018 2018 2018 2018 
2018 2018 2018 2018 2018 2018 2018 2018 2018 
2018 2018 2018 2018 2018 2018 2018 2018 2018 
2018 2018 2018 2018 2018 2018 2018 2018 2018 
2018 2018 2018 2018 2018 2018 2018 2018 2018 
2018 2018 2018 2018 2018 2018 2018 2018 2018 
2018 2018 2018 2018 2018 2018 2018 2018 2018 
2018 2018 2018 2018 2018 2018 2018 2018 2018 
2018 2018 2018 2018 2018 2018 2018 2018 2018 
2018 2018 2018 2018 2018 2018 2018 2018 2018 
2018 2018 2018 2018 2018 2018 2018 2018 2018 
2018 2018 2018 2018 2018 2018 2018 2018 2018 
2018 2018 2018 2018 2018 2018 2018 2018 2018 
2018 2018 2018 2018 2018 2018 2018 2018 2018 
2018 2018 2018 2018 2018 2018 2018 2018 2018 
2018 2018 2018 2018 2018 2018 2018 2018 2018 
2018 2018 2018 2018 2018 2018 2018 2018 2018 
2018 2018 2018 2018 2018 2018 2018 2018 2018 
2018 2018 2018 2018 2018 2018 2018 2018 2018 
2018 2018 2018 2018 2018 2018 2018 2018 2018 
2018 2018 2018 2018 2018 2018 2018 2018 2018 
2018 2018 2018 2018 2018 2018 2018 2018 2018 
2018 2018 2018 2018 2018 2018 2018 2018 2018 
2018 2018 2018 2018 2018 2018 2018 2018 2018 
2018 2018 2018 2018 2018 2018 2018 2018 2018 
2018 2018 2018 2018 2018 2018 2018 2018 2018 
2018 2018 2018 2018 2018 2018 2018 2018 2018 
2018 2018 2018 2018 2018 2018 2018 2018 2018 
2018 2018 2018 2018 2018 2018 2018 2018 2018 
2018 2018 2018 2018 2018 2018 2018 2018 2018 
2018 2018 2018 2018 2018 2018 2018 2018 2018 
2018 2018 2018 2018 2018 2018 2018 2018 2018 
2018 2018 2018 2018 2018 2018 2018 2018 2018 
2018 2018 2018 2018 2018 2018 2018 2018 2018 
2018 2018 2018 2018 2018 2018 2018 2018 2018 
2018 2018 2018 2018 2018 2018 2018 2018 2018 
2018 2018 2018 2018 2018 2018 2018 2018 2018 
2018 2018 2018 2018 2018 2018 2018 2018 2018 
2018 2018 2018 2018 2018 2018 2018 2018 2018 
2018 2018 2018 2018 2018 2018 2018 2018 2018 
2018 2018 2018 2018 2018 2018 2018 2018 2018 
2018 2018 2018 2018 2018 2018 2018 2018 2018 
2018 2018 2018 2018 2018 2018 2018 2018 2018 
2018 2018 2018 2018 2018 2018 2018 2018 2018 
2018 2018 2018 2018 2018 2018 2018 2018 2018 
2018 2018 2018 2018 2018 2018 2018 2018 2018 
2018 2018 2018 2018 2018 2018 2018 2018 2018 
2018 2018 2018 2018 2018 2018 2018 2018 2018 
2018 2018 2018 2018 2018 2018 2018 2018 2018 
2018 2018 2018 2018 2018 2018 2018 2018 2018 
2018 2018 2018 2018 2018 2018 2018 2018 2018 
2018 2018 2018 2018 2018 2018 2018 2018 2018 
2018 2018 2018 2018 2018 2018 2018 2018 2018 
2018 2018 2018 2018 2018 2018 2018 2018 2018 
2018 2018 2018 2018 2018 2018 2018 2018 2018 
2018 2018 2018 2018 2018 2018 2018 2018 2018 
2018 2018 2018 2018 2018 2018 2018 2018 2018 
2018 2018 2018 2018 2018 2018 2018 2018 2018 
2018 2018 2018 2018 2018 2018 2018 2018 2018 
2018 2018 2018 2018 2018 2018 2018 2018 2018 
2018 2018 2018 2018 2018 2018 2018 2018 2018 
2018 2018 2018 2018 2018 2018 2018 2018 2018 
2018 2018 2018 2018 2018 2018 2018 2018 2018 
2018 2018 2018 2018 2018 2018 2018 2018 2018 
2018 2018 2018 2018 2018 2018 2018 2018 2018 
2018 2018 2018 2018 2018 2018 2018 2018 2018 
2018 2018 2018 2018 2018 2018 2018 2018 2018 
2018 2018 2018 2018 2018 2018 2018 2018 2018 
2018 2018 2018 2018 2018 2018 2018 2018 2018 
2018 2018 2018 2018 2018 2018 2018 2018 2018 
2018 2018 2018 2018 2018 2018 2018 2018 2018 
2018 2018 2018 2018 2018 2018 2018 2018 2018 
2018 2018 2018 2018 2018 2018 2018 2018 2018 
2018 2018 2018 2018 2018 2018 2018 2018 2018 
2018 2018 2018 2018 2018 2018 2018 2018 2018 
2018 2018 2018 2018 2018 2018 2018 2018 2018 
2018 2018 2018 2018 2018 2018 2018 2018 2018 
2018 2018 2018 2018 2018 2018 2018 2018 2018 
2018 2018 2018 2018 2018 2018 2018 2018 2018 
2018 2018 2018 2018 2018 2018 2018 2018 2018 
2018 2018 2018 2018 2018 2018 2018 2018 2018 
2018 2018 2018 2018 2018 2018 2018 2018 2018 
2018 2018 2018 2018 2018 2018 2018 2018 2018 
2018 2018 2018 2018 2018 2018 2018 2018 2018 
2018 2018 2018 2018 2018 2018 2018 2018 2018 
2018 2018 2018 2018 2018 2018 2018 2018 2018 
2018 2018 2018 2018 2018 2018 2018 2018 2018 
2018 2018 2018 2018 2018 2018 2018 2018 2018 
2018 2018 2018 2018 2018 2018 2018 2018 2018 
2018 2018 2018 2018 2018 2018 2018 2018 2018 
2018 2018 2018 2018 2018 2018 2018 2018 2018 
2018 2018 2018 2018 2018 2018 2018 2018 2018 
2018 2018 2018 2018 2018 2018 2018 2018 2018 
2018 2018 2018 2018 2018 2018 2018 2018 2018 
2018 2018 2018 2018 2018 2018 2018 2018 2018 
2018 2018 2018 2018 2018 2018 2018 2018 2018 
2018 2018 2018 2018 2018 2018 2018 2018 2018 
2018 2018 2018 2018 2018 2018 2018 2018 2018 
2018 2018 2018 2018 2018 2018 2018 2018 2018 
2018 2018 2018 2018 2018 2018 2018 2018 2018 
2018 2018 2018 2018 2018 2018 2018 2018 2018 
2018 2018 2018 2018 2018 2018 2018 2018 2018 
2018 2018 2018 2018 2018 2018 2018 2018 2018 
2018 2018 2018 2018 2018 2018 2018 2018 2018 
2018 2018 2018 2018 2018 2018 2018 2018 2018 
2018 2018 2018 2018 2018 2018 2018 2018 2018 
2018 2018 2018 2018 2018 2018 2018 2018 2018 
2018 2018 2018 2018 2018 2018 2018 2018 2018 
2018 2018 2018 2018 2018 2018 2018 2018 2018 
2018 2018 2018 2018 2018 2018 2018 2018 2018 
2018 2018 2018 2018 2018 2018 2018 2018 2018 
2018 2018 2018 2018 2018 2018 2018 2018 2018 
2018 2018 2018 2018 2018 2018 2018 2018 2018 
2018 2018 2018 2018 2018 2018 2018 2018 2018 
2018 2018 2018 2018 2018 2018 2018 2018 2018 
2018 2018 2018 2018 2018 2018 2018 2018 2018 
2018 2018 2018 2018 2018 2018 2018 2018 2018 
2018 2018 2018 2018 2018 2018 2018 2018 2018 
2018 2018 2018 2018 2018 2018 2018 2018 2018 
2018 2018 2018 2018 2018 2018 2018 2018 2018 
2018 2018 2018 2018 2018 2018 2018 2018 2018 
2018 2018 2018 2018 2018 2018 2018 2018 2018 
2018 2018 2018 2018 2018 2018 2018 2018 2018 
2018 2018 2018 2018 2018 2018 2018 2018 2018 
2018 2018 2018 2018 2018 2018 2018 2018 2018 
2018 2018 2018 2018 2018 2018 2018 2018 2018 
2018 2018 2018 2018 2018 2018 2018 2018 2018 
2018 2018 2018 2018 2018 2018 2018 2018 2018 
2018 2018 2018 2018 2018 2018 2018 2018 2018 
2018 2018 2018 2018 2018 2018 2018 2018 2018 
2018 2018 2018 2018 2018 2018 2018 2018 2018 
2018 2018 2018 2018 2018 2018 2018 2018 2018 
2018 2018 2018 2018 2018 2018 2018 2018 2018 
2018 2018 2018 2018 2018 2018 2018 2018 2018 
2018 2018 2018 2018 2018 2018 2018 2018 2018 
2018 2018 2018 2018 2018 2018 2018 2018 2018 
2018 2018 2018 2018 2018 2018 2018 2018 2018 
2018 2018 2018 2018 2018 2018 2018 2018 2018 
2018 2018 2018 2018 2018 2018 2018 2018 2018 
2018 2018 2018 2018 2018 2018 2018 2018 2018 
2018 2018 2018 2018 2018 2018 2018 2018 2018 
2018 2018 2018 2018 2018 2018 2018 2018 2018 
2018 2018 2018 2018 2018 2018 2018 2018 2018 
2018 2018 2018 2018 2018 2018 2018 2018 2018 
2018 2018 2018 2018 2018 2018 2018 2018 2018 
2018 2018 2018 2018 2018 2018 2018 2018 2018 
2018 2018 2018 2018 2018 2018 2018 2018 2018 
2018 2018 2018 2018 2018 2018 2018 2018 2018 
2018 2018 2018 2018 2018 2018 2018 2018 2018 
2018 2018 2018 2018 2018 2018 2018 2018 2018 
2018 2018 2018 2018 2018 2018 2018 2018 2018 
2018 2018 2018 2018 2018 2018 2018 2018 2018 
2018 2018 2018 2018 2018 2018 2018 2018 2018 
2018 2018 2018 2018 2018 2018 2018 2018 2018 
2018 2018 2018 2018 2018 2018 2018 2018 2018 
2018 2018 2018 2018 2018 2018 2018 2018 2018 
2018 2018 2018 2018 2018 2018 2018 2018 2018 
2018 2018 2018 2018 2018 2018 2018 2018 2018 
2018 2018 2018 2018 2018 2018 2018 2018 2018 
2018 2018 2018 2018 2018 2018 2018 2018 2018 
2018 2018 2018 2018 2018 2018 2018 2018 2018 
2018 2018 2018 2018 2018 2018 2018 2018 2018 
2018 2018 2018 2018 2018 2018 2018 2018 2018 
2018 2018 2018 2018 2018 2018 2018 2018 2018 
2018 2018 2018 2018 2018 2018 2018 2018 2018 
2018 2018 2018 2018 2018 2018 2018 2018 2018 
2018 2018 2018 2018 2018 2018 2018 2018 2018 
2018 2018 2018 2018 2018 2018 2018 2018 2018 
2018 2018 2018 2018 2018 2018 2018 2018 2018 
2018 2018 2018 2018 2018 2018 2018 2018 2018 
2018 2018 2018 2018 2018 2018 2018 2018 2018 
2018 2018 2018 2018 2018 2018 2018 2018 2018 
2018 2018 2018 2018 2018 2018 2018 2018 2018 
2018 2018 2018 2018 2018 2018 2018 2018 2018 
2018 2018 2018 2018 2018 2018 2018 2018 2018 
2018 2018 2018 2018 2018 2018 2018 2018 2018 
2018 2018 2018 2018 2018 2018 2018 2018 2018 
2018 2018 2018 2018 2018 2018 2018 2018 2018 
2018 2018 2018 2018 2018 2018 2018 2018 2018 
2018 2018 2018 2018 2018 2018 2018 2018 2018 
2018 2018 2018 2018 2018 2018 2018 2018 2018 
2018 2018 2018 2018 2018 2018 2018 2018 2018 
2018 2018 2018 2018 2018 2018 2018 2018 2018 
2018 2018 2018 2018 2018 2018 2018 2018 2018 
2018 2018 2018 2018 2018 2018 2018 2018 2018 
2018 2018 2018 2018 2018 2018 2018 2018 2018 
2018 2018 2018 2018 2018 2018 2018 2018 2018 
2018 2018 2018 2018 2018 2018 2018 2018 2018 
2018 2018 2018 2018 2018 2018 2018 2018 2018 
2018 2018 2018 2018 2018 2018 2018 2018 2018 
2018 2018 2018 2018 2018 2018 2018 2018 2018 
2018 2018 2018 2018 2018 2018 2018 2018 2018 
2018 2018 2018 2018 2018 2018 2018 2018 2018 
2018 2018 2018 2018 2018 2018 2018 2018 2018 
2018 2018 2018 2018 2018 2018 2018 2018 2018 
2018 2018 2018 2018 2018 2018 2018 2018 2018 
2018 2018 2018 2018 2018 2018 2018 2018 2018 
2018 2018 2018 2018 2018 2018 2018 2018 2018 
2018 2018 2018 2018 2018 2018 2018 2018 2018 
2018 2018 2018 2018 2018 2018 2018 2018 2018 
2018 2018 2018 2018 2018 2018 2018 2018 2018 
2018 2018 2018 2018 2018 2018 2018 2018 2018 
2018 2018 2018 2018 2018 2018 2018 2018 2018 
2018 2018 2018 2018 2018 2018 2018 2018 2018 
2018 2018 2018 2018 2018 2018 2018 2018 2018 
2018 2018 2018 2018 2018 2018 2018 2018 2018 
2018 2018 2018 2018 2018 2018 2018 2018 2018 
2018 2018 2018 2018 2018 2018 2018 2018 2018 
2018 2018 2018 2018 2018 2018 2018 2018 2018 
2018 2018 2018 2018 2018 2018 2018 2018 2018 
2018 2018 2018 2018 2018 2018 2018 2018 2018 
2018 2018 2018 2018 2018 2018 2018 2018 2018 
2018 2018 2018 2018 2018 2018 2018 2018 2018 
2018 2018 2018 2018 2018 2018 2018 2018 2018 
2018 2018 2018 2018 2018 2018 2018 2018 2018 
2018 2018 2018 2018 2018 2018 2018 2018 2018 
2018 2018 2018 2018 2018 2018 2018 2018 2018 
2018 2018 2018 2018 2018 2018 2018 2018 2018 
2018 2018 2018 2018 2018 2018 2018 2018 2018 
2018 2018 2018 2018 2018 2018 2018 2018 2018 
2018 2018 2018 2018 2018 2018 2018 2018 2018 
2018 2018 2018 2018 2018 2018 2018 2018 2018 
2018 2018 2018 2018 2018 2018 2018 2018 2018 
2018 2018 2018 2018 2018 2018 2018 2018 2018 
2018 2018 2018 2018 2018 2018 2018 2018 2018 
2018 2018 2018 2018 2018 2018 2018 2018 2018 
2018 2018 2018 2018 2018 2018 2018 2018 2018 
2018 2018 2018 2018 2018 2018 2018 2018 2018 
2018 2018 2018 2018 2018 2018 2018 2018 2018 
2018 2018 2018 2018 2018 2018 2018 2018 2018 
2018 2018 2018 2018 2018 2018 2018 2018 2018 
2018 2018 2018 2018 2018 2018 2018 2018 2018 
2018 2018 2018 2018 2018 2018 2018 2018 2018 
2018 2018 2018 2018 2018 2018 2018 2018 2018 
2018 2018 2018 2018 2018 2018 2018 2018 2018 
2018 2018 2018 2018 2018 2018 2018 2018 2018 
2018 2018 2018 2018 2018 2018 2018 2018 2018 
2018 2018 2018 2018 2018 2018 2018 2018 2018 
2018 2018 2018 2018 2018 2018 2018 2018 2018 
2018 2018 2018 2018 2018 2018 2018 2018 2018 
2018 2018 2018 2018 2018 2018 2018 2018 2018 
2018 2018 2018 2018 2018 2018 2018 2018 2018 
2018 2018 2018 2018 2018 2018 2018 2018 2018 
2018 2018 2018 2018 2018 2018 2018 2018 2018 
2018 2018 2018 2018 2018 2018 2018 2018 2018 