# vtk DataFile Version 4.2
vtk output
ASCII
DATASET POLYDATA
POINTS 17422 float
-53.0037 20.4312 41.8426 -53.2844 20.9642 41.5311 -53.7348 20.3549 41.465 
-52.0466 20.4079 41.9308 -52.6297 21.087 41.546 -51.081 20.265 41.856 
-51.6519 21.0094 41.5385 -50.8711 20.7102 41.4871 -53.1828 19.4954 41.9178 
-53.8621 19.2058 41.5526 -52.288 19.512 42.0834 -51.2583 19.4736 42.069 
-50.4148 20.1042 41.6387 -50.3741 19.4223 41.8514 -49.9085 19.5542 41.4946 
-53.2103 18.4509 41.9232 -53.8373 18.1584 41.5727 -52.5057 18.641 42.0828 
-51.5841 18.4052 41.9896 -50.554 18.5722 41.8462 -49.7358 18.5342 41.3388 
-53.2941 17.6548 41.8135 -53.6645 17.3356 41.494 -52.4894 17.6966 41.8855 
-51.7084 17.5797 41.6521 -50.9496 17.837 41.5652 -50.2373 17.9353 41.3869 
-52.9792 16.9953 41.3618 -52.104 17.1415 41.3012 -53.2507 21.3719 41.0272 
-53.1938 21.9491 40.5291 -53.8118 21.5227 40.5157 -52.0781 21.5699 41.0331 
-52.374 22.0503 40.4203 -50.9922 21.3672 41.0276 -51.2974 21.9041 40.385 
-50.0754 21.2588 40.8194 -50.3795 21.8233 40.3606 -49.7117 21.6212 40.3731 
-54.3004 20.5471 40.898 -54.5109 20.9262 40.4412 -54.937 20.3223 40.5685 
-50.1535 20.4524 41.2245 -49.4372 21.1198 40.5854 -49.4344 20.4445 40.8415 
-48.9326 20.6044 40.4561 -55.013 19.5559 40.8283 -55.4135 20.032 40.3468 
-55.6548 19.3605 40.3732 -54.3663 19.6805 41.1799 -49.3651 19.3514 41.0275 
-48.779 19.7254 40.5285 -55.1952 18.4834 40.8771 -55.8462 18.3543 40.4074 
-54.4893 18.7357 41.1884 -49.2248 18.4942 40.8959 -48.7452 18.5307 40.3226 
-55.202 17.517 40.8257 -55.679 17.369 40.4888 -54.3687 17.5691 41.1675 
-51.3607 17.3492 41.2188 -50.5948 17.4301 40.9772 -49.8299 17.6103 40.78 
-49.2483 17.9016 40.5301 -55.158 16.8317 40.6193 -54.7039 16.2346 40.4801 
-54.4919 16.692 40.8406 -53.6269 16.5952 40.9711 -52.7629 16.3449 40.4131 
-52.2427 16.7691 40.6475 -51.1897 16.9656 40.4644 -50.0956 17.1505 40.2227 
-53.9641 15.9602 40.5012 -53.2707 15.9175 40.3492 -53.1684 22.345 40.0203 
-53.3225 22.8926 39.2093 -53.8785 22.4086 39.6056 -52.1798 22.4552 39.8709 
-52.4893 22.786 39.5215 -51.8224 22.5046 39.1835 -55.0814 21.5199 39.7586 
-55.2421 21.8652 39.4982 -55.7022 21.3113 39.4562 -54.3116 21.6472 40.0121 
-54.6489 22.1007 39.5338 -51.4799 22.1644 39.6952 -50.5913 22.121 39.4615 
-48.9606 21.3516 40.0824 -49.5836 22.0489 39.6918 -48.2787 21.2813 39.7409 
-48.6208 21.9534 39.5152 -47.9718 21.6198 39.4106 -55.1746 20.7986 40.0635 
-55.8617 20.1958 39.6999 -48.208 20.3329 40.0166 -47.6841 20.8373 39.5082 
-56.058 19.2767 39.784 -48.2642 19.2949 40.1802 -47.4199 20.0722 39.5887 
-47.6187 19.3379 39.7782 -47.0141 19.5953 39.4322 -56.2683 18.5826 39.8586 
-56.3986 19.091 39.3393 -56.611 18.4285 39.3725 -48.1181 18.65 39.8946 
-47.6248 18.4004 39.3175 -47.1232 19.0215 39.4086 -56.2115 17.6174 40.0377 
-56.6781 17.4739 39.3889 -49.418 17.3493 40.0814 -48.8495 17.5826 39.7231 
-48.2706 17.9345 39.4627 -56.1949 16.5668 39.8457 -56.6618 16.3834 39.2145 
-55.4602 16.4949 40.2355 -52.2034 16.4874 40.1174 -51.6243 16.5225 39.9509 
-50.8125 16.4198 39.4003 -50.1756 16.819 39.4172 -49.2231 17.1055 39.329 
-56.1815 15.8752 39.6127 -55.8184 15.2703 39.3183 -55.5352 15.7168 39.8337 
-54.5597 15.5889 40.0151 -53.5708 15.4272 39.9178 -52.8173 15.6305 39.7568 
-52.0488 15.9931 39.6312 -51.2903 16.026 39.3341 -54.9492 15.1359 39.3714 
-54.0978 15.0937 39.4788 -53.3297 15.0708 39.3099 -55.2513 22.3184 39.0447 
-55.3898 22.8533 38.1798 -55.9742 22.3979 38.6057 -54.2341 22.6401 39.1991 
-54.1791 22.9493 38.508 -53.1262 23.0585 38.3582 -52.4175 22.8863 38.7435 
-51.7741 22.4812 38.1664 -49.9382 22.4996 38.9231 -50.1587 22.7675 38.116 
-50.5895 22.3823 38.5435 -49.0405 22.5364 39.0347 -49.4467 22.8748 38.4801 
-48.011 22.3719 39.0286 -48.589 23.0566 38.3947 -47.0018 22.3559 38.9393 
-47.3937 23.0416 38.4561 -46.3026 22.2719 38.8148 -46.5382 22.7733 38.5765 
-46.0465 22.506 38.3381 -56.1756 21.7157 38.875 -56.4512 22.1218 38.3779 
-56.6511 21.4426 38.3324 -51.1812 22.2077 38.59 -47.2453 21.3925 39.1422 
-46.4268 21.5185 38.8962 -45.8052 21.7998 38.367 -56.3245 20.766 38.9785 
-56.6971 20.4754 38.3487 -46.9986 20.2731 39.2207 -46.4271 20.4634 38.8839 
-45.8113 20.7902 38.5094 -56.3406 19.8188 39.0723 -56.8086 19.3259 38.5466 
-46.5149 19.314 38.9896 -45.7824 19.7514 38.4927 -56.9596 18.2061 38.675 
-47.0082 18.58 39.0676 -46.4994 18.4739 38.7414 -45.8494 18.8009 38.4744 
-56.9709 17.2034 38.6565 -48.449 17.3741 39.0233 -47.8511 17.6114 38.7224 
-47.032 17.9375 38.5972 -46.1916 18.1257 38.3941 -57.0056 16.2967 38.5276 
-50.3334 16.514 39.0084 -49.8282 16.3817 38.3722 -49.2495 16.787 38.5729 
-48.3851 17.0829 38.5029 -56.4139 15.5281 39.1981 -56.8545 15.3424 38.6437 
-52.4667 15.2023 39.2095 -51.5937 15.2989 38.9683 -50.7733 15.4932 38.4809 
-50.3236 16.0277 38.4919 -56.2246 14.7945 38.7699 -56.6667 14.3764 38.4409 
-55.3318 14.7679 38.6547 -55.8292 14.4843 38.4686 -54.2297 14.7943 38.8091 
-53.2352 14.6656 38.8382 -53.9206 14.4195 38.3028 -52.3471 14.6153 38.8107 
-51.6916 14.6238 38.6084 -51.1927 14.8755 38.3792 -56.1687 14.1991 38.4047 
-53.1051 14.1771 38.2325 -52.0702 14.1842 38.2746 -48.0041 23.5346 37.9908 
-48.3794 23.8785 37.2286 -48.7619 23.498 37.7383 -47.2012 23.4782 37.9017 
-47.3701 23.8272 37.4093 -46.7079 23.606 37.3848 -56.2231 22.6085 38.0966 
-56.1166 22.8621 37.3434 -56.6592 22.238 37.7128 -55.1975 23.0258 37.333 
-54.3215 23.0195 37.5046 -53.2888 23.0384 37.4855 -52.2861 22.8922 37.5632 
-51.6246 22.5442 37.322 -50.5044 22.836 37.2213 -50.8467 22.4454 37.7667 
-49.5364 23.1676 37.5392 -46.2983 23.1146 37.632 -45.6623 22.4309 37.5818 
-56.9602 21.3537 37.5037 -51.3519 22.2822 37.6553 -45.1851 21.9727 37.5084 
-45.0894 21.2582 38.0084 -44.1333 21.2068 37.7829 -44.4247 21.7639 37.3462 
-43.7384 21.5665 37.3134 -41.2161 21.1909 37.784 -41.1785 21.8019 37.2638 
-41.8955 21.5548 37.4012 -40.7138 21.6317 37.3565 -57.0338 20.2603 37.7548 
-45.1513 20.2384 38.1522 -44.3111 20.4826 38.0111 -43.3914 21.1556 37.5745 
-43.2349 20.4994 37.9093 -42.0664 20.5471 37.9118 -42.667 21.0962 37.5449 
-41.1766 20.3432 38.0309 -40.4037 21.2347 37.6232 -40.2477 20.5172 37.9465 
-39.1109 20.2963 37.8708 -39.6153 21.0034 37.5589 -38.8125 20.7027 37.216 
-57.2373 19.531 37.8424 -57.3974 20.0492 37.3491 -57.5948 19.4071 37.3526 
-45.1545 19.2239 38.1279 -44.3267 19.5015 37.9946 -43.3197 19.5126 38.0201 
-42.2886 19.4767 38.0407 -41.3155 19.4895 38.0414 -40.3387 19.5116 38.0393 
-39.2814 19.5111 38.048 -38.338 20.1404 37.5794 -38.1481 19.5125 37.9672 
-37.2694 19.283 37.8263 -37.6212 19.7535 37.3975 -37.095 19.4015 37.4189 
-57.3019 18.7406 38.007 -57.6562 18.4793 37.3675 -51.1183 18.5393 37.8222 
-51.645 18.2912 37.5614 -51.2017 18.8483 37.2461 -50.5033 18.904 37.5668 
-50.3675 18.3497 37.8501 -49.6391 18.9816 37.4076 -49.4822 18.4417 37.7376 
-49.0028 18.7045 37.5064 -45.468 18.2669 38.1131 -44.5723 18.4426 37.8524 
-43.4299 18.5275 37.8604 -42.3242 18.4844 38.0158 -41.3081 18.4502 38.0303 
-40.2919 18.4557 38.0284 -39.2679 18.4512 38.0505 -38.2308 18.4712 38.0825 
-37.2755 18.4736 38.014 -36.7067 18.6005 37.5937 -57.3164 17.7593 38.0271 
-57.6501 17.463 37.3605 -51.2816 17.8351 37.8033 -51.7675 17.5351 37.3903 
-50.7194 17.5964 37.6703 -49.9159 17.8596 37.5778 -49.1543 18.1616 37.4966 
-47.5088 17.1965 38.1508 -46.3145 17.3256 37.9725 -45.1935 17.5108 37.8313 
-44.6138 17.605 37.5386 -43.9686 17.9436 37.4686 -43.2282 17.8564 37.5337 
-42.7016 17.3289 37.3996 -42.4915 17.7493 37.7774 -41.5154 17.6011 37.8677 
-40.3656 17.4473 37.9123 -39.2749 17.4239 38.0424 -38.2459 17.3932 38.0779 
-37.3906 17.5531 38.0808 -36.5393 17.3915 37.8086 -36.1953 17.9485 37.5721 
-35.9295 17.6826 37.2627 -57.3089 16.7652 38.0049 -57.6558 16.4636 37.3565 
-51.2358 17.1853 37.5048 -49.2308 16.4869 38.0591 -48.422 16.5842 37.9427 
-47.362 16.6185 37.7388 -46.691 16.6231 37.5694 -46.1187 16.6942 37.5882 
-45.702 16.2847 37.438 -45.5225 16.7521 37.7013 -44.8393 16.8267 37.485 
-41.9204 17.0393 37.4846 -40.9847 16.928 37.52 -40.2024 16.781 37.5921 
-39.8616 16.375 37.3599 -39.4822 16.7121 37.8254 -38.5145 16.5363 37.9121 
-37.4013 16.5709 37.888 -36.6917 16.473 37.5307 -36.1498 16.9137 37.1921 
-57.3237 15.7526 38.0144 -57.6798 15.4688 37.3714 -50.2986 15.5055 37.9674 
-49.8072 15.5008 37.4498 -49.1129 15.9873 37.5577 -48.0713 16.0006 37.44 
-47.2186 16.1495 37.4036 -45.1395 16.229 37.4184 -39.0679 16.0922 37.2853 
-37.9904 15.9964 37.3989 -37.2192 16.072 37.3397 -57.216 14.5741 38.0353 
-57.6896 14.4662 37.3669 -55.537 14.179 38.1924 -54.6809 14.2941 38.0359 
-51.4065 14.3857 38.1113 -50.7737 14.4523 37.4706 -50.294 14.982 37.4408 
-57.208 13.5599 37.8217 -57.6538 13.4009 37.1857 -56.2893 13.5974 38.122 
-55.0662 13.423 37.8802 -54.5507 13.6599 37.5568 -53.9927 13.9476 37.6194 
-53.1705 13.8199 37.4813 -52.3106 13.8419 37.6227 -51.4355 13.9604 37.5276 
-57.1788 12.881 37.5929 -56.7361 12.2961 37.4881 -56.5301 12.7159 37.8477 
-55.5308 12.5922 37.9002 -54.4422 13.0446 37.5392 -54.6 12.5047 37.7231 
-53.8936 12.4063 37.1848 -55.964 11.9962 37.5463 -55.0001 11.9102 37.5301 
-54.261 11.9295 37.3438 -49.1826 23.6224 37.1381 -49.1183 23.8697 36.3555 
-49.6948 23.3281 36.4677 -48.202 24.0626 36.378 -47.3207 24.0251 36.5318 
-46.2591 23.5426 37.0256 -46.3877 23.8404 36.5729 -45.7719 23.5053 36.4929 
-56.2617 23.0094 36.6185 -56.8501 22.4552 36.7409 -55.578 23.1419 36.639 
-54.4219 23.105 36.5234 -53.3099 23.0049 36.4728 -52.2839 22.9825 36.4624 
-51.151 22.5394 37.155 -51.3283 22.8496 36.7046 -50.321 22.917 36.4131 
-45.1538 22.3801 36.8762 -45.2984 22.9804 36.4491 -44.7401 22.5387 36.2564 
-42.2097 22.1737 36.8214 -42.4092 22.7749 36.1265 -42.8498 22.3132 36.5399 
-41.6833 22.5938 36.3273 -57.3009 21.596 36.807 -57.4342 22.0824 36.3338 
-57.6499 21.4223 36.3553 -44.5374 22.1636 36.6989 -42.9756 21.6632 37.0751 
-43.6416 22.0577 36.6447 -42.4154 21.591 37.2237 -41.271 22.1599 36.6332 
-39.9668 21.5706 37.1151 -40.4735 21.9256 36.7274 -39.2756 21.358 37.0205 
-39.5878 21.7399 36.4667 -38.9784 21.1803 36.3854 -57.3496 20.812 37.056 
[...]
CELL_DATA 34892
SCALARS scalars float
LOOKUP_TABLE default
2024 2024 2024 2024 2024 2024 2024 2024 2024 
2024 2024 2024 2024 2024 2024 2024 2024 2024 
2024 2024 2024 2024 2024 2024 2024 2024 2024 
2024 2024 2024 2024 2024 2024 2024 2024 2024 
2024 2024 2024 2024 2024 2024 2024 2024 2024 
2024 2024 2024 2024 2024 2024 2024 2024 2024 
2024 2024 2024 2024 2024 2024 2024 2024 2024 
2024 2024 2024 2024 2024 2024 2024 2024 2024 
2024 2024 2024 2024 2024 2024 2024 2024 2024 
2024 2024 2024 2024 2024 2024 2024 2024 2024 
2024 2024 2024 2024 2024 2024 2024 2024 2024 
2024 2024 2024 2024 2024 2024 2024 2024 2024 
2024 2024 2024 2024 2024 2024 2024 2024 2024 
2024 2024 2024 2024 2024 2024 2024 2024 2024 
2024 2024 2024 2024 2024 2024 2024 2024 2024 
2024 2024 2024 2024 2024 2024 2024 2024 2024 
2024 2024 2024 2024 2024 2024 2024 2024 2024 
2024 2024 2024 2024 2024 2024 2024 2024 2024 
2024 2024 2024 2024 2024 2024 2024 2024 2024 
2024 2024 2024 2024 2024 2024 2024 2024 2024 
2024 2024 2024 2024 2024 2024 2024 2024 2024 
2024 2024 2024 2024 2024 2024 2024 2024 2024 
2024 2024 2024 2024 2024 2024 2024 2024 2024 
2024 2024 2024 2024 2024 2024 2024 2024 2024 
2024 2024 2024 2024 2024 2024 2024 2024 2024 
2024 2024 2024 2024 2024 2024 2024 2024 2024 
2024 2024 2024 2024 2024 2024 2024 2024 2024 
2024 2024 2024 2024 2024 2024 2024 2024 2024 
2024 2024 2024 2024 2024 2024 2024 2024 2024 
2024 2024 2024 2024 2024 2024 2024 2024 2024 
2024 2024 2024 2024 2024 2024 2024 2024 2024 
2024 2024 2024 2024 2024 2024 2024 2024 2024 
2024 2024 2024 2024 2024 2024 2024 2024 2024 
2024 2024 2024 2024 2024 2024 2024 2024 2024 
2024 2024 2024 2024 2024 2024 2024 2024 2024 
2024 2024 2024 2024 2024 2024 2024 2024 2024 
2024 2024 2024 2024 2024 2024 2024 2024 2024 
2024 2024 2024 2024 2024 2024 2024 2024 2024 
2024 2024 2024 2024 2024 2024 2024 2024 2024 
2024 2024 2024 2024 2024 2024 2024 2024 2024 
2024 2024 2024 2024 2024 2024 2024 2024 2024 
2024 2024 2024 2024 2024 2024 2024 2024 2024 
2024 2024 2024 2024 2024 2024 2024 2024 2024 
2024 2024 2024 2024 2024 2024 2024 2024 2024 
2024 2024 2024 2024 2024 2024 2024 2024 2024 
2024 2024 2024 2024 2024 2024 2024 2024 2024 
2024 2024 2024 2024 2024 2024 2024 2024 2024 
2024 2024 2024 2024 2024 2024 2024 2024 2024 
2024 2024 2024 2024 2024 2024 2024 2024 2024 
2024 2024 2024 2024 2024 2024 2024 2024 2024 
2024 2024 2024 2024 2024 2024 2024 2024 2024 
2024 2024 2024 2024 2024 2024 2024 2024 2024 
2024 2024 2024 2024 2024 2024 2024 2024 2024 
2024 2024 2024 2024 2024 2024 2024 2024 2024 
2024 2024 2024 2024 2024 2024 2024 2024 2024 
2024 2024 2024 2024 2024 2024 2024 2024 2024 
2024 2024 2024 2024 2024 2024 2024 2024 2024 
2024 2024 2024 2024 2024 2024 2024 2024 2024 
2024 2024 2024 2024 2024 2024 2024 2024 2024 
2024 2024 2024 2024 2024 2024 2024 2024 2024 
2024 2024 2024 2024 2024 2024 2024 2024 2024 
2024 2024 2024 2024 2024 2024 2024 2024 2024 
2024 2024 2024 2024 2024 2024 2024 2024 2024 
2024 2024 2024 2024 2024 2024 2024 2024 2024 
2024 2024 2024 2024 2024 2024 2024 2024 2024 
2024 2024 2024 2024 2024 2024 2024 2024 2024 
2024 2024 2024 2024 2024 2024 2024 2024 2024 
2024 2024 2024 2024 2024 2024 2024 2024 2024 
2024 2024 2024 2024 2024 2024 2024 2024 2024 
2024 2024 2024 2024 2024 2024 2024 2024 2024 
2024 2024 2024 2024 2024 2024 2024 2024 2024 
2024 2024 2024 2024 2024 2024 2024 2024 2024 
2024 2024 2024 2024 2024 2024 2024 2024 2024 
2024 2024 2024 2024 2024 2024 2024 2024 2024 
2024 2024 2024 2024 2024 2024 2024 2024 2024 
2024 2024 2024 2024 2024 2024 2024 2024 2024 
2024 2024 2024 2024 2024 2024 2024 2024 2024 
2024 2024 2024 2024 2024 2024 2024 2024 2024 
2024 2024 2024 2024 2024 2024 2024 2024 2024 
2024 2024 2024 2024 2024 2024 2024 2024 2024 
2024 2024 2024 2024 2024 2024 2024 2024 2024 
2024 2024 2024 2024 2024 2024 2024 2024 2024 
2024 2024 2024 2024 2024 2024 2024 2024 2024 
2024 2024 2024 2024 2024 2024 2024 2024 2024 
2024 2024 2024 2024 2024 2024 2024 2024 2024 
2024 2024 2024 2024 2024 2024 2024 2024 2024 
2024 2024 2024 2024 2024 2024 2024 2024 2024 
2024 2024 2024 2024 2024 2024 2024 2024 2024 
2024 2024 2024 2024 2024 2024 2024 2024 2024 
2024 2024 2024 2024 2024 2024 2024 2024 2024 
2024 2024 2024 2024 2024 2024 2024 2024 2024 
2024 2024 2024 2024 2024 2024 2024 2024 2024 
2024 2024 2024 2024 2024 2024 2024 2024 2024 
2024 2024 2024 2024 2024 2024 2024 2024 2024 
2024 2024 2024 2024 2024 2024 2024 2024 2024 
2024 2024 2024 2024 2024 2024 2024 2024 2024 
2024 2024 2024 2024 2024 2024 2024 2024 2024 
2024 2024 2024 2024 2024 2024 2024 2024 2024 
2024 2024 2024 2024 2024 2024 2024 2024 2024 
2024 2024 2024 2024 2024 2024 2024 2024 2024 
2024 2024 2024 2024 2024 2024 2024 2024 2024 
2024 2024 2024 2024 2024 2024 2024 2024 2024 
2024 2024 2024 2024 2024 2024 2024 2024 2024 
2024 2024 2024 2024 2024 2024 2024 2024 2024 
2024 2024 2024 2024 2024 2024 2024 2024 2024 
2024 2024 2024 2024 2024 2024 2024 2024 2024 
2024 2024 2024 2024 2024 2024 2024 2024 2024 
2024 2024 2024 2024 2024 2024 2024 2024 2024 
2024 2024 2024 2024 2024 2024 2024 2024 2024 
2024 2024 2024 2024 2024 2024 2024 2024 2024 
2024 2024 2024 2024 2024 2024 2024 2024 2024 
2024 2024 2024 2024 2024 2024 2024 2024 2024 
2024 2024 2024 2024 2024 2024 2024 2024 2024 
2024 2024 2024 2024 2024 2024 2024 2024 2024 
2024 2024 2024 2024 2024 2024 2024 2024 2024 
2024 2024 2024 2024 2024 2024 2024 2024 2024 
2024 2024 2024 2024 2024 2024 2024 2024 2024 
2024 2024 2024 2024 2024 2024 2024 2024 2024 
2024 2024 2024 2024 2024 2024 2024 2024 2024 
2024 2024 2024 2024 2024 2024 2024 2024 2024 
2024 2024 2024 2024 2024 2024 2024 2024 2024 
2024 2024 2024 2024 2024 2024 2024 2024 2024 
2024 2024 2024 2024 2024 2024 2024 2024 2024 
2024 2024 2024 2024 2024 2024 2024 2024 2024 
2024 2024 2024 2024 2024 2024 2024 2024 2024 
2024 2024 2024 2024 2024 2024 2024 2024 2024 
2024 2024 2024 2024 2024 2024 2024 2024 2024 
2024 2024 2024 2024 2024 2024 2024 2024 2024 
2024 2024 2024 2024 2024 2024 2024 2024 2024 
2024 2024 2024 2024 2024 2024 2024 2024 2024 
2024 2024 2024 2024 2024 2024 2024 2024 2024 
2024 2024 2024 2024 2024 2024 2024 2024 2024 
2024 2024 2024 2024 2024 2024 2024 2024 2024 
2024 2024 2024 2024 2024 2024 2024 2024 2024 
2024 2024 2024 2024 2024 2024 2024 2024 2024 
2024 2024 2024 2024 2024 2024 2024 2024 2024 
2024 2024 2024 2024 2024 2024 2024 2024 2024 
2024 2024 2024 2024 2024 2024 2024 2024 2024 
2024 2024 2024 2024 2024 2024 2024 2024 2024 
2024 2024 2024 2024 2024 2024 2024 2024 2024 
2024 2024 2024 2024 2024 2024 2024 2024 2024 
2024 2024 2024 2024 2024 2024 2024 2024 2024 
2024 2024 2024 2024 2024 2024 2024 2024 2024 
2024 2024 2024 2024 2024 2024 2024 2024 2024 
2024 2024 2024 2024 2024 2024 2024 2024 2024 
2024 2024 2024 2024 2024 2024 2024 2024 2024 
2024 2024 2024 2024 2024 2024 2024 2024 2024 
2024 2024 2024 2024 2024 2024 2024 2024 2024 
2024 2024 2024 2024 2024 2024 2024 2024 2024 
2024 2024 2024 2024 2024 2024 2024 2024 2024 
2024 2024 2024 2024 2024 2024 2024 2024 2024 
2024 2024 2024 2024 2024 2024 2024 2024 2024 
2024 2024 2024 2024 2024 2024 2024 2024 2024 
2024 2024 2024 2024 2024 2024 2024 2024 2024 
2024 2024 2024 2024 2024 2024 2024 2024 2024 
2024 2024 2024 2024 2024 2024 2024 2024 2024 
2024 2024 2024 2024 2024 2024 2024 2024 2024 
2024 2024 2024 2024 2024 2024 2024 2024 2024 
2024 2024 2024 2024 2024 2024 2024 2024 2024 
2024 2024 2024 2024 2024 2024 2024 2024 2024 
2024 2024 2024 2024 2024 2024 2024 2024 2024 
2024 2024 2024 2024 2024 2024 2024 2024 2024 
2024 2024 2024 2024 2024 2024 2024 2024 2024 
2024 2024 2024 2024 2024 2024 2024 2024 2024 
2024 2024 2024 2024 2024 2024 2024 2024 2024 
2024 2024 2024 2024 2024 2024 2024 2024 2024 
2024 2024 2024 2024 2024 2024 2024 2024 2024 
2024 2024 2024 2024 2024 2024 2024 2024 2024 
2024 2024 2024 2024 2024 2024 2024 2024 2024 
2024 2024 2024 2024 2024 2024 2024 2024 2024 
2024 2024 2024 2024 2024 2024 2024 2024 2024 
2024 2024 2024 2024 2024 2024 2024 2024 2024 
2024 2024 2024 2024 2024 2024 2024 2024 2024 
2024 2024 2024 2024 2024 2024 2024 2024 2024 
2024 2024 2024 2024 2024 2024 2024 2024 2024 
2024 2024 2024 2024 2024 2024 2024 2024 2024 
2024 2024 2024 2024 2024 2024 2024 2024 2024 
2024 2024 2024 2024 2024 2024 2024 2024 2024 
2024 2024 2024 2024 2024 2024 2024 2024 2024 
2024 2024 2024 2024 2024 2024 2024 2024 2024 
2024 2024 2024 2024 2024 2024 2024 2024 2024 
2024 2024 2024 2024 2024 2024 2024 2024 2024 
2024 2024 2024 2024 2024 2024 2024 2024 2024 
2024 2024 2024 2024 2024 2024 2024 2024 2024 
2024 2024 2024 2024 2024 2024 2024 2024 2024 
2024 2024 2024 2024 2024 2024 2024 2024 2024 
2024 2024 2024 2024 2024 2024 2024 2024 2024 
2024 2024 2024 2024 2024 2024 2024 2024 2024 
2024 2024 2024 2024 2024 2024 2024 2024 2024 
2024 2024 2024 2024 2024 2024 2024 2024 2024 
2024 2024 2024 2024 2024 2024 2024 2024 2024 
2024 2024 2024 2024 2024 2024 2024 2024 2024 
2024 2024 2024 2024 2024 2024 2024 2024 2024 
2024 2024 2024 2024 2024 2024 2024 2024 2024 
2024 2024 2024 2024 2024 2024 2024 2024 2024 
2024 2024 2024 2024 2024 2024 2024 2024 2024 
2024 2024 2024 2024 2024 2024 2024 2024 2024 
2024 2024 2024 2024 2024 2024 2024 2024 2024 
2024 2024 2024 2024 2024 2024 2024 2024 2024 
2024 2024 2024 2024 2024 2024 2024 2024 2024 
2024 2024 2024 2024 2024 2024 2024 2024 2024 
2024 2024 2024 2024 2024 2024 2024 2024 2024 
2024 2024 2024 2024 2024 2024 2024 2024 2024 
2024 2024 2024 2024 2024 2024 2024 2024 2024 
2024 2024 2024 2024 2024 2024 2024 2024 2024 
2024 2024 2024 2024 2024 2024 2024 2024 2024 
2024 2024 2024 2024 2024 2024 2024 2024 2024 
2024 2024 2024 2024 2024 2024 2024 2024 2024 
2024 2024 2024 2024 2024 2024 2024 2024 2024 
2024 2024 2024 2024 2024 2024 2024 2024 2024 
2024 2024 2024 2024 2024 2024 2024 2024 2024 
2024 2024 2024 2024 2024 2024 2024 2024 2024 
2024 2024 2024 2024 2024 2024 2024 2024 2024 
2024 2024 2024 2024 2024 2024 2024 2024 2024 
2024 2024 2024 2024 2024 2024 2024 2024 2024 
2024 2024 2024 2024 2024 2024 2024 2024 2024 
2024 2024 2024 2024 2024 2024 2024 2024 2024 
2024 2024 2024 2024 2024 2024 2024 2024 2024 
2024 2024 2024 2024 2024 2024 2024 2024 2024 
2024 2024 2024 2024 2024 2024 2024 2024 2024 
2024 2024 2024 2024 2024 2024 2024 2024 2024 
2024 2024 2024 2024 2024 2024 2024 2024 2024 
2024 2024 2024 2024 2024 2024 2024 2024 2024 
2024 2024 2024 2024 2024 2024 2024 2024 2024 
2024 2024 2024 2024 2024 2024 2024 2024 2024 
2024 2024 2024 2024 2024 2024 2024 2024 2024 
2024 2024 2024 2024 2024 2024 2024 2024 2024 
2024 2024 2024 2024 2024 2024 2024 2024 2024 
2024 2024 2024 2024 2024 2024 2024 2024 2024 
2024 2024 2024 2024 2024 2024 2024 2024 2024 
2024 2024 2024 2024 2024 2024 2024 2024 2024 
2024 2024 2024 2024 2024 2024 2024 2024 2024 
2024 2024 2024 2024 2024 2024 2024 2024 2024 
2024 2024 2024 2024 2024 2024 2024 2024 2024 
2024 2024 2024 2024 2024 2024 2024 2024 2024 
2024 2024 2024 2024 2024 2024 2024 2024 2024 
2024 2024 2024 2024 2024 2024 2024 2024 2024 
2024 2024 2024 2024 2024 2024 2024 2024 2024 
2024 2024 2024 2024 2024 2024 2024 2024 2024 
2024 2024 2024 2024 2024 2024 2024 2024 2024 
2024 2024 2024 2024 2024 2024 2024 2024 2024 
2024 2024 2024 2024 2024 2024 2024 2024 2024 
2024 2024 2024 2024 2024 2024 2024 2024 2024 
2024 2024 2024 2024 2024 2024 2024 2024 2024 
2024 2024 2024 2024 2024 2024 2024 2024 2024 
2024 2024 2024 2024 2024 2024 2024 2024 2024 
2024 2024 2024 2024 2024 2024 2024 2024 2024 
2024 2024 2024 2024 2024 2024 2024 2024 2024 
2024 2024 2024 2024 2024 2024 2024 2024 2024 
2024 2024 2024 2024 2024 2024 2024 2024 2024 
2024 2024 2024 2024 2024 2024 2024 2024 2024 
2024 2024 2024 2024 2024 2024 2024 2024 2024 
2024 2024 2024 2024 2024 2024 2024 2024 2024 
2024 2024 2024 2024 2024 2024 2024 2024 2024 
2024 2024 2024 2024 2024 2024 2024 2024 2024 
2024 2024 2024 2024 2024 2024 2024 2024 2024 
2024 2024 2024 2024 2024 2024 2024 2024 2024 
2024 2024 2024 2024 2024 2024 2024 2024 2024 
2024 2024 2024 2024 2024 2024 2024 2024 2024 
2024 2024 2024 2024 2024 2024 2024 2024 2024 
2024 2024 2024 2024 2024 2024 2024 2024 2024 
2024 2024 2024 2024 2024 2024 2024 2024 2024 
2024 2024 2024 2024 2024 2024 2024 2024 2024 
2024 2024 2024 2024 2024 2024 2024 2024 2024 
2024 2024 2024 2024 2024 2024 2024 2024 2024 
2024 2024 2024 2024 2024 2024 2024 2024 2024 
2024 2024 2024 2024 2024 2024 2024 2024 2024 
2024 2024 2024 2024 2024 2024 2024 2024 2024 
2024 2024 2024 2024 2024 2024 2024 2024 2024 
2024 2024 2024 2024 2024 2024 2024 2024 2024 
2024 2024 2024 2024 2024 2024 2024 2024 2024 
2024 2024 2024 2024 2024 2024 2024 2024 2024 
2024 2024 2024 2024 2024 2024 2024 2024 2024 
2024 2024 2024 2024 2024 2024 2024 2024 2024 
2024 2024 2024 2024 2024 2024 2024 2024 2024 
2024 2024 2024 2024 2024 2024 2024 2024 2024 
2024 2024 2024 2024 2024 2024 2024 2024 2024 
2024 2024 2024 2024 2024 2024 2024 2024 2024 
2024 2024 2024 2024 2024 2024 2024 2024 2024 
2024 2024 2024 2024 2024 2024 2024 2024 2024 
2024 2024 2024 2024 2024 2024 2024 2024 2024 
2024 2024 2024 2024 2024 2024 2024 2024 2024 
2024 2024 2024 2024 2024 2024 2024 2024 2024 
2024 2024 2024 2024 2024 2024 2024 2024 2024 
2024 2024 2024 2024 2024 2024 2024 2024 2024 
2024 2024 2024 2024 2024 2024 2024 2024 2024 
2024 2024 2024 2024 2024 2024 2024 2024 2024 
2024 2024 2024 2024 2024 2024 2024 2024 2024 
2024 2024 2024 2024 2024 2024 2024 2024 2024 
2024 2024 2024 2024 2024 2024 2024 2024 2024 
2024 2024 2024 2024 2024 2024 2024 2024 2024 
2024 2024 2024 2024 2024 2024 2024 2024 2024 
2024 2024 2024 2024 2024 2024 2024 2024 2024 
2024 2024 2024 2024 2024 2024 2024 2024 2024 
2024 2024 2024 2024 2024 2024 2024 2024 2024 
2024 2024 2024 2024 2024 2024 2024 2024 2024 
2024 2024 2024 2024 2024 2024 2024 2024 2024 
2024 2024 2024 2024 2024 2024 2024 2024 2024 
2024 2024 2024 2024 2024 2024 2024 2024 2024 
2024 2024 2024 2024 2024 2024 2024 2024 2024 
2024 2024 2024 2024 2024 2024 2024 2024 2024 
2024 2024 2024 2024 2024 2024 2024 2024 2024 
2024 2024 2024 2024 2024 2024 2024 2024 2024 
2024 2024 2024 2024 2024 2024 2024 2024 2024 
2024 2024 2024 2024 2024 2024 2024 2024 2024 
2024 2024 2024 2024 2024 2024 2024 2024 2024 
2024 2024 2024 2024 2024 2024 2024 2024 2024 
2024 2024 2024 2024 2024 2024 2024 2024 2024 
2024 2024 2024 2024 2024 2024 2024 2024 2024 
2024 2024 2024 2024 2024 2024 2024 2024 2024 
2024 2024 2024 2024 2024 2024 2024 2024 2024 
2024 2024 2024 2024 2024 2024 2024 2024 2024 
2024 2024 2024 2024 2024 2024 2024 2024 2024 
2024 2024 2024 2024 2024 2024 2024 2024 2024 
2024 2024 2024 2024 2024 2024 2024 2024 2024 
2024 2024 2024 2024 2024 2024 2024 2024 2024 
2024 2024 2024 2024 2024 2024 2024 2024 2024 
2024 2024 2024 2024 2024 2024 2024 2024 2024 
2024 2024 2024 2024 2024 2024 2024 2024 2024 
2024 2024 2024 2024 2024 2024 2024 2024 2024 
2024 2024 2024 2024 2024 2024 2024 2024 2024 
2024 2024 2024 2024 2024 2024 2024 2024 2024 
2024 2024 2024 2024 2024 2024 2024 2024 2024 
2024 2024 2024 2024 2024 2024 2024 2024 2024 
2024 2024 2024 2024 2024 2024 2024 2024 2024 
2024 2024 2024 2024 2024 2024 2024 2024 2024 
2024 2024 2024 2024 2024 2024 2024 2024 2024 
2024 2024 2024 2024 2024 2024 2024 2024 2024 
2024 2024 2024 2024 2024 2024 2024 2024 2024 
2024 2024 2024 2024 2024 2024 2024 2024 2024 
2024 2024 2024 2024 2024 2024 2024 2024 2024 
2024 2024 2024 2024 2024 2024 2024 2024 2024 
2024 2024 2024 2024 2024 2024 2024 2024 2024 
2024 2024 2024 2024 2024 2024 2024 2024 2024 
2024 2024 2024 2024 2024 2024 2024 2024 2024 
2024 2024 2024 2024 2024 2024 2024 2024 2024 
2024 2024 2024 2024 2024 2024 2024 2024 2024 
2024 2024 2024 2024 2024 2024 2024 2024 2024 
2024 2024 2024 2024 2024 2024 2024 2024 2024 
2024 2024 2024 2024 2024 2024 2024 2024 2024 
2024 2024 2024 2024 2024 2024 2024 2024 2024 
2024 2024 2024 2024 2024 2024 2024 2024 2024 
2024 2024 2024 2024 2024 2024 2024 2024 2024 
2024 2024 2024 2024 2024 2024 2024 2024 2024 
2024 2024 2024 2024 2024 2024 2024 2024 2024 
2024 2024 2024 2024 2024 2024 2024 2024 2024 
2024 2024 2024 2024 2024 2024 2024 2024 2024 
2024 2024 2024 2024 2024 2024 2024 2024 2024 
2024 2024 2024 2024 2024 2024 2024 2024 2024 
2024 2024 2024 2024 2024 2024 2024 2024 2024 
2024 2024 2024 2024 2024 2024 2024 2024 2024 
2024 2024 2024 2024 2024 2024 2024 2024 2024 
2024 2024 2024 2024 2024 2024 2024 2024 2024 
2024 2024 2024 2024 2024 2024 2024 2024 2024 
2024 2024 2024 2024 2024 2024 2024 2024 2024 
2024 2024 2024 2024 2024 2024 2024 2024 2024 
2024 2024 2024 2024 2024 2024 2024 2024 2024 
2024 2024 2024 2024 2024 2024 2024 2024 2024 
2024 2024 2024 2024 2024 2024 2024 2024 2024 
2024 2024 2024 2024 2024 2024 2024 2024 2024 
2024 2024 2024 2024 2024 2024 2024 2024 2024 
2024 2024 2024 2024 2024 2024 2024 2024 2024 
2024 2024 2024 2024 2024 2024 2024 2024 2024 
2024 2024 2024 2024 2024 2024 2024 2024 2024 
2024 2024 2024 2024 2024 2024 2024 2024 2024 
2024 2024 2024 2024 2024 2024 2024 2024 2024 
2024 2024 2024 2024 2024 2024 2024 2024 2024 
2024 2024 2024 2024 2024 2024 2024 2024 2024 
2024 2024 2024 2024 2024 2024 2024 2024 2024 
2024 2024 2024 2024 2024 2024 2024 2024 2024 
2024 2024 2024 2024 2024 2024 2024 2024 2024 
2024 2024 2024 2024 2024 2024 2024 2024 2024 
2024 2024 2024 2024 2024 2024 2024 2024 2024 
2024 2024 2024 2024 2024 2024 2024 2024 2024 
2024 2024 2024 2024 2024 2024 2024 2024 2024 
2024 2024 2024 2024 2024 2024 2024 2024 2024 
2024 2024 2024 2024 2024 2024 2024 2024 2024 
2024 2024 2024 2024 2024 2024 2024 2024 2024 
2024 2024 2024 2024 2024 2024 2024 2024 2024 
2024 2024 2024 2024 2024 2024 2024 2024 2024 
2024 2024 2024 2024 2024 2024 2024 2024 2024 
2024 2024 2024 2024 2024 2024 2024 2024 2024 
2024 2024 2024 2024 2024 2024 2024 2024 2024 
2024 2024 2024 2024 2024 2024 2024 2024 2024 
2024 2024 2024 2024 2024 2024 2024 2024 2024 
2024 2024 2024 2024 2024 2024 2024 2024 2024 
2024 2024 2024 2024 2024 2024 2024 2024 2024 
2024 2024 2024 2024 2024 2024 2024 2024 2024 
2024 2024 2024 2024 2024 2024 2024 2024 2024 
2024 2024 2024 2024 2024 2024 2024 2024 2024 
2024 2024 2024 2024 2024 2024 2024 2024 2024 
2024 2024 2024 2024 2024 2024 2024 2024 2024 
2024 2024 2024 2024 2024 2024 2024 2024 2024 
2024 2024 2024 2024 2024 2024 2024 2024 2024 
2024 2024 2024 2024 2024 2024 2024 2024 2024 
2024 2024 2024 2024 2024 2024 2024 2024 2024 
2024 2024 2024 2024 2024 2024 2024 2024 2024 
2024 2024 2024 2024 2024 2024 2024 2024 2024 
2024 2024 2024 2024 2024 2024 2024 2024 2024 
2024 2024 2024 2024 2024 2024 2024 2024 2024 
2024 2024 2024 2024 2024 2024 2024 2024 2024 
2024 2024 2024 2024 2024 2024 2024 2024 2024 
2024 2024 2024 2024 2024 2024 2024 2024 2024 
2024 2024 2024 2024 2024 2024 2024 2024 2024 
2024 2024 2024 2024 2024 2024 2024 2024 2024 
2024 2024 2024 2024 2024 2024 2024 2024 2024 
2024 2024 2024 2024 2024 2024 2024 2024 2024 
2024 2024 2024 2024 2024 2024 2024 2024 2024 
2024 2024 2024 2024 2024 2024 2024 2024 2024 
2024 2024 2024 2024 2024 2024 2024 2024 2024 
2024 2024 2024 2024 2024 2024 2024 2024 2024 
2024 2024 2024 2024 2024 2024 2024 2024 2024 
2024 2024 2024 2024 2024 2024 2024 2024 2024 
2024 2024 2024 2024 2024 2024 2024 2024 2024 
2024 2024 2024 2024 2024 2024 2024 2024 2024 
2024 2024 2024 2024 2024 2024 2024 2024 2024 
2024 2024 2024 2024 2024 2024 2024 2024 2024 
2024 2024 2024 2024 2024 2024 2024 2024 2024 
2024 2024 2024 2024 2024 2024 2024 2024 2024 
2024 2024 2024 2024 2024 2024 2024 2024 2024 
2024 2024 2024 2024 2024 2024 2024 2024 2024 
2024 2024 2024 2024 2024 2024 2024 2024 2024 
2024 2024 2024 2024 2024 2024 2024 2024 2024 
2024 2024 2024 2024 2024 2024 2024 2024 2024 
2024 2024 2024 2024 2024 2024 2024 2024 2024 
2024 2024 2024 2024 2024 2024 2024 2024 2024 
2024 2024 2024 2024 2024 2024 2024 2024 2024 
2024 2024 2024 2024 2024 2024 2024 2024 2024 
2024 2024 2024 2024 2024 2024 2024 2024 2024 
2024 2024 2024 2024 2024 2024 2024 2024 2024 
2024 2024 2024 2024 2024 2024 2024 2024 2024 
2024 2024 2024 2024 2024 2024 2024 2024 2024 
2024 2024 2024 2024 2024 2024 2024 2024 2024 