# vtk DataFile Version 4.2
vtk output
ASCII
DATASET POLYDATA
POINTS 10010 float
31.9459 54.877 40.3444 32.346 54.2045 40.8638 32.7201 54.5731 40.2008 
31.2515 54.853 40.3113 31.3214 54.4199 40.8419 30.7152 54.4054 40.5361 
32.4553 54.988 39.4684 32.9997 54.6762 39.4495 31.6319 54.9323 39.4303 
30.802 54.5779 39.8205 33.0574 54.81 38.737 33.4102 54.3978 39.0835 
33.5813 54.2175 38.3025 32.3882 54.8892 38.5872 31.7146 54.6568 38.5706 
31.1103 54.5306 39.0266 32.9605 54.3684 37.9808 32.1171 54.2898 38.119 
33.1463 54.0084 40.5141 33.2554 53.5697 40.8871 33.7585 53.5173 40.2115 
32.4627 53.5281 41.1742 31.5243 53.6542 41.1681 30.0259 53.9933 40.1674 
30.347 53.4678 41.0201 29.5854 53.3848 40.5614 33.3368 54.1254 39.8241 
33.8509 53.6805 39.2132 30.3958 54.1907 39.2278 29.3216 53.5977 40.0487 
29.5471 53.8039 39.308 28.9483 53.1767 39.586 33.98 53.5464 38.2947 
31.181 54.1828 38.4774 30.3309 53.8449 38.5671 29.7995 53.6031 38.6084 
29.434 53.2187 38.7864 33.3232 53.9701 37.3282 33.6945 53.5831 37.3271 
32.9102 53.6304 37.3907 32.4327 53.5123 37.7799 31.4415 53.4195 38.1442 
30.474 53.4458 38.3177 33.3866 53.7123 36.6107 33.4497 53.3559 36.5113 
33.0864 53.4642 36.7135 33.2785 53.4843 36.2755 34.1117 52.7696 41.5348 
34.3585 52.2851 41.7884 34.6045 52.5324 41.2839 33.2188 53.0237 41.4168 
33.6224 52.3434 42.0294 32.0188 53.0308 41.5023 32.5613 52.5264 41.9894 
30.9844 52.9863 41.4996 31.4983 52.4925 41.9763 30.3333 52.8536 41.506 
30.5367 52.4515 41.9177 29.8706 52.5444 41.5668 34.1525 53.0039 40.8008 
34.8549 52.4084 40.4178 29.1295 53.091 40.3348 29.4216 52.7615 40.9356 
28.8847 52.3789 40.5463 34.3448 52.9889 39.7576 34.8594 52.4986 39.2442 
28.5841 52.3294 39.6365 34.3455 53.0176 38.7292 34.8378 52.5362 38.191 
30.9526 52.9247 38.4706 31.5677 52.3181 38.2692 31.1068 52.3948 38.66 
30.3655 52.7204 38.6894 30.1504 53.208 38.5434 29.227 52.8623 38.4313 
29.7916 52.5343 38.4302 28.7677 52.723 38.7347 34.2243 52.965 37.5983 
34.7425 52.5763 37.2671 32.7463 52.8376 37.2117 32.1045 52.5236 37.7957 
29.0984 52.2476 38.1204 34.273 52.6461 36.6626 34.6057 52.328 36.6817 
33.4566 52.4574 36.8387 34.0359 52.4957 36.3618 33.1857 53.0915 36.5246 
34.3151 52.4857 36.2821 33.001 51.9605 42.5 33.3065 51.2982 42.7549 
33.6479 51.6183 42.4522 32.0424 52.0145 42.49 32.5933 51.3314 42.9823 
30.999 51.9747 42.4768 31.5671 51.5058 42.9935 29.9406 51.9429 42.3164 
30.5459 51.4919 43.0061 29.2103 51.7065 42.2681 29.5909 51.4646 42.9491 
28.9129 51.3916 42.5781 34.2115 51.4185 42.0383 34.833 51.8022 41.3492 
29.2716 52.0996 41.5567 28.7289 51.5696 41.5881 35.2607 51.839 40.6089 
35.3062 51.1627 40.9435 35.5612 51.4825 40.2891 28.5225 51.6265 40.5166 
35.3297 51.9981 39.7813 35.6945 51.4152 39.499 28.2945 51.6583 39.8283 
28.2297 51.9902 39.059 27.9433 51.2201 39.6132 35.3468 52.0091 38.7544 
35.8604 51.283 38.3458 31.2778 52.0403 38.5077 30.6852 52.0885 38.5019 
28.379 52.0973 38.362 27.9216 51.3922 38.6939 35.1855 51.9687 37.5452 
35.6735 51.2213 37.2528 32.425 52.0204 37.3594 31.8965 51.4952 37.7396 
31.2039 51.444 38.2005 30.0265 51.5956 38.062 29.0635 51.3788 37.8646 
28.3535 51.489 38.0684 35.0951 51.4697 36.9548 34.2336 51.7273 36.7573 
34.1636 52.2704 36.4442 33.0411 51.2677 36.7674 32.3963 51.3583 37.1326 
31.1405 50.8311 44.2682 31.2933 50.511 44.8686 31.8532 50.5168 44.4852 
30.0084 50.8579 44.3911 30.601 50.4979 45.006 28.9719 50.874 44.3701 
29.5692 50.5206 45.0603 28.2335 50.7805 44.2705 28.5832 50.5383 44.9694 
27.893 50.482 44.5695 32.0297 50.9511 43.6422 32.4261 50.395 44.05 
32.7157 50.4549 43.5332 31.1613 51.1597 43.5006 30.287 51.1299 43.6434 
29.1801 51.1171 43.4636 28.3469 50.8782 43.4837 27.7477 50.4366 43.6002 
33.2016 50.3769 42.974 33.7712 50.7715 42.4989 28.3764 50.9775 42.381 
27.9181 50.5092 42.6789 34.2468 50.2152 41.9785 34.7754 50.7355 41.5171 
28.2446 50.9653 41.2013 27.9008 50.3304 41.7516 35.4364 50.1656 40.9947 
35.7893 50.7017 40.2861 28.1772 51.1366 40.3636 27.8764 50.4294 40.5783 
36.0231 50.7849 39.3323 27.7368 50.454 39.455 36.2324 50.7954 38.6657 
36.3721 50.3549 39.1038 36.5636 50.1984 38.3716 31.1629 50.7391 38.4077 
31.7134 50.5771 38.2972 31.1077 50.2332 38.941 30.7384 50.3651 38.5534 
27.85 50.5098 38.5558 36.2758 50.7128 38.0894 36.0606 50.4798 37.3526 
32.0399 50.7159 37.4718 30.5118 50.7858 38.1438 29.3732 50.376 37.779 
28.376 50.5178 38.0063 35.2134 50.987 36.4403 35.7021 50.4334 36.5627 
34.5073 51.2042 36.4288 33.6265 50.9478 36.2191 32.8689 50.4109 36.6226 
32.4338 50.5361 37.0896 35.0919 50.347 35.8926 34.5614 50.3425 35.4183 
34.4424 50.7759 35.7217 33.8823 50.5979 35.5203 33.4299 50.1848 35.9385 
34.2713 50.5273 35.2525 30.1362 49.8304 46.2833 30.2712 49.5036 46.9255 
30.8289 49.5053 46.5138 29.0743 49.7711 46.265 29.6513 49.4773 46.9484 
28.8738 49.4208 46.6937 31.2249 50.0239 45.4524 31.4121 49.3559 46.0504 
31.8308 49.3627 45.4678 30.1731 50.1803 45.5476 29.2583 50.1438 45.6588 
28.3086 49.5818 46.1671 28.078 50.0453 45.4249 27.2217 49.8151 45.1913 
27.5426 49.5384 45.8905 26.9378 49.2554 45.6447 32.1639 49.9562 44.7146 
32.2964 49.1595 44.9084 32.6224 49.7139 44.1908 27.3491 50.0463 44.3503 
26.8679 49.4213 44.7187 32.8892 49.4788 43.5965 27.34 49.8692 43.3872 
26.7914 49.2342 43.6096 33.2333 49.1859 42.936 33.7361 49.7057 42.428 
27.5959 49.8368 42.5433 27.2119 49.3715 42.8924 34.4023 49.1498 41.9017 
34.8186 49.7509 41.4764 27.6762 49.4659 41.3887 36.0984 49.9293 40.4844 
36.2142 49.4939 40.8415 36.7092 49.4889 40.1536 35.5081 49.4668 41.2127 
27.7449 49.6122 40.3097 36.2927 50.0851 39.8163 36.7991 49.6583 39.1984 
31.4851 49.9361 39.2892 31.806 49.5356 39.4296 31.1839 49.2102 39.8212 
30.7558 49.5294 39.5672 27.7334 49.4687 39.4397 36.8841 49.3178 38.2322 
32.121 49.8872 38.7235 32.5502 49.5045 38.2621 32.3049 49.2089 38.9688 
30.4451 49.7752 38.9669 30.1257 50.0492 38.2534 29.9446 49.2715 38.6622 
27.8873 49.4432 38.5648 36.4071 50.1458 37.6361 36.6125 49.4007 37.3712 
32.2835 50.0852 37.7921 32.6391 49.5821 37.408 29.6366 49.4104 37.6379 
29.3132 49.8258 37.3804 28.9629 49.6072 37.4437 28.3872 49.3671 37.8864 
36.0609 49.386 36.9117 35.8034 49.7513 36.6345 32.6976 49.4502 36.6134 
29.2105 49.3244 37.2078 35.3745 49.7594 36.1805 34.3303 49.6358 35.8691 
34.1229 50.2723 35.4025 33.0125 49.2974 36.042 29.1496 48.7894 48.2038 
29.3946 48.1893 48.8441 29.8944 48.6091 48.3898 28.6827 48.3847 48.6534 
30.1991 49.0339 47.4944 30.331 48.5575 48.0483 30.8162 48.4868 47.5514 
29.0976 49.1498 47.3225 28.178 48.3263 48.1674 28.1704 48.8504 47.3905 
27.6511 48.3596 47.5918 31.1421 48.9254 46.7583 31.3625 48.3001 47.0618 
31.6474 48.552 46.322 28.1892 49.2316 46.6345 27.3806 48.5879 47.057 
27.3873 49.0277 46.4754 26.8927 48.3861 46.5414 31.9835 48.5253 45.6039 
26.6271 48.4834 45.5203 32.3098 48.3384 45.1403 32.6309 48.5808 44.4228 
26.5725 48.6882 44.5045 32.9194 48.4757 43.561 26.1696 48.4373 43.9673 
26.2855 48.7867 43.4572 25.7643 48.2266 43.3466 37.1336 48.7975 42.2645 
37.4262 48.4462 42.8722 37.9117 48.5761 42.3634 36.059 48.7524 42.1994 
36.6358 48.4602 42.9372 35.8498 48.383 42.6253 33.3453 48.413 42.9033 
33.7888 48.743 42.3829 27.2985 49.0653 42.1697 26.8084 48.7823 42.6116 
26.2968 48.5551 42.9803 37.9959 48.8198 41.5476 38.5216 48.4503 41.927 
38.8 48.5083 41.1386 37.2952 48.9896 41.5324 36.3875 49.086 41.4781 
35.168 48.5951 42.0485 35.2952 49.0837 41.6303 34.4684 48.4309 42.1277 
27.393 48.7749 41.4377 26.8166 48.2965 41.6079 38.1957 48.8694 40.4603 
38.8463 48.5255 40.1933 37.2559 49.1054 40.7746 27.6473 48.6481 40.4578 
27.258 48.2753 40.974 38.209 48.8034 39.5401 38.7362 48.513 39.5628 
37.4479 49.1348 39.7415 31.7444 48.8026 39.5712 31.0864 48.2664 39.9122 
30.4626 48.6925 39.8584 30.1693 49.1206 39.4026 29.9608 48.4452 39.3766 
27.767 48.6033 39.3377 38.3906 48.3915 38.9878 37.674 48.4351 38.3145 
37.446 48.9547 38.8053 32.786 48.5493 38.2425 32.4755 48.2572 39.0193 
29.8075 48.4998 38.4488 27.8729 48.3061 38.4845 37.1713 48.6711 38.0391 
36.9048 48.4741 37.2999 32.5884 48.5028 37.3415 29.7001 48.2604 37.5084 
28.7206 48.8474 37.3633 28.2018 48.3852 37.7334 36.3688 48.9358 36.5878 
36.5788 48.4277 36.552 35.9901 48.6077 36.5215 35.3151 48.3604 36.796 
35.1749 49.1236 36.5122 34.5589 48.477 36.7301 34.2447 48.8265 36.3483 
33.8532 48.1446 36.4526 32.2674 48.5568 36.7908 32.3157 48.9043 36.3659 
31.9938 48.2151 36.4967 29.1338 48.4801 37.0945 36.2426 48.3014 36.2631 
33.304 48.5233 36.0341 32.3167 48.3836 36.1124 30.3761 48.1269 48.3901 
30.2388 47.2947 48.9112 30.8861 47.5802 48.3957 29.1006 47.3625 49.0775 
28.2459 48.045 48.5912 28.5116 47.7392 48.8788 27.8596 47.3456 48.4847 
31.1154 47.903 47.7794 31.2883 47.481 48.0197 31.6786 47.5699 47.2831 
27.1692 48.0902 47.3234 27.4319 47.6957 47.8831 26.9289 47.416 47.3593 
31.9657 47.7256 46.2452 26.5608 47.4246 46.606 32.1638 47.835 45.6131 
32.3935 47.3273 45.8716 32.6404 47.5673 45.1165 26.328 47.6626 45.8889 
26.2893 47.9687 45.1272 25.9785 47.2056 45.689 37.1412 47.8363 44.3108 
37.2352 47.5267 44.9531 37.8034 47.5045 44.5282 36.0598 47.856 44.352 
36.5921 47.5231 45.065 35.0853 47.7556 44.1882 35.6561 47.502 44.9454 
34.8713 47.4077 44.5996 32.9109 47.6812 44.2029 26.2749 48.1524 44.5334 
25.7631 47.4715 44.7214 38.2098 47.8329 43.5714 38.3451 47.506 44.0153 
38.8419 47.4991 43.4782 37.3321 48.1427 43.3998 36.2443 48.1019 43.4419 
35.2221 47.9644 43.4397 34.3208 47.5027 44.0913 34.2201 47.7828 43.5425 
33.3416 47.8969 43.4003 33.5606 47.4111 43.9879 25.2584 47.8336 43.4582 
25.4396 47.7986 43.8996 24.9557 47.195 43.6068 39.0715 47.8118 42.6829 
39.3499 47.5114 42.913 39.7308 47.4697 42.2719 38.2913 48.1865 42.6543 
35.1951 48.1621 42.5881 34.1625 48.1069 42.7402 26.2955 48.1152 42.1836 
25.7731 47.8203 42.5689 25.2443 47.5449 42.9801 39.1976 48.0286 41.7545 
39.8721 47.5349 41.2074 26.2907 47.8816 41.5841 25.7837 47.3278 41.5564 
39.3711 48.032 40.7157 39.8411 47.326 40.1996 27.3919 47.8723 40.3931 
26.8147 47.4549 40.5237 26.287 47.482 41.0103 39.2116 48.0004 39.7171 
[...]
CELL_DATA 20052
SCALARS scalars float
LOOKUP_TABLE default
2003 2003 2003 2003 2003 2003 2003 2003 2003 
2003 2003 2003 2003 2003 2003 2003 2003 2003 
2003 2003 2003 2003 2003 2003 2003 2003 2003 
2003 2003 2003 2003 2003 2003 2003 2003 2003 
2003 2003 2003 2003 2003 2003 2003 2003 2003 
2003 2003 2003 2003 2003 2003 2003 2003 2003 
2003 2003 2003 2003 2003 2003 2003 2003 2003 
2003 2003 2003 2003 2003 2003 2003 2003 2003 
2003 2003 2003 2003 2003 2003 2003 2003 2003 
2003 2003 2003 2003 2003 2003 2003 2003 2003 
2003 2003 2003 2003 2003 2003 2003 2003 2003 
2003 2003 2003 2003 2003 2003 2003 2003 2003 
2003 2003 2003 2003 2003 2003 2003 2003 2003 
2003 2003 2003 2003 2003 2003 2003 2003 2003 
2003 2003 2003 2003 2003 2003 2003 2003 2003 
2003 2003 2003 2003 2003 2003 2003 2003 2003 
2003 2003 2003 2003 2003 2003 2003 2003 2003 
2003 2003 2003 2003 2003 2003 2003 2003 2003 
2003 2003 2003 2003 2003 2003 2003 2003 2003 
2003 2003 2003 2003 2003 2003 2003 2003 2003 
2003 2003 2003 2003 2003 2003 2003 2003 2003 
2003 2003 2003 2003 2003 2003 2003 2003 2003 
2003 2003 2003 2003 2003 2003 2003 2003 2003 
2003 2003 2003 2003 2003 2003 2003 2003 2003 
2003 2003 2003 2003 2003 2003 2003 2003 2003 
2003 2003 2003 2003 2003 2003 2003 2003 2003 
2003 2003 2003 2003 2003 2003 2003 2003 2003 
2003 2003 2003 2003 2003 2003 2003 2003 2003 
2003 2003 2003 2003 2003 2003 2003 2003 2003 
2003 2003 2003 2003 2003 2003 2003 2003 2003 
2003 2003 2003 2003 2003 2003 2003 2003 2003 
2003 2003 2003 2003 2003 2003 2003 2003 2003 
2003 2003 2003 2003 2003 2003 2003 2003 2003 
2003 2003 2003 2003 2003 2003 2003 2003 2003 
2003 2003 2003 2003 2003 2003 2003 2003 2003 
2003 2003 2003 2003 2003 2003 2003 2003 2003 
2003 2003 2003 2003 2003 2003 2003 2003 2003 
2003 2003 2003 2003 2003 2003 2003 2003 2003 
2003 2003 2003 2003 2003 2003 2003 2003 2003 
2003 2003 2003 2003 2003 2003 2003 2003 2003 
2003 2003 2003 2003 2003 2003 2003 2003 2003 
2003 2003 2003 2003 2003 2003 2003 2003 2003 
2003 2003 2003 2003 2003 2003 2003 2003 2003 
2003 2003 2003 2003 2003 2003 2003 2003 2003 
2003 2003 2003 2003 2003 2003 2003 2003 2003 
2003 2003 2003 2003 2003 2003 2003 2003 2003 
2003 2003 2003 2003 2003 2003 2003 2003 2003 
2003 2003 2003 2003 2003 2003 2003 2003 2003 
2003 2003 2003 2003 2003 2003 2003 2003 2003 
2003 2003 2003 2003 2003 2003 2003 2003 2003 
2003 2003 2003 2003 2003 2003 2003 2003 2003 
2003 2003 2003 2003 2003 2003 2003 2003 2003 
2003 2003 2003 2003 2003 2003 2003 2003 2003 
2003 2003 2003 2003 2003 2003 2003 2003 2003 
2003 2003 2003 2003 2003 2003 2003 2003 2003 
2003 2003 2003 2003 2003 2003 2003 2003 2003 
2003 2003 2003 2003 2003 2003 2003 2003 2003 
2003 2003 2003 2003 2003 2003 2003 2003 2003 
2003 2003 2003 2003 2003 2003 2003 2003 2003 
2003 2003 2003 2003 2003 2003 2003 2003 2003 
2003 2003 2003 2003 2003 2003 2003 2003 2003 
2003 2003 2003 2003 2003 2003 2003 2003 2003 
2003 2003 2003 2003 2003 2003 2003 2003 2003 
2003 2003 2003 2003 2003 2003 2003 2003 2003 
2003 2003 2003 2003 2003 2003 2003 2003 2003 
2003 2003 2003 2003 2003 2003 2003 2003 2003 
2003 2003 2003 2003 2003 2003 2003 2003 2003 
2003 2003 2003 2003 2003 2003 2003 2003 2003 
2003 2003 2003 2003 2003 2003 2003 2003 2003 
2003 2003 2003 2003 2003 2003 2003 2003 2003 
2003 2003 2003 2003 2003 2003 2003 2003 2003 
2003 2003 2003 2003 2003 2003 2003 2003 2003 
2003 2003 2003 2003 2003 2003 2003 2003 2003 
2003 2003 2003 2003 2003 2003 2003 2003 2003 
2003 2003 2003 2003 2003 2003 2003 2003 2003 
2003 2003 2003 2003 2003 2003 2003 2003 2003 
2003 2003 2003 2003 2003 2003 2003 2003 2003 
2003 2003 2003 2003 2003 2003 2003 2003 2003 
2003 2003 2003 2003 2003 2003 2003 2003 2003 
2003 2003 2003 2003 2003 2003 2003 2003 2003 
2003 2003 2003 2003 2003 2003 2003 2003 2003 
2003 2003 2003 2003 2003 2003 2003 2003 2003 
2003 2003 2003 2003 2003 2003 2003 2003 2003 
2003 2003 2003 2003 2003 2003 2003 2003 2003 
2003 2003 2003 2003 2003 2003 2003 2003 2003 
2003 2003 2003 2003 2003 2003 2003 2003 2003 
2003 2003 2003 2003 2003 2003 2003 2003 2003 
2003 2003 2003 2003 2003 2003 2003 2003 2003 
2003 2003 2003 2003 2003 2003 2003 2003 2003 
2003 2003 2003 2003 2003 2003 2003 2003 2003 
2003 2003 2003 2003 2003 2003 2003 2003 2003 
2003 2003 2003 2003 2003 2003 2003 2003 2003 
2003 2003 2003 2003 2003 2003 2003 2003 2003 
2003 2003 2003 2003 2003 2003 2003 2003 2003 
2003 2003 2003 2003 2003 2003 2003 2003 2003 
2003 2003 2003 2003 2003 2003 2003 2003 2003 
2003 2003 2003 2003 2003 2003 2003 2003 2003 
2003 2003 2003 2003 2003 2003 2003 2003 2003 
2003 2003 2003 2003 2003 2003 2003 2003 2003 
2003 2003 2003 2003 2003 2003 2003 2003 2003 
2003 2003 2003 2003 2003 2003 2003 2003 2003 
2003 2003 2003 2003 2003 2003 2003 2003 2003 
2003 2003 2003 2003 2003 2003 2003 2003 2003 
2003 2003 2003 2003 2003 2003 2003 2003 2003 
2003 2003 2003 2003 2003 2003 2003 2003 2003 
2003 2003 2003 2003 2003 2003 2003 2003 2003 
2003 2003 2003 2003 2003 2003 2003 2003 2003 
2003 2003 2003 2003 2003 2003 2003 2003 2003 
2003 2003 2003 2003 2003 2003 2003 2003 2003 
2003 2003 2003 2003 2003 2003 2003 2003 2003 
2003 2003 2003 2003 2003 2003 2003 2003 2003 
2003 2003 2003 2003 2003 2003 2003 2003 2003 
2003 2003 2003 2003 2003 2003 2003 2003 2003 
2003 2003 2003 2003 2003 2003 2003 2003 2003 
2003 2003 2003 2003 2003 2003 2003 2003 2003 
2003 2003 2003 2003 2003 2003 2003 2003 2003 
2003 2003 2003 2003 2003 2003 2003 2003 2003 
2003 2003 2003 2003 2003 2003 2003 2003 2003 
2003 2003 2003 2003 2003 2003 2003 2003 2003 
2003 2003 2003 2003 2003 2003 2003 2003 2003 
2003 2003 2003 2003 2003 2003 2003 2003 2003 
2003 2003 2003 2003 2003 2003 2003 2003 2003 
2003 2003 2003 2003 2003 2003 2003 2003 2003 
2003 2003 2003 2003 2003 2003 2003 2003 2003 
2003 2003 2003 2003 2003 2003 2003 2003 2003 
2003 2003 2003 2003 2003 2003 2003 2003 2003 
2003 2003 2003 2003 2003 2003 2003 2003 2003 
2003 2003 2003 2003 2003 2003 2003 2003 2003 
2003 2003 2003 2003 2003 2003 2003 2003 2003 
2003 2003 2003 2003 2003 2003 2003 2003 2003 
2003 2003 2003 2003 2003 2003 2003 2003 2003 
2003 2003 2003 2003 2003 2003 2003 2003 2003 
2003 2003 2003 2003 2003 2003 2003 2003 2003 
2003 2003 2003 2003 2003 2003 2003 2003 2003 
2003 2003 2003 2003 2003 2003 2003 2003 2003 
2003 2003 2003 2003 2003 2003 2003 2003 2003 
2003 2003 2003 2003 2003 2003 2003 2003 2003 
2003 2003 2003 2003 2003 2003 2003 2003 2003 
2003 2003 2003 2003 2003 2003 2003 2003 2003 
2003 2003 2003 2003 2003 2003 2003 2003 2003 
2003 2003 2003 2003 2003 2003 2003 2003 2003 
2003 2003 2003 2003 2003 2003 2003 2003 2003 
2003 2003 2003 2003 2003 2003 2003 2003 2003 
2003 2003 2003 2003 2003 2003 2003 2003 2003 
2003 2003 2003 2003 2003 2003 2003 2003 2003 
2003 2003 2003 2003 2003 2003 2003 2003 2003 
2003 2003 2003 2003 2003 2003 2003 2003 2003 
2003 2003 2003 2003 2003 2003 2003 2003 2003 
2003 2003 2003 2003 2003 2003 2003 2003 2003 
2003 2003 2003 2003 2003 2003 2003 2003 2003 
2003 2003 2003 2003 2003 2003 2003 2003 2003 
2003 2003 2003 2003 2003 2003 2003 2003 2003 
2003 2003 2003 2003 2003 2003 2003 2003 2003 
2003 2003 2003 2003 2003 2003 2003 2003 2003 
2003 2003 2003 2003 2003 2003 2003 2003 2003 
2003 2003 2003 2003 2003 2003 2003 2003 2003 
2003 2003 2003 2003 2003 2003 2003 2003 2003 
2003 2003 2003 2003 2003 2003 2003 2003 2003 
2003 2003 2003 2003 2003 2003 2003 2003 2003 
2003 2003 2003 2003 2003 2003 2003 2003 2003 
2003 2003 2003 2003 2003 2003 2003 2003 2003 
2003 2003 2003 2003 2003 2003 2003 2003 2003 
2003 2003 2003 2003 2003 2003 2003 2003 2003 
2003 2003 2003 2003 2003 2003 2003 2003 2003 
2003 2003 2003 2003 2003 2003 2003 2003 2003 
2003 2003 2003 2003 2003 2003 2003 2003 2003 
2003 2003 2003 2003 2003 2003 2003 2003 2003 
2003 2003 2003 2003 2003 2003 2003 2003 2003 
2003 2003 2003 2003 2003 2003 2003 2003 2003 
2003 2003 2003 2003 2003 2003 2003 2003 2003 
2003 2003 2003 2003 2003 2003 2003 2003 2003 
2003 2003 2003 2003 2003 2003 2003 2003 2003 
2003 2003 2003 2003 2003 2003 2003 2003 2003 
2003 2003 2003 2003 2003 2003 2003 2003 2003 
2003 2003 2003 2003 2003 2003 2003 2003 2003 
2003 2003 2003 2003 2003 2003 2003 2003 2003 
2003 2003 2003 2003 2003 2003 2003 2003 2003 
2003 2003 2003 2003 2003 2003 2003 2003 2003 
2003 2003 2003 2003 2003 2003 2003 2003 2003 
2003 2003 2003 2003 2003 2003 2003 2003 2003 
2003 2003 2003 2003 2003 2003 2003 2003 2003 
2003 2003 2003 2003 2003 2003 2003 2003 2003 
2003 2003 2003 2003 2003 2003 2003 2003 2003 
2003 2003 2003 2003 2003 2003 2003 2003 2003 
2003 2003 2003 2003 2003 2003 2003 2003 2003 
2003 2003 2003 2003 2003 2003 2003 2003 2003 
2003 2003 2003 2003 2003 2003 2003 2003 2003 
2003 2003 2003 2003 2003 2003 2003 2003 2003 
2003 2003 2003 2003 2003 2003 2003 2003 2003 
2003 2003 2003 2003 2003 2003 2003 2003 2003 
2003 2003 2003 2003 2003 2003 2003 2003 2003 
2003 2003 2003 2003 2003 2003 2003 2003 2003 
2003 2003 2003 2003 2003 2003 2003 2003 2003 
2003 2003 2003 2003 2003 2003 2003 2003 2003 
2003 2003 2003 2003 2003 2003 2003 2003 2003 
2003 2003 2003 2003 2003 2003 2003 2003 2003 
2003 2003 2003 2003 2003 2003 2003 2003 2003 
2003 2003 2003 2003 2003 2003 2003 2003 2003 
2003 2003 2003 2003 2003 2003 2003 2003 2003 
2003 2003 2003 2003 2003 2003 2003 2003 2003 
2003 2003 2003 2003 2003 2003 2003 2003 2003 
2003 2003 2003 2003 2003 2003 2003 2003 2003 
2003 2003 2003 2003 2003 2003 2003 2003 2003 
2003 2003 2003 2003 2003 2003 2003 2003 2003 
2003 2003 2003 2003 2003 2003 2003 2003 2003 
2003 2003 2003 2003 2003 2003 2003 2003 2003 
2003 2003 2003 2003 2003 2003 2003 2003 2003 
2003 2003 2003 2003 2003 2003 2003 2003 2003 
2003 2003 2003 2003 2003 2003 2003 2003 2003 
2003 2003 2003 2003 2003 2003 2003 2003 2003 
2003 2003 2003 2003 2003 2003 2003 2003 2003 
2003 2003 2003 2003 2003 2003 2003 2003 2003 
2003 2003 2003 2003 2003 2003 2003 2003 2003 
2003 2003 2003 2003 2003 2003 2003 2003 2003 
2003 2003 2003 2003 2003 2003 2003 2003 2003 
2003 2003 2003 2003 2003 2003 2003 2003 2003 
2003 2003 2003 2003 2003 2003 2003 2003 2003 
2003 2003 2003 2003 2003 2003 2003 2003 2003 
2003 2003 2003 2003 2003 2003 2003 2003 2003 
2003 2003 2003 2003 2003 2003 2003 2003 2003 
2003 2003 2003 2003 2003 2003 2003 2003 2003 
2003 2003 2003 2003 2003 2003 2003 2003 2003 
2003 2003 2003 2003 2003 2003 2003 2003 2003 
2003 2003 2003 2003 2003 2003 2003 2003 2003 
2003 2003 2003 2003 2003 2003 2003 2003 2003 
2003 2003 2003 2003 2003 2003 2003 2003 2003 
2003 2003 2003 2003 2003 2003 2003 2003 2003 
2003 2003 2003 2003 2003 2003 2003 2003 2003 
2003 2003 2003 2003 2003 2003 2003 2003 2003 
2003 2003 2003 2003 2003 2003 2003 2003 2003 
2003 2003 2003 2003 2003 2003 2003 2003 2003 
2003 2003 2003 2003 2003 2003 2003 2003 2003 
2003 2003 2003 2003 2003 2003 2003 2003 2003 
2003 2003 2003 2003 2003 2003 2003 2003 2003 
2003 2003 2003 2003 2003 2003 2003 2003 2003 
2003 2003 2003 2003 2003 2003 2003 2003 2003 
2003 2003 2003 2003 2003 2003 2003 2003 2003 
2003 2003 2003 2003 2003 2003 2003 2003 2003 
2003 2003 2003 2003 2003 2003 2003 2003 2003 
2003 2003 2003 2003 2003 2003 2003 2003 2003 
2003 2003 2003 2003 2003 2003 2003 2003 2003 
2003 2003 2003 2003 2003 2003 2003 2003 2003 
2003 2003 2003 2003 2003 2003 2003 2003 2003 
2003 2003 2003 2003 2003 2003 2003 2003 2003 
2003 2003 2003 2003 2003 2003 2003 2003 2003 
2003 2003 2003 2003 2003 2003 2003 2003 2003 
2003 2003 2003 2003 2003 2003 2003 2003 2003 
2003 2003 2003 2003 2003 2003 2003 2003 2003 
2003 2003 2003 2003 2003 2003 2003 2003 2003 
2003 2003 2003 2003 2003 2003 2003 2003 2003 
2003 2003 2003 2003 2003 2003 2003 2003 2003 
2003 2003 2003 2003 2003 2003 2003 2003 2003 
2003 2003 2003 2003 2003 2003 2003 2003 2003 
2003 2003 2003 2003 2003 2003 2003 2003 2003 
2003 2003 2003 2003 2003 2003 2003 2003 2003 
2003 2003 2003 2003 2003 2003 2003 2003 2003 
2003 2003 2003 2003 2003 2003 2003 2003 2003 
2003 2003 2003 2003 2003 2003 2003 2003 2003 
2003 2003 2003 2003 2003 2003 2003 2003 2003 
2003 2003 2003 2003 2003 2003 2003 2003 2003 
2003 2003 2003 2003 2003 2003 2003 2003 2003 
2003 2003 2003 2003 2003 2003 2003 2003 2003 
2003 2003 2003 2003 2003 2003 2003 2003 2003 
2003 2003 2003 2003 2003 2003 2003 2003 2003 
2003 2003 2003 2003 2003 2003 2003 2003 2003 
2003 2003 2003 2003 2003 2003 2003 2003 2003 
2003 2003 2003 2003 2003 2003 2003 2003 2003 
2003 2003 2003 2003 2003 2003 2003 2003 2003 
2003 2003 2003 2003 2003 2003 2003 2003 2003 
2003 2003 2003 2003 2003 2003 2003 2003 2003 
2003 2003 2003 2003 2003 2003 2003 2003 2003 
2003 2003 2003 2003 2003 2003 2003 2003 2003 
2003 2003 2003 2003 2003 2003 2003 2003 2003 
2003 2003 2003 2003 2003 2003 2003 2003 2003 
2003 2003 2003 2003 2003 2003 2003 2003 2003 
2003 2003 2003 2003 2003 2003 2003 2003 2003 
2003 2003 2003 2003 2003 2003 2003 2003 2003 
2003 2003 2003 2003 2003 2003 2003 2003 2003 
2003 2003 2003 2003 2003 2003 2003 2003 2003 
2003 2003 2003 2003 2003 2003 2003 2003 2003 
2003 2003 2003 2003 2003 2003 2003 2003 2003 
2003 2003 2003 2003 2003 2003 2003 2003 2003 
2003 2003 2003 2003 2003 2003 2003 2003 2003 
2003 2003 2003 2003 2003 2003 2003 2003 2003 
2003 2003 2003 2003 2003 2003 2003 2003 2003 
2003 2003 2003 2003 2003 2003 2003 2003 2003 
2003 2003 2003 2003 2003 2003 2003 2003 2003 
2003 2003 2003 2003 2003 2003 2003 2003 2003 
2003 2003 2003 2003 2003 2003 2003 2003 2003 
2003 2003 2003 2003 2003 2003 2003 2003 2003 
2003 2003 2003 2003 2003 2003 2003 2003 2003 
2003 2003 2003 2003 2003 2003 2003 2003 2003 
2003 2003 2003 2003 2003 2003 2003 2003 2003 
2003 2003 2003 2003 2003 2003 2003 2003 2003 
2003 2003 2003 2003 2003 2003 2003 2003 2003 
2003 2003 2003 2003 2003 2003 2003 2003 2003 
2003 2003 2003 2003 2003 2003 2003 2003 2003 
2003 2003 2003 2003 2003 2003 2003 2003 2003 
2003 2003 2003 2003 2003 2003 2003 2003 2003 
2003 2003 2003 2003 2003 2003 2003 2003 2003 
2003 2003 2003 2003 2003 2003 2003 2003 2003 
2003 2003 2003 2003 2003 2003 2003 2003 2003 
2003 2003 2003 2003 2003 2003 2003 2003 2003 
2003 2003 2003 2003 2003 2003 2003 2003 2003 
2003 2003 2003 2003 2003 2003 2003 2003 2003 
2003 2003 2003 2003 2003 2003 2003 2003 2003 
2003 2003 2003 2003 2003 2003 2003 2003 2003 
2003 2003 2003 2003 2003 2003 2003 2003 2003 
2003 2003 2003 2003 2003 2003 2003 2003 2003 
2003 2003 2003 2003 2003 2003 2003 2003 2003 
2003 2003 2003 2003 2003 2003 2003 2003 2003 
2003 2003 2003 2003 2003 2003 2003 2003 2003 
2003 2003 2003 2003 2003 2003 2003 2003 2003 
2003 2003 2003 2003 2003 2003 2003 2003 2003 
2003 2003 2003 2003 2003 2003 2003 2003 2003 
2003 2003 2003 2003 2003 2003 2003 2003 2003 
2003 2003 2003 2003 2003 2003 2003 2003 2003 
2003 2003 2003 2003 2003 2003 2003 2003 2003 
2003 2003 2003 2003 2003 2003 2003 2003 2003 
2003 2003 2003 2003 2003 2003 2003 2003 2003 
2003 2003 2003 2003 2003 2003 2003 2003 2003 
2003 2003 2003 2003 2003 2003 2003 2003 2003 
2003 2003 2003 2003 2003 2003 2003 2003 2003 
2003 2003 2003 2003 2003 2003 2003 2003 2003 
2003 2003 2003 2003 2003 2003 2003 2003 2003 
2003 2003 2003 2003 2003 2003 2003 2003 2003 
2003 2003 2003 2003 2003 2003 2003 2003 2003 
2003 2003 2003 2003 2003 2003 2003 2003 2003 
2003 2003 2003 2003 2003 2003 2003 2003 2003 
2003 2003 2003 2003 2003 2003 2003 2003 2003 
2003 2003 2003 2003 2003 2003 2003 2003 2003 
2003 2003 2003 2003 2003 2003 2003 2003 2003 
2003 2003 2003 2003 2003 2003 2003 2003 2003 
2003 2003 2003 2003 2003 2003 2003 2003 2003 
2003 2003 2003 2003 2003 2003 2003 2003 2003 
2003 2003 2003 2003 2003 2003 2003 2003 2003 
2003 2003 2003 2003 2003 2003 2003 2003 2003 
2003 2003 2003 2003 2003 2003 2003 2003 2003 
2003 2003 2003 2003 2003 2003 2003 2003 2003 
2003 2003 2003 2003 2003 2003 2003 2003 2003 
2003 2003 2003 2003 2003 2003 2003 2003 2003 
2003 2003 2003 2003 2003 2003 2003 2003 2003 
2003 2003 2003 2003 2003 2003 2003 2003 2003 
2003 2003 2003 2003 2003 2003 2003 2003 2003 
2003 2003 2003 2003 2003 2003 2003 2003 2003 
2003 2003 2003 2003 2003 2003 2003 2003 2003 
2003 2003 2003 2003 2003 2003 2003 2003 2003 
2003 2003 2003 2003 2003 2003 2003 2003 2003 
2003 2003 2003 2003 2003 2003 2003 2003 2003 
2003 2003 2003 2003 2003 2003 2003 2003 2003 
2003 2003 2003 2003 2003 2003 2003 2003 2003 
2003 2003 2003 2003 2003 2003 2003 2003 2003 
2003 2003 2003 2003 2003 2003 2003 2003 2003 
2003 2003 2003 2003 2003 2003 2003 2003 2003 
2003 2003 2003 2003 2003 2003 2003 2003 2003 
2003 2003 2003 2003 2003 2003 2003 2003 2003 
2003 2003 2003 2003 2003 2003 2003 2003 2003 
2003 2003 2003 2003 2003 2003 2003 2003 2003 
2003 2003 2003 2003 2003 2003 2003 2003 2003 
2003 2003 2003 2003 2003 2003 2003 2003 2003 
2003 2003 2003 2003 2003 2003 2003 2003 2003 
2003 2003 2003 2003 2003 2003 2003 2003 2003 
2003 2003 2003 2003 2003 2003 2003 2003 2003 
2003 2003 2003 2003 2003 2003 2003 2003 2003 
2003 2003 2003 2003 2003 2003 2003 2003 2003 
2003 2003 2003 2003 2003 2003 2003 2003 2003 
2003 2003 2003 2003 2003 2003 2003 2003 2003 
2003 2003 2003 2003 2003 2003 2003 2003 2003 
2003 2003 2003 2003 2003 2003 2003 2003 2003 
2003 2003 2003 2003 2003 2003 2003 2003 2003 
2003 2003 2003 2003 2003 2003 2003 2003 2003 
2003 2003 2003 2003 2003 2003 2003 2003 2003 
2003 2003 2003 2003 2003 2003 2003 2003 2003 
2003 2003 2003 2003 2003 2003 2003 2003 2003 
2003 2003 2003 2003 2003 2003 2003 2003 2003 
2003 2003 2003 2003 2003 2003 2003 2003 2003 
2003 2003 2003 2003 2003 2003 2003 2003 2003 
2003 2003 2003 2003 2003 2003 2003 2003 2003 
2003 2003 2003 2003 2003 2003 2003 2003 2003 
2003 2003 2003 2003 2003 2003 2003 2003 2003 
2003 2003 2003 2003 2003 2003 2003 2003 2003 
2003 2003 2003 2003 2003 2003 2003 2003 2003 
2003 2003 2003 2003 2003 2003 2003 2003 2003 
2003 2003 2003 2003 2003 2003 2003 2003 2003 
2003 2003 2003 2003 2003 2003 2003 2003 2003 
2003 2003 2003 2003 2003 2003 2003 2003 2003 
2003 2003 2003 2003 2003 2003 2003 2003 2003 
2003 2003 2003 2003 2003 2003 2003 2003 2003 
2003 2003 2003 2003 2003 2003 2003 2003 2003 
2003 2003 2003 2003 2003 2003 2003 2003 2003 
2003 2003 2003 2003 2003 2003 2003 2003 2003 
2003 2003 2003 2003 2003 2003 2003 2003 2003 
2003 2003 2003 2003 2003 2003 2003 2003 2003 
2003 2003 2003 2003 2003 2003 2003 2003 2003 
2003 2003 2003 2003 2003 2003 2003 2003 2003 
2003 2003 2003 2003 2003 2003 2003 2003 2003 
2003 2003 2003 2003 2003 2003 2003 2003 2003 
2003 2003 2003 2003 2003 2003 2003 2003 2003 
2003 2003 2003 2003 2003 2003 2003 2003 2003 
2003 2003 2003 2003 2003 2003 2003 2003 2003 
2003 2003 2003 2003 2003 2003 2003 2003 2003 
2003 2003 2003 2003 2003 2003 2003 2003 2003 
2003 2003 2003 2003 2003 2003 2003 2003 2003 
2003 2003 2003 2003 2003 2003 2003 2003 2003 
2003 2003 2003 2003 2003 2003 2003 2003 2003 
2003 2003 2003 2003 2003 2003 2003 2003 2003 
2003 2003 2003 2003 2003 2003 2003 2003 2003 
2003 2003 2003 2003 2003 2003 2003 2003 2003 
2003 2003 2003 2003 2003 2003 2003 2003 2003 
2003 2003 2003 2003 2003 2003 2003 2003 2003 
2003 2003 2003 2003 2003 2003 2003 2003 2003 
2003 2003 2003 2003 2003 2003 2003 2003 2003 
2003 2003 2003 2003 2003 2003 2003 2003 2003 
2003 2003 2003 2003 2003 2003 2003 2003 2003 
2003 2003 2003 2003 2003 2003 2003 2003 2003 
2003 2003 2003 2003 2003 2003 2003 2003 2003 
2003 2003 2003 2003 2003 2003 2003 2003 2003 
2003 2003 2003 2003 2003 2003 2003 2003 2003 
2003 2003 2003 2003 2003 2003 2003 2003 2003 
2003 2003 2003 2003 2003 2003 2003 2003 2003 
2003 2003 2003 2003 2003 2003 2003 2003 2003 
2003 2003 2003 2003 2003 2003 2003 2003 2003 
2003 2003 2003 2003 2003 2003 2003 2003 2003 
2003 2003 2003 2003 2003 2003 2003 2003 2003 
2003 2003 2003 2003 2003 2003 2003 2003 2003 
2003 2003 2003 2003 2003 2003 2003 2003 2003 
2003 2003 2003 2003 2003 2003 2003 2003 2003 
2003 2003 2003 2003 2003 2003 2003 2003 2003 
2003 2003 2003 2003 2003 2003 2003 2003 2003 
2003 2003 2003 2003 2003 2003 2003 2003 2003 
2003 2003 2003 2003 2003 2003 2003 2003 2003 
2003 2003 2003 2003 2003 2003 2003 2003 2003 
2003 2003 2003 2003 2003 2003 2003 2003 2003 