# vtk DataFile Version 4.2
vtk output
ASCII
DATASET POLYDATA
POINTS 3052 float
-17.2008 -35.8864 -9.08528 -17.2531 -35.4944 -9.23669 -16.9311 -35.6847 -9.22649 
-17.4247 -35.5469 -9.40968 -16.7608 -36.2072 -9.05241 -16.599 -35.9847 -9.22928 
-16.3536 -36.4224 -9.2811 -17.0612 -36.4356 -9.05821 -17.363 -36.1153 -9.27642 
-16.6427 -36.7373 -9.11828 -16.3708 -36.9903 -9.28336 -17.0027 -36.7202 -9.3797 
-17.2124 -36.4945 -9.23529 -16.6885 -37.0858 -9.29563 -17.2524 -37.3889 -9.24037 
-17.0456 -37.592 -9.36497 -17.2878 -37.5269 -9.1919 -17.3953 -37.3656 -9.41509 
-17.322 -37.6358 -9.39181 -17.1635 -35.2508 -9.5528 -17.2435 -34.8783 -9.86732 
-16.9171 -35.0783 -9.86442 -17.4731 -35.0681 -9.93375 -16.585 -35.6892 -9.55308 
-16.5781 -35.3895 -9.86667 -16.2726 -35.6831 -9.8763 -17.4635 -35.7495 -9.91927 
-16.0905 -36.1971 -9.65168 -15.9479 -35.9531 -9.97397 -15.804 -36.3617 -9.94514 
-17.276 -36.1457 -9.99714 -17.2362 -36.3001 -9.57463 -17.1202 -36.3978 -9.81191 
-15.9743 -36.9352 -9.54624 -15.5995 -36.8696 -9.88556 -17.1758 -36.6605 -9.79565 
-17.1005 -37.1389 -9.4649 -17.4215 -36.8645 -9.95502 -14.9007 -37.4674 -9.72031 
-14.7514 -37.366 -9.95917 -14.6133 -37.6622 -9.9802 -15.4007 -37.4019 -9.66154 
-15.1815 -37.1652 -9.93833 -15.9791 -37.6057 -9.63177 -16.5174 -37.3872 -9.43999 
-17.4397 -37.4414 -9.82767 -14.9579 -37.7734 -9.82328 -15.5435 -37.8444 -9.83515 
-16.1882 -37.9709 -9.99303 -16.4312 -38.1491 -9.87792 -16.573 -37.9568 -9.68565 
-17.1319 -37.8196 -9.69964 -16.8562 -38.0586 -9.90854 -16.5971 -38.2113 -9.8768 
-17.833 -34.065 -10.2983 -17.6828 -33.7337 -10.6203 -17.5105 -33.9605 -10.4023 
-18.02 -33.8783 -10.587 -17.3411 -34.5327 -10.1821 -17.2406 -34.1485 -10.4445 
-16.9175 -34.4626 -10.4751 -17.8094 -34.411 -10.2603 -18.0433 -34.28 -10.5086 
-16.5983 -35.0887 -10.1756 -16.5605 -34.7486 -10.5873 -16.3086 -35.1006 -10.5858 
-17.7537 -34.7423 -10.5059 -17.5736 -35.2184 -10.3729 -16.1111 -35.5506 -10.23 
-16.0155 -35.4528 -10.6924 -15.8195 -35.8836 -10.3601 -17.5307 -35.5682 -10.5894 
-15.6101 -36.3529 -10.3984 -17.2719 -36.3798 -10.0763 -17.4724 -36.187 -10.4411 
-15.4478 -36.8098 -10.2003 -15.3983 -36.5504 -10.5862 -15.2119 -36.8599 -10.5095 
-17.4812 -36.954 -10.4723 -14.7786 -37.2115 -10.5397 -14.5301 -37.5101 -10.2868 
-17.1783 -37.6316 -10.1708 -16.9361 -37.6236 -10.491 -17.2443 -37.2686 -10.6996 
-14.7579 -37.9981 -10.1492 -14.5799 -37.8763 -10.4996 -15.312 -38.1945 -10.1528 
-15.9115 -38.2183 -10.1669 -16.2724 -38.145 -10.4327 -16.5678 -37.8612 -10.5917 
-16.6556 -37.9941 -10.1114 -14.9526 -38.2068 -10.5112 -15.5582 -38.5407 -10.6358 
-15.8884 -38.7651 -10.4827 -15.8613 -38.6011 -10.3398 -16.1598 -38.5283 -10.5047 
-16.0417 -38.7984 -10.4743 -6.99826 -33.9403 -10.9576 -6.87015 -33.7058 -11.1418 
-6.88506 -33.9962 -11.1685 -7.14015 -33.7427 -11.1816 -17.1835 -33.9589 -10.7051 
-17.1721 -33.6592 -11.1593 -16.8489 -33.9514 -11.0624 -17.7539 -33.568 -11.1016 
-18.1553 -33.8855 -11.0692 -7.06227 -34.0298 -11.1735 -16.7186 -34.3192 -10.8379 
-16.5596 -34.1286 -11.2125 -16.4096 -34.5715 -11.0736 -18.0765 -34.4121 -11.0475 
-16.1985 -35.0421 -11.0745 -17.6214 -35.1605 -10.9374 -17.8458 -34.7895 -11.239 
-15.924 -35.3883 -11.1102 -15.6748 -35.8014 -10.8979 -17.6095 -35.7075 -11.2084 
-15.452 -36.2039 -10.8587 -15.3767 -35.9409 -11.2071 -15.2398 -36.3839 -11.0897 
-17.5391 -36.3873 -11.0028 -15.081 -36.8445 -11.1012 -17.4221 -36.8363 -11.0683 
-14.3569 -37.5556 -10.808 -14.2305 -37.3129 -11.2059 -13.9379 -37.536 -11.2001 
-14.8304 -37.1221 -11.2004 -16.938 -37.4337 -11.053 -17.1957 -37.1066 -11.1601 
-14.1594 -37.6869 -11.2496 -14.5947 -37.8964 -11.054 -14.7907 -38.0801 -10.7801 
-14.9891 -38.299 -10.8945 -16.3317 -38.2297 -10.9323 -16.641 -37.7934 -11.2719 
-14.8116 -38.4136 -11.0542 -14.6215 -38.6607 -11.191 -14.9147 -38.6274 -10.9454 
-15.2731 -38.7086 -10.8818 -15.6393 -38.7104 -11.0353 -15.9807 -38.4881 -11.1837 
-16.0266 -38.6465 -10.703 -14.9222 -38.9489 -11.2026 -15.4076 -38.9059 -11.1935 
-6.57448 -33.3366 -11.4984 -6.53949 -33.1279 -11.837 -6.29259 -33.254 -11.6626 
-6.99633 -33.3784 -11.3416 -6.97425 -33.0757 -11.7546 -7.33283 -33.3507 -11.6654 
-18.0871 -33.3622 -11.4476 -17.7201 -33.0962 -11.85 -17.5916 -33.3022 -11.5854 
-18.4358 -33.2894 -11.5563 -18.2816 -33.1467 -11.7301 -18.5302 -33.2752 -11.675 
-6.33672 -33.434 -11.6439 -6.65777 -33.8384 -11.7303 -7.32688 -33.8224 -11.5773 
-16.6898 -33.8285 -11.3763 -16.7544 -33.6094 -11.6196 -16.3764 -34.0013 -11.6543 
-17.1756 -33.4284 -11.6053 -18.375 -33.4814 -11.634 -18.2243 -33.9494 -11.6616 
-7.0363 -34.105 -11.5639 -7.44895 -34.408 -11.7273 -7.82021 -34.547 -11.5254 
-7.67543 -34.2605 -11.6682 -8.23161 -34.659 -11.4973 -8.03395 -34.2535 -11.652 
-8.41499 -34.3803 -11.8035 -16.1884 -34.6215 -11.5358 -18.0904 -34.4298 -11.6862 
-7.53549 -34.8276 -11.7349 -7.94496 -35.2407 -11.6828 -8.07395 -34.9909 -11.504 
-8.3973 -35.0033 -11.7469 -15.5636 -35.0907 -11.5677 -15.4705 -34.8702 -11.722 
-15.183 -35.2049 -11.7317 -15.9364 -35.0868 -11.4179 -15.8136 -34.7534 -11.7089 
-17.6693 -35.2464 -11.6764 -17.8641 -34.7997 -11.8774 -8.21702 -35.3084 -11.6297 
-8.74623 -35.6206 -11.7312 -8.59593 -35.789 -11.7351 -8.85058 -35.7282 -11.5994 
-8.94281 -35.6559 -11.7976 -15.5234 -35.494 -11.3831 -15.1061 -35.8832 -11.6115 
-17.7963 -35.5351 -11.6466 -17.8105 -35.7627 -11.5882 -17.91 -35.6742 -11.7401 
-8.80391 -35.8514 -11.8515 -15.0641 -36.499 -11.6367 -17.5486 -36.2317 -11.5774 
-17.8452 -35.8531 -11.7319 -15.014 -36.9225 -11.5763 -17.2723 -36.8059 -11.464 
-17.0285 -36.9815 -11.6762 -17.2034 -36.5663 -11.8326 -13.662 -37.4713 -11.4287 
-13.6092 -37.3013 -11.6398 -13.368 -37.4821 -11.6749 -14.1316 -37.1464 -11.6998 
-14.664 -37.0978 -11.6395 -16.8188 -37.4152 -11.6838 -13.6485 -37.7177 -11.695 
-14.3168 -37.8945 -11.5383 -14.641 -38.2107 -11.3033 -14.3745 -38.1773 -11.6464 
-16.3479 -38.0587 -11.592 -16.6427 -37.7252 -11.6875 -14.3462 -38.5592 -11.5188 
-14.0968 -38.41 -11.8345 -14.1103 -38.7893 -11.8438 -15.7329 -38.673 -11.5454 
-16.0387 -38.3762 -11.6412 -14.4288 -38.9579 -11.6432 -14.7905 -39.079 -11.6567 
-15.216 -38.9632 -11.6957 -6.37679 -33.3683 -11.8238 -6.60752 -33.3788 -12.3028 
-6.92905 -32.9623 -12.1468 -7.79833 -33.4418 -11.9874 -7.45466 -32.9571 -12.1768 
-8.28446 -33.4422 -12.1439 -8.06596 -33.0225 -12.2984 -8.43659 -33.188 -12.4339 
-16.6608 -33.3884 -12.0221 -16.597 -33.1203 -12.4521 -16.302 -33.3812 -12.3392 
-17.2361 -33.2037 -11.9091 -17.12 -32.9524 -12.3416 -17.8864 -32.9552 -12.1949 
-18.375 -33.2176 -11.9105 -18.19 -33.274 -12.2814 -6.65577 -33.9306 -12.3026 
-7.55246 -34.0501 -11.811 -8.17278 -33.8654 -11.9306 -8.48687 -33.8303 -12.2733 
-16.0477 -33.8396 -12.089 -15.9007 -33.6067 -12.5055 -15.6597 -33.9686 -12.2693 
-18.1225 -34.006 -12.368 -7.07807 -34.403 -11.9092 -6.78181 -34.3876 -12.3925 
-8.58849 -34.4752 -12.2942 -15.4825 -34.5015 -12.0004 -15.4093 -34.1829 -12.2837 
-15.095 -34.4905 -12.29 -16.0051 -34.3312 -11.8624 -18.0742 -34.5067 -12.2172 
-7.12757 -34.8413 -12.1855 -7.57374 -35.2365 -11.9599 -7.24493 -35.2395 -12.3477 
-8.62253 -35.062 -12.2094 -14.8228 -35.0737 -12.0506 -14.767 -34.8139 -12.2773 
-14.4733 -35.114 -12.2806 -17.5371 -35.179 -12.2312 -17.7436 -34.8041 -12.4915 
-7.56164 -35.5966 -12.1168 -7.37719 -35.6581 -12.4863 -8.21659 -35.5482 -11.9096 
-8.79213 -35.4411 -12.0818 -9.01229 -35.6548 -12.1735 -14.3869 -35.6381 -12.1393 
-14.1392 -35.3804 -12.3769 -14.0333 -35.6557 -12.4311 -14.788 -35.6175 -11.9017 
-17.7142 -35.7383 -11.8777 -17.4395 -35.6548 -12.1964 -7.72863 -35.894 -12.2509 
-8.28919 -36.0404 -12.2097 -8.85328 -35.9715 -12.2489 -14.2014 -36.0585 -12.378 
-14.3904 -36.4195 -12.2858 -14.688 -36.2366 -12.0255 -17.3411 -36.1475 -12.0795 
-16.9603 -36.5214 -12.2311 -17.1196 -36.0383 -12.3737 -12.5448 -36.9117 -12.1383 
-12.4145 -36.6333 -12.2684 -12.2371 -36.8801 -12.345 -13.0522 -36.8902 -12.0872 
-12.8162 -36.5826 -12.2707 -13.6693 -36.9817 -12.0033 -13.4551 -36.5964 -12.2949 
-14.4158 -36.8144 -12.0294 -14.0555 -36.5833 -12.3134 -14.8647 -36.7815 -11.8857 
-16.8044 -37.0383 -12.1569 -12.4446 -37.2378 -12.2447 -12.705 -37.6026 -12.3183 
-13.0258 -37.3465 -11.9919 -16.5649 -37.5686 -12.0242 -16.3225 -37.4889 -12.3279 
-16.6148 -37.2041 -12.3232 -13.1649 -37.8533 -12.1933 -13.6889 -38.1814 -12.0811 
-13.3737 -38.2372 -12.3595 -14.0767 -38.0419 -11.815 -16.0372 -38.1192 -12.0024 
-15.7265 -38.1245 -12.3707 -15.9831 -37.7657 -12.389 -13.618 -38.447 -12.3239 
-13.83 -38.6847 -12.2492 -15.557 -38.5882 -12.0209 -15.1765 -38.7916 -12.1906 
-15.3342 -38.4617 -12.5025 -14.1108 -38.9819 -12.2967 -14.6767 -38.9757 -12.2479 
-7.65631 -31.6774 -12.6882 -7.52193 -31.2066 -12.925 -7.26076 -31.4514 -12.9431 
-7.84739 -31.3784 -12.8734 -7.21534 -32.0274 -12.6667 -6.98659 -31.7973 -13.0671 
-6.8346 -32.2053 -12.8608 -7.74467 -32.183 -12.5596 -8.11709 -31.752 -12.8062 
-8.15382 -32.1542 -12.6779 -8.46384 -32.0415 -13.0253 -6.96175 -32.7052 -12.5359 
-6.62802 -32.6385 -12.9557 -7.62912 -32.5782 -12.4799 -8.16565 -32.6471 -12.5258 
-8.47308 -32.655 -12.8776 -17.4225 -32.6326 -12.6445 -17.1956 -32.4507 -13.1105 
-16.9501 -32.6907 -12.8098 -17.8676 -32.7313 -12.5938 -17.6927 -32.4783 -12.9037 
-18.042 -32.7356 -12.9181 -6.48634 -33.1258 -12.7314 -6.36896 -33.026 -13.1251 
-6.27378 -33.3376 -13.045 -8.52112 -33.3187 -12.8636 -16.6811 -32.9188 -12.7469 
-16.2964 -33.1955 -12.7684 -18.1061 -33.3315 -12.8568 -6.416 -33.5184 -12.8443 
-6.59225 -33.9335 -12.8382 -8.57154 -33.9144 -12.9293 -15.374 -33.9871 -12.5272 
-15.5564 -33.6323 -12.804 -15.1264 -33.8891 -12.8808 -15.8797 -33.418 -12.8955 
-17.3245 -33.8431 -12.7737 -17.0059 -33.7764 -13.0112 -17.2742 -33.5682 -13.018 
-17.7543 -33.6034 -12.9352 -17.7569 -33.8797 -12.7042 -6.76651 -34.4384 -13.0711 
-8.73805 -34.3225 -12.8411 -8.91025 -34.7101 -12.6182 -9.03504 -34.5056 -13.0869 
-14.7872 -34.4969 -12.5833 -14.7994 -34.1776 -12.898 -14.4945 -34.4875 -12.8949 
-17.2607 -34.1711 -12.9849 -17.8412 -34.2291 -12.8083 -18.004 -34.4797 -12.721 
[...]
CELL_DATA 6100
SCALARS scalars float
LOOKUP_TABLE default
1016 1016 1016 1016 1016 1016 1016 1016 1016 
1016 1016 1016 1016 1016 1016 1016 1016 1016 
1016 1016 1016 1016 1016 1016 1016 1016 1016 
1016 1016 1016 1016 1016 1016 1016 1016 1016 
1016 1016 1016 1016 1016 1016 1016 1016 1016 
1016 1016 1016 1016 1016 1016 1016 1016 1016 
1016 1016 1016 1016 1016 1016 1016 1016 1016 
1016 1016 1016 1016 1016 1016 1016 1016 1016 
1016 1016 1016 1016 1016 1016 1016 1016 1016 
1016 1016 1016 1016 1016 1016 1016 1016 1016 
1016 1016 1016 1016 1016 1016 1016 1016 1016 
1016 1016 1016 1016 1016 1016 1016 1016 1016 
1016 1016 1016 1016 1016 1016 1016 1016 1016 
1016 1016 1016 1016 1016 1016 1016 1016 1016 
1016 1016 1016 1016 1016 1016 1016 1016 1016 
1016 1016 1016 1016 1016 1016 1016 1016 1016 
1016 1016 1016 1016 1016 1016 1016 1016 1016 
1016 1016 1016 1016 1016 1016 1016 1016 1016 
1016 1016 1016 1016 1016 1016 1016 1016 1016 
1016 1016 1016 1016 1016 1016 1016 1016 1016 
1016 1016 1016 1016 1016 1016 1016 1016 1016 
1016 1016 1016 1016 1016 1016 1016 1016 1016 
1016 1016 1016 1016 1016 1016 1016 1016 1016 
1016 1016 1016 1016 1016 1016 1016 1016 1016 
1016 1016 1016 1016 1016 1016 1016 1016 1016 
1016 1016 1016 1016 1016 1016 1016 1016 1016 
1016 1016 1016 1016 1016 1016 1016 1016 1016 
1016 1016 1016 1016 1016 1016 1016 1016 1016 
1016 1016 1016 1016 1016 1016 1016 1016 1016 
1016 1016 1016 1016 1016 1016 1016 1016 1016 
1016 1016 1016 1016 1016 1016 1016 1016 1016 
1016 1016 1016 1016 1016 1016 1016 1016 1016 
1016 1016 1016 1016 1016 1016 1016 1016 1016 
1016 1016 1016 1016 1016 1016 1016 1016 1016 
1016 1016 1016 1016 1016 1016 1016 1016 1016 
1016 1016 1016 1016 1016 1016 1016 1016 1016 
1016 1016 1016 1016 1016 1016 1016 1016 1016 
1016 1016 1016 1016 1016 1016 1016 1016 1016 
1016 1016 1016 1016 1016 1016 1016 1016 1016 
1016 1016 1016 1016 1016 1016 1016 1016 1016 
1016 1016 1016 1016 1016 1016 1016 1016 1016 
1016 1016 1016 1016 1016 1016 1016 1016 1016 
1016 1016 1016 1016 1016 1016 1016 1016 1016 
1016 1016 1016 1016 1016 1016 1016 1016 1016 
1016 1016 1016 1016 1016 1016 1016 1016 1016 
1016 1016 1016 1016 1016 1016 1016 1016 1016 
1016 1016 1016 1016 1016 1016 1016 1016 1016 
1016 1016 1016 1016 1016 1016 1016 1016 1016 
1016 1016 1016 1016 1016 1016 1016 1016 1016 
1016 1016 1016 1016 1016 1016 1016 1016 1016 
1016 1016 1016 1016 1016 1016 1016 1016 1016 
1016 1016 1016 1016 1016 1016 1016 1016 1016 
1016 1016 1016 1016 1016 1016 1016 1016 1016 
1016 1016 1016 1016 1016 1016 1016 1016 1016 
1016 1016 1016 1016 1016 1016 1016 1016 1016 
1016 1016 1016 1016 1016 1016 1016 1016 1016 
1016 1016 1016 1016 1016 1016 1016 1016 1016 
1016 1016 1016 1016 1016 1016 1016 1016 1016 
1016 1016 1016 1016 1016 1016 1016 1016 1016 
1016 1016 1016 1016 1016 1016 1016 1016 1016 
1016 1016 1016 1016 1016 1016 1016 1016 1016 
1016 1016 1016 1016 1016 1016 1016 1016 1016 
1016 1016 1016 1016 1016 1016 1016 1016 1016 
1016 1016 1016 1016 1016 1016 1016 1016 1016 
1016 1016 1016 1016 1016 1016 1016 1016 1016 
1016 1016 1016 1016 1016 1016 1016 1016 1016 
1016 1016 1016 1016 1016 1016 1016 1016 1016 
1016 1016 1016 1016 1016 1016 1016 1016 1016 
1016 1016 1016 1016 1016 1016 1016 1016 1016 
1016 1016 1016 1016 1016 1016 1016 1016 1016 
1016 1016 1016 1016 1016 1016 1016 1016 1016 
1016 1016 1016 1016 1016 1016 1016 1016 1016 
1016 1016 1016 1016 1016 1016 1016 1016 1016 
1016 1016 1016 1016 1016 1016 1016 1016 1016 
1016 1016 1016 1016 1016 1016 1016 1016 1016 
1016 1016 1016 1016 1016 1016 1016 1016 1016 
1016 1016 1016 1016 1016 1016 1016 1016 1016 
1016 1016 1016 1016 1016 1016 1016 1016 1016 
1016 1016 1016 1016 1016 1016 1016 1016 1016 
1016 1016 1016 1016 1016 1016 1016 1016 1016 
1016 1016 1016 1016 1016 1016 1016 1016 1016 
1016 1016 1016 1016 1016 1016 1016 1016 1016 
1016 1016 1016 1016 1016 1016 1016 1016 1016 
1016 1016 1016 1016 1016 1016 1016 1016 1016 
1016 1016 1016 1016 1016 1016 1016 1016 1016 
1016 1016 1016 1016 1016 1016 1016 1016 1016 
1016 1016 1016 1016 1016 1016 1016 1016 1016 
1016 1016 1016 1016 1016 1016 1016 1016 1016 
1016 1016 1016 1016 1016 1016 1016 1016 1016 
1016 1016 1016 1016 1016 1016 1016 1016 1016 
1016 1016 1016 1016 1016 1016 1016 1016 1016 
1016 1016 1016 1016 1016 1016 1016 1016 1016 
1016 1016 1016 1016 1016 1016 1016 1016 1016 
1016 1016 1016 1016 1016 1016 1016 1016 1016 
1016 1016 1016 1016 1016 1016 1016 1016 1016 
1016 1016 1016 1016 1016 1016 1016 1016 1016 
1016 1016 1016 1016 1016 1016 1016 1016 1016 
1016 1016 1016 1016 1016 1016 1016 1016 1016 
1016 1016 1016 1016 1016 1016 1016 1016 1016 
1016 1016 1016 1016 1016 1016 1016 1016 1016 
1016 1016 1016 1016 1016 1016 1016 1016 1016 
1016 1016 1016 1016 1016 1016 1016 1016 1016 
1016 1016 1016 1016 1016 1016 1016 1016 1016 
1016 1016 1016 1016 1016 1016 1016 1016 1016 
1016 1016 1016 1016 1016 1016 1016 1016 1016 
1016 1016 1016 1016 1016 1016 1016 1016 1016 
1016 1016 1016 1016 1016 1016 1016 1016 1016 
1016 1016 1016 1016 1016 1016 1016 1016 1016 
1016 1016 1016 1016 1016 1016 1016 1016 1016 
1016 1016 1016 1016 1016 1016 1016 1016 1016 
1016 1016 1016 1016 1016 1016 1016 1016 1016 
1016 1016 1016 1016 1016 1016 1016 1016 1016 
1016 1016 1016 1016 1016 1016 1016 1016 1016 
1016 1016 1016 1016 1016 1016 1016 1016 1016 
1016 1016 1016 1016 1016 1016 1016 1016 1016 
1016 1016 1016 1016 1016 1016 1016 1016 1016 
1016 1016 1016 1016 1016 1016 1016 1016 1016 
1016 1016 1016 1016 1016 1016 1016 1016 1016 
1016 1016 1016 1016 1016 1016 1016 1016 1016 
1016 1016 1016 1016 1016 1016 1016 1016 1016 
1016 1016 1016 1016 1016 1016 1016 1016 1016 
1016 1016 1016 1016 1016 1016 1016 1016 1016 
1016 1016 1016 1016 1016 1016 1016 1016 1016 
1016 1016 1016 1016 1016 1016 1016 1016 1016 
1016 1016 1016 1016 1016 1016 1016 1016 1016 
1016 1016 1016 1016 1016 1016 1016 1016 1016 
1016 1016 1016 1016 1016 1016 1016 1016 1016 
1016 1016 1016 1016 1016 1016 1016 1016 1016 
1016 1016 1016 1016 1016 1016 1016 1016 1016 
1016 1016 1016 1016 1016 1016 1016 1016 1016 
1016 1016 1016 1016 1016 1016 1016 1016 1016 
1016 1016 1016 1016 1016 1016 1016 1016 1016 
1016 1016 1016 1016 1016 1016 1016 1016 1016 
1016 1016 1016 1016 1016 1016 1016 1016 1016 
1016 1016 1016 1016 1016 1016 1016 1016 1016 
1016 1016 1016 1016 1016 1016 1016 1016 1016 
1016 1016 1016 1016 1016 1016 1016 1016 1016 
1016 1016 1016 1016 1016 1016 1016 1016 1016 
1016 1016 1016 1016 1016 1016 1016 1016 1016 
1016 1016 1016 1016 1016 1016 1016 1016 1016 
1016 1016 1016 1016 1016 1016 1016 1016 1016 
1016 1016 1016 1016 1016 1016 1016 1016 1016 
1016 1016 1016 1016 1016 1016 1016 1016 1016 
1016 1016 1016 1016 1016 1016 1016 1016 1016 
1016 1016 1016 1016 1016 1016 1016 1016 1016 
1016 1016 1016 1016 1016 1016 1016 1016 1016 
1016 1016 1016 1016 1016 1016 1016 1016 1016 
1016 1016 1016 1016 1016 1016 1016 1016 1016 
1016 1016 1016 1016 1016 1016 1016 1016 1016 
1016 1016 1016 1016 1016 1016 1016 1016 1016 
1016 1016 1016 1016 1016 1016 1016 1016 1016 
1016 1016 1016 1016 1016 1016 1016 1016 1016 
1016 1016 1016 1016 1016 1016 1016 1016 1016 
1016 1016 1016 1016 1016 1016 1016 1016 1016 
1016 1016 1016 1016 1016 1016 1016 1016 1016 
1016 1016 1016 1016 1016 1016 1016 1016 1016 
1016 1016 1016 1016 1016 1016 1016 1016 1016 
1016 1016 1016 1016 1016 1016 1016 1016 1016 
1016 1016 1016 1016 1016 1016 1016 1016 1016 
1016 1016 1016 1016 1016 1016 1016 1016 1016 
1016 1016 1016 1016 1016 1016 1016 1016 1016 
1016 1016 1016 1016 1016 1016 1016 1016 1016 
1016 1016 1016 1016 1016 1016 1016 1016 1016 
1016 1016 1016 1016 1016 1016 1016 1016 1016 
1016 1016 1016 1016 1016 1016 1016 1016 1016 
1016 1016 1016 1016 1016 1016 1016 1016 1016 
1016 1016 1016 1016 1016 1016 1016 1016 1016 
1016 1016 1016 1016 1016 1016 1016 1016 1016 
1016 1016 1016 1016 1016 1016 1016 1016 1016 
1016 1016 1016 1016 1016 1016 1016 1016 1016 
1016 1016 1016 1016 1016 1016 1016 1016 1016 
1016 1016 1016 1016 1016 1016 1016 1016 1016 
1016 1016 1016 1016 1016 1016 1016 1016 1016 
1016 1016 1016 1016 1016 1016 1016 1016 1016 
1016 1016 1016 1016 1016 1016 1016 1016 1016 
1016 1016 1016 1016 1016 1016 1016 1016 1016 
1016 1016 1016 1016 1016 1016 1016 1016 1016 
1016 1016 1016 1016 1016 1016 1016 1016 1016 
1016 1016 1016 1016 1016 1016 1016 1016 1016 
1016 1016 1016 1016 1016 1016 1016 1016 1016 
1016 1016 1016 1016 1016 1016 1016 1016 1016 
1016 1016 1016 1016 1016 1016 1016 1016 1016 
1016 1016 1016 1016 1016 1016 1016 1016 1016 
1016 1016 1016 1016 1016 1016 1016 1016 1016 
1016 1016 1016 1016 1016 1016 1016 1016 1016 
1016 1016 1016 1016 1016 1016 1016 1016 1016 
1016 1016 1016 1016 1016 1016 1016 1016 1016 
1016 1016 1016 1016 1016 1016 1016 1016 1016 
1016 1016 1016 1016 1016 1016 1016 1016 1016 
1016 1016 1016 1016 1016 1016 1016 1016 1016 
1016 1016 1016 1016 1016 1016 1016 1016 1016 
1016 1016 1016 1016 1016 1016 1016 1016 1016 
1016 1016 1016 1016 1016 1016 1016 1016 1016 
1016 1016 1016 1016 1016 1016 1016 1016 1016 
1016 1016 1016 1016 1016 1016 1016 1016 1016 
1016 1016 1016 1016 1016 1016 1016 1016 1016 
1016 1016 1016 1016 1016 1016 1016 1016 1016 
1016 1016 1016 1016 1016 1016 1016 1016 1016 
1016 1016 1016 1016 1016 1016 1016 1016 1016 
1016 1016 1016 1016 1016 1016 1016 1016 1016 
1016 1016 1016 1016 1016 1016 1016 1016 1016 
1016 1016 1016 1016 1016 1016 1016 1016 1016 
1016 1016 1016 1016 1016 1016 1016 1016 1016 
1016 1016 1016 1016 1016 1016 1016 1016 1016 
1016 1016 1016 1016 1016 1016 1016 1016 1016 
1016 1016 1016 1016 1016 1016 1016 1016 1016 
1016 1016 1016 1016 1016 1016 1016 1016 1016 
1016 1016 1016 1016 1016 1016 1016 1016 1016 
1016 1016 1016 1016 1016 1016 1016 1016 1016 
1016 1016 1016 1016 1016 1016 1016 1016 1016 
1016 1016 1016 1016 1016 1016 1016 1016 1016 
1016 1016 1016 1016 1016 1016 1016 1016 1016 
1016 1016 1016 1016 1016 1016 1016 1016 1016 
1016 1016 1016 1016 1016 1016 1016 1016 1016 
1016 1016 1016 1016 1016 1016 1016 1016 1016 
1016 1016 1016 1016 1016 1016 1016 1016 1016 
1016 1016 1016 1016 1016 1016 1016 1016 1016 
1016 1016 1016 1016 1016 1016 1016 1016 1016 
1016 1016 1016 1016 1016 1016 1016 1016 1016 
1016 1016 1016 1016 1016 1016 1016 1016 1016 
1016 1016 1016 1016 1016 1016 1016 1016 1016 
1016 1016 1016 1016 1016 1016 1016 1016 1016 
1016 1016 1016 1016 1016 1016 1016 1016 1016 
1016 1016 1016 1016 1016 1016 1016 1016 1016 
1016 1016 1016 1016 1016 1016 1016 1016 1016 
1016 1016 1016 1016 1016 1016 1016 1016 1016 
1016 1016 1016 1016 1016 1016 1016 1016 1016 
1016 1016 1016 1016 1016 1016 1016 1016 1016 
1016 1016 1016 1016 1016 1016 1016 1016 1016 
1016 1016 1016 1016 1016 1016 1016 1016 1016 
1016 1016 1016 1016 1016 1016 1016 1016 1016 
1016 1016 1016 1016 1016 1016 1016 1016 1016 
1016 1016 1016 1016 1016 1016 1016 1016 1016 
1016 1016 1016 1016 1016 1016 1016 1016 1016 
1016 1016 1016 1016 1016 1016 1016 1016 1016 
1016 1016 1016 1016 1016 1016 1016 1016 1016 
1016 1016 1016 1016 1016 1016 1016 1016 1016 
1016 1016 1016 1016 1016 1016 1016 1016 1016 
1016 1016 1016 1016 1016 1016 1016 1016 1016 
1016 1016 1016 1016 1016 1016 1016 1016 1016 
1016 1016 1016 1016 1016 1016 1016 1016 1016 
1016 1016 1016 1016 1016 1016 1016 1016 1016 
1016 1016 1016 1016 1016 1016 1016 1016 1016 
1016 1016 1016 1016 1016 1016 1016 1016 1016 
1016 1016 1016 1016 1016 1016 1016 1016 1016 
1016 1016 1016 1016 1016 1016 1016 1016 1016 
1016 1016 1016 1016 1016 1016 1016 1016 1016 
1016 1016 1016 1016 1016 1016 1016 1016 1016 
1016 1016 1016 1016 1016 1016 1016 1016 1016 
1016 1016 1016 1016 1016 1016 1016 1016 1016 
1016 1016 1016 1016 1016 1016 1016 1016 1016 
1016 1016 1016 1016 1016 1016 1016 1016 1016 
1016 1016 1016 1016 1016 1016 1016 1016 1016 
1016 1016 1016 1016 1016 1016 1016 1016 1016 
1016 1016 1016 1016 1016 1016 1016 1016 1016 
1016 1016 1016 1016 1016 1016 1016 1016 1016 
1016 1016 1016 1016 1016 1016 1016 1016 1016 
1016 1016 1016 1016 1016 1016 1016 1016 1016 
1016 1016 1016 1016 1016 1016 1016 1016 1016 
1016 1016 1016 1016 1016 1016 1016 1016 1016 
1016 1016 1016 1016 1016 1016 1016 1016 1016 
1016 1016 1016 1016 1016 1016 1016 1016 1016 
1016 1016 1016 1016 1016 1016 1016 1016 1016 
1016 1016 1016 1016 1016 1016 1016 1016 1016 
1016 1016 1016 1016 1016 1016 1016 1016 1016 
1016 1016 1016 1016 1016 1016 1016 1016 1016 
1016 1016 1016 1016 1016 1016 1016 1016 1016 
1016 1016 1016 1016 1016 1016 1016 1016 1016 
1016 1016 1016 1016 1016 1016 1016 1016 1016 
1016 1016 1016 1016 1016 1016 1016 1016 1016 
1016 1016 1016 1016 1016 1016 1016 1016 1016 
1016 1016 1016 1016 1016 1016 1016 1016 1016 
1016 1016 1016 1016 1016 1016 1016 1016 1016 
1016 1016 1016 1016 1016 1016 1016 1016 1016 
1016 1016 1016 1016 1016 1016 1016 1016 1016 
1016 1016 1016 1016 1016 1016 1016 1016 1016 
1016 1016 1016 1016 1016 1016 1016 1016 1016 
1016 1016 1016 1016 1016 1016 1016 1016 1016 
1016 1016 1016 1016 1016 1016 1016 1016 1016 
1016 1016 1016 1016 1016 1016 1016 1016 1016 
1016 1016 1016 1016 1016 1016 1016 1016 1016 
1016 1016 1016 1016 1016 1016 1016 1016 1016 
1016 1016 1016 1016 1016 1016 1016 1016 1016 
1016 1016 1016 1016 1016 1016 1016 1016 1016 
1016 1016 1016 1016 1016 1016 1016 1016 1016 
1016 1016 1016 1016 1016 1016 1016 1016 1016 
1016 1016 1016 1016 1016 1016 1016 1016 1016 
1016 1016 1016 1016 1016 1016 1016 1016 1016 
1016 1016 1016 1016 1016 1016 1016 1016 1016 
1016 1016 1016 1016 1016 1016 1016 1016 1016 
1016 1016 1016 1016 1016 1016 1016 1016 1016 
1016 1016 1016 1016 1016 1016 1016 1016 1016 
1016 1016 1016 1016 1016 1016 1016 1016 1016 
1016 1016 1016 1016 1016 1016 1016 1016 1016 
1016 1016 1016 1016 1016 1016 1016 1016 1016 
1016 1016 1016 1016 1016 1016 1016 1016 1016 
1016 1016 1016 1016 1016 1016 1016 1016 1016 
1016 1016 1016 1016 1016 1016 1016 1016 1016 
1016 1016 1016 1016 1016 1016 1016 1016 1016 
1016 1016 1016 1016 1016 1016 1016 1016 1016 
1016 1016 1016 1016 1016 1016 1016 1016 1016 
1016 1016 1016 1016 1016 1016 1016 1016 1016 
1016 1016 1016 1016 1016 1016 1016 1016 1016 
1016 1016 1016 1016 1016 1016 1016 1016 1016 
1016 1016 1016 1016 1016 1016 1016 1016 1016 
1016 1016 1016 1016 1016 1016 1016 1016 1016 
1016 1016 1016 1016 1016 1016 1016 1016 1016 
1016 1016 1016 1016 1016 1016 1016 1016 1016 
1016 1016 1016 1016 1016 1016 1016 1016 1016 
1016 1016 1016 1016 1016 1016 1016 1016 1016 
1016 1016 1016 1016 1016 1016 1016 1016 1016 
1016 1016 1016 1016 1016 1016 1016 1016 1016 
1016 1016 1016 1016 1016 1016 1016 1016 1016 
1016 1016 1016 1016 1016 1016 1016 1016 1016 
1016 1016 1016 1016 1016 1016 1016 1016 1016 
1016 1016 1016 1016 1016 1016 1016 1016 1016 
1016 1016 1016 1016 1016 1016 1016 1016 1016 
1016 1016 1016 1016 1016 1016 1016 1016 1016 
1016 1016 1016 1016 1016 1016 1016 1016 1016 
1016 1016 1016 1016 1016 1016 1016 1016 1016 
1016 1016 1016 1016 1016 1016 1016 1016 1016 
1016 1016 1016 1016 1016 1016 1016 1016 1016 
1016 1016 1016 1016 1016 1016 1016 1016 1016 
1016 1016 1016 1016 1016 1016 1016 1016 1016 
1016 1016 1016 1016 1016 1016 1016 1016 1016 
1016 1016 1016 1016 1016 1016 1016 1016 1016 
1016 1016 1016 1016 1016 1016 1016 1016 1016 
1016 1016 1016 1016 1016 1016 1016 1016 1016 
1016 1016 1016 1016 1016 1016 1016 1016 1016 
1016 1016 1016 1016 1016 1016 1016 1016 1016 
1016 1016 1016 1016 1016 1016 1016 1016 1016 
1016 1016 1016 1016 1016 1016 1016 1016 1016 
1016 1016 1016 1016 1016 1016 1016 1016 1016 
1016 1016 1016 1016 1016 1016 1016 1016 1016 
1016 1016 1016 1016 1016 1016 1016 1016 1016 
1016 1016 1016 1016 1016 1016 1016 1016 1016 
1016 1016 1016 1016 1016 1016 1016 1016 1016 
1016 1016 1016 1016 1016 1016 1016 1016 1016 
1016 1016 1016 1016 1016 1016 1016 1016 1016 
1016 1016 1016 1016 1016 1016 1016 1016 1016 
1016 1016 1016 1016 1016 1016 1016 1016 1016 
1016 1016 1016 1016 1016 1016 1016 1016 1016 
1016 1016 1016 1016 1016 1016 1016 1016 1016 
1016 1016 1016 1016 1016 1016 1016 1016 1016 
1016 1016 1016 1016 1016 1016 1016 1016 1016 
1016 1016 1016 1016 1016 1016 1016 1016 1016 
1016 1016 1016 1016 1016 1016 1016 1016 1016 
1016 1016 1016 1016 1016 1016 1016 1016 1016 
1016 1016 1016 1016 1016 1016 1016 1016 1016 
1016 1016 1016 1016 1016 1016 1016 1016 1016 
1016 1016 1016 1016 1016 1016 1016 1016 1016 
1016 1016 1016 1016 1016 1016 1016 1016 1016 
1016 1016 1016 1016 1016 1016 1016 1016 1016 
1016 1016 1016 1016 1016 1016 1016 1016 1016 
1016 1016 1016 1016 1016 1016 1016 1016 1016 
1016 1016 1016 1016 1016 1016 1016 1016 1016 
1016 1016 1016 1016 1016 1016 1016 1016 1016 
1016 1016 1016 1016 1016 1016 1016 1016 1016 
1016 1016 1016 1016 1016 1016 1016 1016 1016 
1016 1016 1016 1016 1016 1016 1016 1016 1016 
1016 1016 1016 1016 1016 1016 1016 1016 1016 
1016 1016 1016 1016 1016 1016 1016 1016 1016 
1016 1016 1016 1016 1016 1016 1016 1016 1016 
1016 1016 1016 1016 1016 1016 1016 1016 1016 
1016 1016 1016 1016 1016 1016 1016 1016 1016 
1016 1016 1016 1016 1016 1016 1016 1016 1016 
1016 1016 1016 1016 1016 1016 1016 1016 1016 
1016 1016 1016 1016 1016 1016 1016 1016 1016 
1016 1016 1016 1016 1016 1016 1016 1016 1016 
1016 1016 1016 1016 1016 1016 1016 1016 1016 
1016 1016 1016 1016 1016 1016 1016 1016 1016 
1016 1016 1016 1016 1016 1016 1016 1016 1016 
1016 1016 1016 1016 1016 1016 1016 1016 1016 
1016 1016 1016 1016 1016 1016 1016 1016 1016 
1016 1016 1016 1016 1016 1016 1016 1016 1016 
1016 1016 1016 1016 1016 1016 1016 1016 1016 
1016 1016 1016 1016 1016 1016 1016 1016 1016 
1016 1016 1016 1016 1016 1016 1016 1016 1016 
1016 1016 1016 1016 1016 1016 1016 1016 1016 
1016 1016 1016 1016 1016 1016 1016 1016 1016 
1016 1016 1016 1016 1016 1016 1016 1016 1016 
1016 1016 1016 1016 1016 1016 1016 1016 1016 
1016 1016 1016 1016 1016 1016 1016 1016 1016 
1016 1016 1016 1016 1016 1016 1016 1016 1016 
1016 1016 1016 1016 1016 1016 1016 1016 1016 
1016 1016 1016 1016 1016 1016 1016 1016 1016 
1016 1016 1016 1016 1016 1016 1016 1016 1016 
1016 1016 1016 1016 1016 1016 1016 1016 1016 
1016 1016 1016 1016 1016 1016 1016 1016 1016 
1016 1016 1016 1016 1016 1016 1016 1016 1016 
1016 1016 1016 1016 1016 1016 1016 1016 1016 
1016 1016 1016 1016 1016 1016 1016 1016 1016 
1016 1016 1016 1016 1016 1016 1016 1016 1016 
1016 1016 1016 1016 1016 1016 1016 1016 1016 
1016 1016 1016 1016 1016 1016 1016 1016 1016 
1016 1016 1016 1016 1016 1016 1016 1016 1016 
1016 1016 1016 1016 1016 1016 1016 1016 1016 
1016 1016 1016 1016 1016 1016 1016 1016 1016 
1016 1016 1016 1016 1016 1016 1016 1016 1016 
1016 1016 1016 1016 1016 1016 1016 1016 1016 
1016 1016 1016 1016 1016 1016 1016 1016 1016 
1016 1016 1016 1016 1016 1016 1016 1016 1016 
1016 1016 1016 1016 1016 1016 1016 1016 1016 
1016 1016 1016 1016 1016 1016 1016 1016 1016 
1016 1016 1016 1016 1016 1016 1016 1016 1016 
1016 1016 1016 1016 1016 1016 1016 1016 1016 
1016 1016 1016 1016 1016 1016 1016 1016 1016 
1016 1016 1016 1016 1016 1016 1016 1016 1016 
1016 1016 1016 1016 1016 1016 1016 1016 1016 
1016 1016 1016 1016 1016 1016 1016 1016 1016 
1016 1016 1016 1016 1016 1016 1016 1016 1016 
1016 1016 1016 1016 1016 1016 1016 1016 1016 
1016 1016 1016 1016 1016 1016 1016 1016 1016 
1016 1016 1016 1016 1016 1016 1016 1016 1016 
1016 1016 1016 1016 1016 1016 1016 1016 1016 
1016 1016 1016 1016 1016 1016 1016 1016 1016 
1016 1016 1016 1016 1016 1016 1016 1016 1016 
1016 1016 1016 1016 1016 1016 1016 1016 1016 
1016 1016 1016 1016 1016 1016 1016 1016 1016 
1016 1016 1016 1016 1016 1016 1016 1016 1016 
1016 1016 1016 1016 1016 1016 1016 1016 1016 
1016 1016 1016 1016 1016 1016 1016 1016 1016 
1016 1016 1016 1016 1016 1016 1016 1016 1016 
1016 1016 1016 1016 1016 1016 1016 1016 1016 
1016 1016 1016 1016 1016 1016 1016 1016 1016 
1016 1016 1016 1016 1016 1016 1016 1016 1016 
1016 1016 1016 1016 1016 1016 1016 1016 1016 
1016 1016 1016 1016 1016 1016 1016 1016 1016 
1016 1016 1016 1016 1016 1016 1016 1016 1016 
1016 1016 1016 1016 1016 1016 1016 1016 1016 
1016 1016 1016 1016 1016 1016 1016 1016 1016 
1016 1016 1016 1016 1016 1016 1016 1016 1016 
1016 1016 1016 1016 1016 1016 1016 1016 1016 