# vtk DataFile Version 4.2
vtk output
ASCII
DATASET POLYDATA
POINTS 1814 float
-25.0301 -21.9763 -4.87982 -24.956 -21.6681 -5.07613 -24.6353 -21.9833 -4.99839 
-25.4691 -22.0367 -4.92235 -25.4379 -21.6047 -5.05052 -25.7998 -21.7595 -5.09869 
-24.5467 -22.3628 -4.92121 -24.3679 -22.2031 -5.05063 -24.2496 -22.5302 -5.12871 
-24.9725 -22.4365 -4.89366 -25.3812 -22.4229 -5.02003 -25.7376 -22.1374 -5.09753 
-24.5959 -22.8082 -5.06169 -25.0611 -22.7425 -5.09517 -24.5544 -21.2742 -5.52605 
-24.284 -21.0881 -5.85228 -24.1577 -21.4777 -5.68132 -25.1046 -21.3196 -5.35974 
-24.918 -20.9609 -5.81628 -25.8144 -21.3586 -5.35284 -25.6183 -21.0374 -5.74461 
-26.3559 -21.4149 -5.47997 -26.1903 -21.0944 -5.75408 -26.5768 -21.225 -5.75539 
-23.3663 -22.0291 -5.53752 -23.2097 -21.8245 -5.64977 -23.0939 -22.0213 -5.61244 
-23.362 -21.8769 -5.6886 -24.4024 -21.8476 -5.29361 -24.0023 -21.9303 -5.62605 
-26.0719 -21.9092 -5.29149 -26.8824 -21.4802 -5.69821 -26.7225 -21.899 -5.48649 
-27.2856 -21.8988 -5.56088 -27.3709 -21.6796 -5.72567 -27.6772 -21.8233 -5.74455 
-23.2781 -22.4433 -5.48244 -22.9045 -22.3244 -5.77112 -23.5848 -22.0358 -5.81665 
-23.8556 -22.4273 -5.39576 -25.5963 -22.595 -5.25944 -26.1337 -22.5248 -5.47895 
-26.5508 -22.3846 -5.63741 -27.0108 -22.2025 -5.6622 -27.4943 -22.0572 -5.70822 
-23.1005 -22.8015 -5.70662 -23.4784 -23.1291 -5.64398 -23.7439 -23.068 -5.44601 
-24.3558 -23.1407 -5.28137 -25.0057 -23.1048 -5.27981 -25.5491 -23.1893 -5.49431 
-25.9744 -23.0083 -5.66511 -26.3018 -22.7348 -5.72189 -23.798 -23.4027 -5.81804 
-24.2654 -23.7218 -5.76743 -24.274 -23.6133 -5.48498 -24.8864 -23.6487 -5.47122 
-25.2527 -23.677 -5.66445 -25.6104 -23.3872 -5.89134 -24.547 -23.8893 -5.63941 
-24.8722 -23.8909 -5.71998 -25.0989 -20.7393 -6.11095 -24.9525 -20.5309 -6.47883 
-24.7637 -20.73 -6.169 -25.3747 -20.6466 -6.36119 -23.9099 -21.3081 -6.00456 
-23.8379 -21.0676 -6.25686 -23.5551 -21.5076 -6.30415 -24.36 -20.8476 -6.17961 
-25.4972 -20.8445 -6.11007 -26.1374 -20.9056 -6.25553 -26.9197 -21.3166 -6.01323 
-26.642 -21.1009 -6.14777 -27.0876 -21.2938 -6.47402 -23.1333 -22.0051 -5.86736 
-23.8161 -21.7164 -5.96578 -23.4951 -21.9122 -6.22803 -27.4088 -21.5225 -6.22236 
-28.0442 -22.0662 -5.98385 -27.8741 -21.7076 -6.13589 -28.3211 -21.8742 -6.46713 
-22.652 -22.5515 -6.0136 -22.6761 -22.2093 -6.25539 -22.3873 -22.5854 -6.47451 
-23.1474 -22.0542 -6.26254 -26.7818 -22.694 -5.86479 -27.4886 -22.4743 -5.88862 
-28.0323 -22.4836 -5.95728 -28.6208 -22.1312 -6.26169 -28.5557 -22.5217 -6.07888 
-29.1218 -22.5397 -6.13677 -29.0858 -22.3436 -6.25798 -29.328 -22.4904 -6.22623 
-22.7002 -22.8585 -6.14191 -23.1749 -23.113 -5.95629 -22.8181 -23.1419 -6.35228 
-26.3181 -23.1437 -5.91693 -26.9082 -23.2102 -5.97124 -27.2992 -23.0064 -5.97234 
-27.891 -23.0488 -6.06357 -28.3061 -23.0744 -6.36292 -28.7199 -22.789 -6.3472 
-29.1097 -22.6358 -6.41489 -23.2418 -23.3317 -6.31497 -23.8047 -23.498 -6.34735 
-24.4224 -23.5225 -6.23399 -24.6183 -23.7715 -5.92329 -25.0224 -23.4594 -6.15633 
-25.0567 -23.7125 -5.89182 -25.5242 -23.2861 -6.28214 -26.103 -23.4427 -6.27501 
-26.5096 -23.7222 -6.25451 -26.7849 -23.6473 -6.0653 -27.413 -23.6301 -6.03647 
-27.8238 -23.686 -6.21726 -28.0596 -23.4476 -6.37434 -26.7366 -24.0364 -6.31006 
-27.0398 -24.3934 -6.33557 -27.2417 -24.1732 -6.11765 -27.6979 -24.278 -6.33305 
-27.3178 -24.5133 -6.38465 -23.335 -20.6922 -6.7471 -23.1503 -20.4668 -7.09219 
-22.8997 -20.8608 -6.8939 -23.8752 -20.7313 -6.57349 -23.6901 -20.4647 -6.8942 
-24.4592 -20.6328 -6.46059 -24.3286 -20.3727 -6.89727 -25.0363 -20.2952 -6.96124 
-25.8329 -20.6721 -6.5386 -25.5976 -20.4464 -6.85548 -26.3042 -20.7073 -6.7003 
-26.2184 -20.4893 -6.98831 -26.6062 -20.62 -6.99498 -23.226 -21.2236 -6.6018 
-22.7524 -21.3279 -6.85938 -26.7316 -20.9382 -6.68625 -27.1645 -21.2143 -7.06862 
-22.7733 -21.8044 -6.64174 -22.5025 -21.544 -6.99646 -22.3676 -21.9791 -6.86938 
-23.2062 -21.7889 -6.47745 -27.5242 -21.5323 -6.89454 -28.0195 -21.6645 -6.80735 
-28.4399 -21.8238 -6.94343 -22.259 -22.4091 -6.9885 -28.8319 -22.1261 -6.81641 
-29.1885 -22.4435 -6.48842 -29.0578 -22.5744 -7.00648 -22.5096 -23.0237 -6.52661 
-22.343 -23.0798 -6.99875 -25.0984 -23.1686 -6.59808 -24.7408 -23.2339 -7.03528 
-24.9832 -22.8483 -7.06757 -25.4993 -22.8955 -6.86459 -25.7107 -23.1609 -6.60705 
-25.7806 -23.0607 -7.00311 -28.4443 -23.1 -6.72828 -28.7467 -22.8791 -6.85009 
-22.7513 -23.3832 -6.7637 -23.307 -23.5367 -6.70905 -23.7732 -23.6787 -6.67384 
-23.4592 -23.775 -6.9749 -24.2398 -23.7089 -6.62364 -24.661 -23.5551 -6.79422 
-26.0091 -23.5415 -6.92653 -26.3151 -23.7523 -6.49531 -28.1332 -23.9291 -6.51787 
-28.3401 -23.4977 -6.7744 -23.9481 -23.9266 -7.04365 -24.4431 -23.8694 -7.02906 
-26.349 -24.0164 -6.77623 -26.6946 -24.308 -6.59788 -26.5166 -24.3267 -7.06673 
-28.0844 -24.3547 -6.49651 -28.5284 -23.9543 -6.83553 -28.4175 -24.4135 -6.71531 
-28.7979 -24.2572 -7.11354 -26.9944 -24.5539 -6.83484 -27.5503 -24.697 -6.8471 
-27.9816 -24.7373 -6.66747 -27.8655 -24.9143 -6.97043 -28.2583 -24.8523 -6.82156 
-28.514 -24.7645 -7.10382 -28.023 -24.995 -6.86142 -24.6343 -20.0787 -7.21609 
-24.3131 -19.9019 -7.64436 -24.173 -20.1051 -7.38173 -25.0782 -20.124 -7.2645 
-24.8182 -19.9575 -7.52 -25.1589 -20.1327 -7.56908 -22.6785 -20.67 -7.20158 
-22.7914 -20.4811 -7.54565 -22.4466 -20.8802 -7.53623 -23.1921 -20.3042 -7.44035 
-23.6834 -20.2585 -7.33991 -25.5452 -20.3145 -7.51463 -26.1312 -20.3784 -7.39211 
-26.9038 -20.7754 -7.1399 -26.6571 -20.5108 -7.44091 -27.0246 -20.9023 -7.56567 
-22.5455 -21.0825 -7.14954 -22.3431 -21.4088 -7.37384 -27.2366 -21.3277 -7.58483 
-22.2688 -21.9092 -7.4796 -27.5143 -21.5418 -7.49523 -27.9206 -21.6259 -7.37987 
-28.6404 -21.8597 -7.19569 -28.4138 -21.6134 -7.50338 -28.8814 -21.9007 -7.62879 
-22.2747 -22.5086 -7.48776 -29.2432 -22.5233 -7.33984 -29.1331 -22.3322 -7.34319 
-29.2905 -22.5076 -7.4924 -22.2872 -23.0298 -7.5685 -24.5263 -23.0333 -7.24993 
-24.2873 -23.2589 -7.64037 -24.4167 -22.7901 -7.49884 -24.9339 -22.6357 -7.43535 
-25.4755 -22.8422 -7.39727 -25.8013 -23.2878 -7.523 -28.61 -23.2863 -7.14487 
-29.0032 -22.908 -7.53239 -29.1983 -22.6369 -7.42997 -22.5503 -23.6439 -7.18219 
-22.3673 -23.6055 -7.59649 -22.9763 -23.7408 -7.12998 -24.4872 -23.3564 -7.38831 
-24.5785 -23.6662 -7.28254 -25.9903 -23.712 -7.59692 -28.6615 -23.7336 -7.10567 
-28.9609 -23.723 -7.52206 -22.7427 -23.9297 -7.56113 -23.3698 -23.9857 -7.45963 
-23.853 -24.0535 -7.50027 -24.2458 -23.9434 -7.53337 -26.2577 -24.02 -7.42256 
-26.5634 -24.3023 -7.55636 -28.9596 -24.3275 -7.49463 -26.8593 -24.5142 -7.46586 
-27.382 -24.6516 -7.4877 -28.008 -24.778 -7.42455 -28.1183 -24.9276 -7.03254 
-28.6533 -24.9677 -7.32547 -28.4997 -24.9119 -7.52696 -28.8156 -24.7584 -7.4372 
-28.6714 -25.0245 -7.49995 -23.2555 -20.1505 -7.8152 -23.2549 -19.8602 -8.09285 
-22.9265 -20.1358 -8.15731 -23.8489 -20.0182 -7.69819 -23.8009 -19.7737 -8.08926 
-24.5494 -19.8533 -8.04958 -24.9233 -20.0461 -7.82976 -24.8674 -20.0536 -8.18854 
-22.5448 -20.7899 -7.86082 -22.764 -20.5382 -7.99003 -25.222 -20.2599 -8.03407 
-25.637 -20.3925 -8.08714 -26.2105 -20.4654 -7.9872 -26.7596 -20.6323 -7.86826 
-26.5649 -20.6567 -8.1327 -22.561 -20.872 -8.09068 -22.3122 -21.2889 -7.99456 
-26.7539 -20.9255 -8.13058 -27.0792 -21.2312 -7.93874 -28.673 -21.3641 -7.88462 
-28.6548 -21.1873 -8.12443 -28.4909 -21.3218 -8.09733 -28.7872 -21.4475 -8.17593 
-22.2267 -22.0725 -8.12859 -27.2758 -21.4834 -8.13766 -27.9837 -21.5126 -8.03017 
-28.9495 -21.872 -8.14167 -22.2978 -22.62 -7.99399 -23.9734 -22.5373 -7.8801 
-23.5929 -22.5424 -8.2645 -23.7747 -22.1418 -8.14103 -24.241 -22.1286 -8.03965 
-24.5647 -22.4397 -7.73123 -24.8193 -22.304 -8.12255 -25.1067 -22.5783 -7.79177 
-25.1637 -22.6514 -8.24481 -29.1522 -22.4735 -7.64116 -29.0974 -22.5007 -8.22097 
-22.2889 -23.1249 -8.08952 -23.7599 -22.8133 -8.05149 -24.009 -23.1501 -8.07648 
-25.4351 -22.9838 -8.07738 -25.6265 -23.0806 -7.75647 -29.2121 -22.9381 -8.02358 
-29.2646 -23.2812 -7.86588 -29.3605 -23.2475 -8.14538 -22.3516 -23.6507 -8.24202 
-24.3911 -23.634 -7.64554 -24.1605 -23.7419 -8.08262 -25.6634 -23.3069 -8.03729 
-25.889 -23.6576 -8.17845 -29.2336 -23.7648 -7.92919 -29.384 -23.5631 -8.09719 
-22.6478 -23.9822 -8.08115 -23.0992 -24.0732 -7.98261 -23.7525 -24.1012 -8.06804 
-26.2459 -23.9486 -8.1019 -26.6996 -24.1485 -8.0804 -26.8762 -24.3886 -7.86877 
-27.1382 -24.2937 -8.22426 -28.9275 -24.3451 -7.90971 -29.1804 -23.9557 -8.17414 
-27.2699 -24.5067 -7.97829 -27.8158 -24.5701 -8.05638 -28.4164 -24.6303 -8.02468 
-28.6919 -24.8624 -7.74931 -23.2546 -19.611 -8.38242 -23.3326 -19.2897 -8.80945 
-22.8402 -19.4401 -8.72286 -23.8309 -19.5094 -8.4835 -23.7764 -19.3128 -8.78903 
-24.1759 -19.4096 -8.80195 -22.7117 -19.9921 -8.45451 -22.5369 -19.7279 -8.76664 
-22.4197 -20.1693 -8.75596 -24.2957 -19.6361 -8.52447 -25.1025 -20.1522 -8.45678 
-24.8176 -19.8257 -8.5998 -25.2731 -19.9987 -8.89994 -22.5103 -20.6782 -8.324 
-22.217 -20.7011 -8.71464 -25.6209 -20.418 -8.52523 -26.2437 -20.7118 -8.40981 
-25.9254 -20.8345 -8.89769 -22.0991 -21.2078 -8.44924 -21.9498 -20.9954 -8.75844 
-21.803 -21.3681 -8.75218 -26.3648 -21.0871 -8.59047 -26.8083 -21.333 -8.38782 
-26.4569 -21.4197 -8.77722 -27.5961 -21.3443 -8.43874 -27.4684 -21.1366 -8.86347 
-27.1915 -21.3846 -8.6445 -28.0539 -21.3376 -8.48533 -27.8633 -21.1456 -8.71139 
-28.6296 -21.2437 -8.28013 -28.3075 -21.1498 -8.8067 -22.0017 -21.7123 -8.44303 
-21.8206 -21.8293 -8.89937 -23.9756 -21.8136 -8.39 -23.5879 -21.9869 -8.54696 
-23.8021 -21.6652 -8.80254 -24.2163 -21.6893 -8.72459 -24.4833 -21.9618 -8.39598 
-24.5683 -22.0158 -8.82613 -26.8056 -21.5255 -8.801 -28.5178 -21.4045 -8.48887 
-28.9619 -21.8781 -8.74596 -22.0534 -22.1012 -8.66745 -22.2338 -22.5268 -8.61732 
-23.4586 -22.3765 -8.77222 -24.8389 -22.3796 -8.65982 -25.0201 -22.4807 -8.37267 
-29.2177 -22.3653 -8.63644 -29.2701 -22.4977 -8.55142 -29.3091 -22.5176 -8.7079 
-22.2534 -23.1213 -8.65598 -23.7164 -23.0096 -8.31394 -23.5869 -22.96 -8.80661 
[...]
CELL_DATA 3628
SCALARS scalars float
LOOKUP_TABLE default
1034 1034 1034 1034 1034 1034 1034 1034 1034 
1034 1034 1034 1034 1034 1034 1034 1034 1034 
1034 1034 1034 1034 1034 1034 1034 1034 1034 
1034 1034 1034 1034 1034 1034 1034 1034 1034 
1034 1034 1034 1034 1034 1034 1034 1034 1034 
1034 1034 1034 1034 1034 1034 1034 1034 1034 
1034 1034 1034 1034 1034 1034 1034 1034 1034 
1034 1034 1034 1034 1034 1034 1034 1034 1034 
1034 1034 1034 1034 1034 1034 1034 1034 1034 
1034 1034 1034 1034 1034 1034 1034 1034 1034 
1034 1034 1034 1034 1034 1034 1034 1034 1034 
1034 1034 1034 1034 1034 1034 1034 1034 1034 
1034 1034 1034 1034 1034 1034 1034 1034 1034 
1034 1034 1034 1034 1034 1034 1034 1034 1034 
1034 1034 1034 1034 1034 1034 1034 1034 1034 
1034 1034 1034 1034 1034 1034 1034 1034 1034 
1034 1034 1034 1034 1034 1034 1034 1034 1034 
1034 1034 1034 1034 1034 1034 1034 1034 1034 
1034 1034 1034 1034 1034 1034 1034 1034 1034 
1034 1034 1034 1034 1034 1034 1034 1034 1034 
1034 1034 1034 1034 1034 1034 1034 1034 1034 
1034 1034 1034 1034 1034 1034 1034 1034 1034 
1034 1034 1034 1034 1034 1034 1034 1034 1034 
1034 1034 1034 1034 1034 1034 1034 1034 1034 
1034 1034 1034 1034 1034 1034 1034 1034 1034 
1034 1034 1034 1034 1034 1034 1034 1034 1034 
1034 1034 1034 1034 1034 1034 1034 1034 1034 
1034 1034 1034 1034 1034 1034 1034 1034 1034 
1034 1034 1034 1034 1034 1034 1034 1034 1034 
1034 1034 1034 1034 1034 1034 1034 1034 1034 
1034 1034 1034 1034 1034 1034 1034 1034 1034 
1034 1034 1034 1034 1034 1034 1034 1034 1034 
1034 1034 1034 1034 1034 1034 1034 1034 1034 
1034 1034 1034 1034 1034 1034 1034 1034 1034 
1034 1034 1034 1034 1034 1034 1034 1034 1034 
1034 1034 1034 1034 1034 1034 1034 1034 1034 
1034 1034 1034 1034 1034 1034 1034 1034 1034 
1034 1034 1034 1034 1034 1034 1034 1034 1034 
1034 1034 1034 1034 1034 1034 1034 1034 1034 
1034 1034 1034 1034 1034 1034 1034 1034 1034 
1034 1034 1034 1034 1034 1034 1034 1034 1034 
1034 1034 1034 1034 1034 1034 1034 1034 1034 
1034 1034 1034 1034 1034 1034 1034 1034 1034 
1034 1034 1034 1034 1034 1034 1034 1034 1034 
1034 1034 1034 1034 1034 1034 1034 1034 1034 
1034 1034 1034 1034 1034 1034 1034 1034 1034 
1034 1034 1034 1034 1034 1034 1034 1034 1034 
1034 1034 1034 1034 1034 1034 1034 1034 1034 
1034 1034 1034 1034 1034 1034 1034 1034 1034 
1034 1034 1034 1034 1034 1034 1034 1034 1034 
1034 1034 1034 1034 1034 1034 1034 1034 1034 
1034 1034 1034 1034 1034 1034 1034 1034 1034 
1034 1034 1034 1034 1034 1034 1034 1034 1034 
1034 1034 1034 1034 1034 1034 1034 1034 1034 
1034 1034 1034 1034 1034 1034 1034 1034 1034 
1034 1034 1034 1034 1034 1034 1034 1034 1034 
1034 1034 1034 1034 1034 1034 1034 1034 1034 
1034 1034 1034 1034 1034 1034 1034 1034 1034 
1034 1034 1034 1034 1034 1034 1034 1034 1034 
1034 1034 1034 1034 1034 1034 1034 1034 1034 
1034 1034 1034 1034 1034 1034 1034 1034 1034 
1034 1034 1034 1034 1034 1034 1034 1034 1034 
1034 1034 1034 1034 1034 1034 1034 1034 1034 
1034 1034 1034 1034 1034 1034 1034 1034 1034 
1034 1034 1034 1034 1034 1034 1034 1034 1034 
1034 1034 1034 1034 1034 1034 1034 1034 1034 
1034 1034 1034 1034 1034 1034 1034 1034 1034 
1034 1034 1034 1034 1034 1034 1034 1034 1034 
1034 1034 1034 1034 1034 1034 1034 1034 1034 
1034 1034 1034 1034 1034 1034 1034 1034 1034 
1034 1034 1034 1034 1034 1034 1034 1034 1034 
1034 1034 1034 1034 1034 1034 1034 1034 1034 
1034 1034 1034 1034 1034 1034 1034 1034 1034 
1034 1034 1034 1034 1034 1034 1034 1034 1034 
1034 1034 1034 1034 1034 1034 1034 1034 1034 
1034 1034 1034 1034 1034 1034 1034 1034 1034 
1034 1034 1034 1034 1034 1034 1034 1034 1034 
1034 1034 1034 1034 1034 1034 1034 1034 1034 
1034 1034 1034 1034 1034 1034 1034 1034 1034 
1034 1034 1034 1034 1034 1034 1034 1034 1034 
1034 1034 1034 1034 1034 1034 1034 1034 1034 
1034 1034 1034 1034 1034 1034 1034 1034 1034 
1034 1034 1034 1034 1034 1034 1034 1034 1034 
1034 1034 1034 1034 1034 1034 1034 1034 1034 
1034 1034 1034 1034 1034 1034 1034 1034 1034 
1034 1034 1034 1034 1034 1034 1034 1034 1034 
1034 1034 1034 1034 1034 1034 1034 1034 1034 
1034 1034 1034 1034 1034 1034 1034 1034 1034 
1034 1034 1034 1034 1034 1034 1034 1034 1034 
1034 1034 1034 1034 1034 1034 1034 1034 1034 
1034 1034 1034 1034 1034 1034 1034 1034 1034 
1034 1034 1034 1034 1034 1034 1034 1034 1034 
1034 1034 1034 1034 1034 1034 1034 1034 1034 
1034 1034 1034 1034 1034 1034 1034 1034 1034 
1034 1034 1034 1034 1034 1034 1034 1034 1034 
1034 1034 1034 1034 1034 1034 1034 1034 1034 
1034 1034 1034 1034 1034 1034 1034 1034 1034 
1034 1034 1034 1034 1034 1034 1034 1034 1034 
1034 1034 1034 1034 1034 1034 1034 1034 1034 
1034 1034 1034 1034 1034 1034 1034 1034 1034 
1034 1034 1034 1034 1034 1034 1034 1034 1034 
1034 1034 1034 1034 1034 1034 1034 1034 1034 
1034 1034 1034 1034 1034 1034 1034 1034 1034 
1034 1034 1034 1034 1034 1034 1034 1034 1034 
1034 1034 1034 1034 1034 1034 1034 1034 1034 
1034 1034 1034 1034 1034 1034 1034 1034 1034 
1034 1034 1034 1034 1034 1034 1034 1034 1034 
1034 1034 1034 1034 1034 1034 1034 1034 1034 
1034 1034 1034 1034 1034 1034 1034 1034 1034 
1034 1034 1034 1034 1034 1034 1034 1034 1034 
1034 1034 1034 1034 1034 1034 1034 1034 1034 
1034 1034 1034 1034 1034 1034 1034 1034 1034 
1034 1034 1034 1034 1034 1034 1034 1034 1034 
1034 1034 1034 1034 1034 1034 1034 1034 1034 
1034 1034 1034 1034 1034 1034 1034 1034 1034 
1034 1034 1034 1034 1034 1034 1034 1034 1034 
1034 1034 1034 1034 1034 1034 1034 1034 1034 
1034 1034 1034 1034 1034 1034 1034 1034 1034 
1034 1034 1034 1034 1034 1034 1034 1034 1034 
1034 1034 1034 1034 1034 1034 1034 1034 1034 
1034 1034 1034 1034 1034 1034 1034 1034 1034 
1034 1034 1034 1034 1034 1034 1034 1034 1034 
1034 1034 1034 1034 1034 1034 1034 1034 1034 
1034 1034 1034 1034 1034 1034 1034 1034 1034 
1034 1034 1034 1034 1034 1034 1034 1034 1034 
1034 1034 1034 1034 1034 1034 1034 1034 1034 
1034 1034 1034 1034 1034 1034 1034 1034 1034 
1034 1034 1034 1034 1034 1034 1034 1034 1034 
1034 1034 1034 1034 1034 1034 1034 1034 1034 
1034 1034 1034 1034 1034 1034 1034 1034 1034 
1034 1034 1034 1034 1034 1034 1034 1034 1034 
1034 1034 1034 1034 1034 1034 1034 1034 1034 
1034 1034 1034 1034 1034 1034 1034 1034 1034 
1034 1034 1034 1034 1034 1034 1034 1034 1034 
1034 1034 1034 1034 1034 1034 1034 1034 1034 
1034 1034 1034 1034 1034 1034 1034 1034 1034 
1034 1034 1034 1034 1034 1034 1034 1034 1034 
1034 1034 1034 1034 1034 1034 1034 1034 1034 
1034 1034 1034 1034 1034 1034 1034 1034 1034 
1034 1034 1034 1034 1034 1034 1034 1034 1034 
1034 1034 1034 1034 1034 1034 1034 1034 1034 
1034 1034 1034 1034 1034 1034 1034 1034 1034 
1034 1034 1034 1034 1034 1034 1034 1034 1034 
1034 1034 1034 1034 1034 1034 1034 1034 1034 
1034 1034 1034 1034 1034 1034 1034 1034 1034 
1034 1034 1034 1034 1034 1034 1034 1034 1034 
1034 1034 1034 1034 1034 1034 1034 1034 1034 
1034 1034 1034 1034 1034 1034 1034 1034 1034 
1034 1034 1034 1034 1034 1034 1034 1034 1034 
1034 1034 1034 1034 1034 1034 1034 1034 1034 
1034 1034 1034 1034 1034 1034 1034 1034 1034 
1034 1034 1034 1034 1034 1034 1034 1034 1034 
1034 1034 1034 1034 1034 1034 1034 1034 1034 
1034 1034 1034 1034 1034 1034 1034 1034 1034 
1034 1034 1034 1034 1034 1034 1034 1034 1034 
1034 1034 1034 1034 1034 1034 1034 1034 1034 
1034 1034 1034 1034 1034 1034 1034 1034 1034 
1034 1034 1034 1034 1034 1034 1034 1034 1034 
1034 1034 1034 1034 1034 1034 1034 1034 1034 
1034 1034 1034 1034 1034 1034 1034 1034 1034 
1034 1034 1034 1034 1034 1034 1034 1034 1034 
1034 1034 1034 1034 1034 1034 1034 1034 1034 
1034 1034 1034 1034 1034 1034 1034 1034 1034 
1034 1034 1034 1034 1034 1034 1034 1034 1034 
1034 1034 1034 1034 1034 1034 1034 1034 1034 
1034 1034 1034 1034 1034 1034 1034 1034 1034 
1034 1034 1034 1034 1034 1034 1034 1034 1034 
1034 1034 1034 1034 1034 1034 1034 1034 1034 
1034 1034 1034 1034 1034 1034 1034 1034 1034 
1034 1034 1034 1034 1034 1034 1034 1034 1034 
1034 1034 1034 1034 1034 1034 1034 1034 1034 
1034 1034 1034 1034 1034 1034 1034 1034 1034 
1034 1034 1034 1034 1034 1034 1034 1034 1034 
1034 1034 1034 1034 1034 1034 1034 1034 1034 
1034 1034 1034 1034 1034 1034 1034 1034 1034 
1034 1034 1034 1034 1034 1034 1034 1034 1034 
1034 1034 1034 1034 1034 1034 1034 1034 1034 
1034 1034 1034 1034 1034 1034 1034 1034 1034 
1034 1034 1034 1034 1034 1034 1034 1034 1034 
1034 1034 1034 1034 1034 1034 1034 1034 1034 
1034 1034 1034 1034 1034 1034 1034 1034 1034 
1034 1034 1034 1034 1034 1034 1034 1034 1034 
1034 1034 1034 1034 1034 1034 1034 1034 1034 
1034 1034 1034 1034 1034 1034 1034 1034 1034 
1034 1034 1034 1034 1034 1034 1034 1034 1034 
1034 1034 1034 1034 1034 1034 1034 1034 1034 
1034 1034 1034 1034 1034 1034 1034 1034 1034 
1034 1034 1034 1034 1034 1034 1034 1034 1034 
1034 1034 1034 1034 1034 1034 1034 1034 1034 
1034 1034 1034 1034 1034 1034 1034 1034 1034 
1034 1034 1034 1034 1034 1034 1034 1034 1034 
1034 1034 1034 1034 1034 1034 1034 1034 1034 
1034 1034 1034 1034 1034 1034 1034 1034 1034 
1034 1034 1034 1034 1034 1034 1034 1034 1034 
1034 1034 1034 1034 1034 1034 1034 1034 1034 
1034 1034 1034 1034 1034 1034 1034 1034 1034 
1034 1034 1034 1034 1034 1034 1034 1034 1034 
1034 1034 1034 1034 1034 1034 1034 1034 1034 
1034 1034 1034 1034 1034 1034 1034 1034 1034 
1034 1034 1034 1034 1034 1034 1034 1034 1034 
1034 1034 1034 1034 1034 1034 1034 1034 1034 
1034 1034 1034 1034 1034 1034 1034 1034 1034 
1034 1034 1034 1034 1034 1034 1034 1034 1034 
1034 1034 1034 1034 1034 1034 1034 1034 1034 
1034 1034 1034 1034 1034 1034 1034 1034 1034 
1034 1034 1034 1034 1034 1034 1034 1034 1034 
1034 1034 1034 1034 1034 1034 1034 1034 1034 
1034 1034 1034 1034 1034 1034 1034 1034 1034 
1034 1034 1034 1034 1034 1034 1034 1034 1034 
1034 1034 1034 1034 1034 1034 1034 1034 1034 
1034 1034 1034 1034 1034 1034 1034 1034 1034 
1034 1034 1034 1034 1034 1034 1034 1034 1034 
1034 1034 1034 1034 1034 1034 1034 1034 1034 
1034 1034 1034 1034 1034 1034 1034 1034 1034 
1034 1034 1034 1034 1034 1034 1034 1034 1034 
1034 1034 1034 1034 1034 1034 1034 1034 1034 
1034 1034 1034 1034 1034 1034 1034 1034 1034 
1034 1034 1034 1034 1034 1034 1034 1034 1034 
1034 1034 1034 1034 1034 1034 1034 1034 1034 
1034 1034 1034 1034 1034 1034 1034 1034 1034 
1034 1034 1034 1034 1034 1034 1034 1034 1034 
1034 1034 1034 1034 1034 1034 1034 1034 1034 
1034 1034 1034 1034 1034 1034 1034 1034 1034 
1034 1034 1034 1034 1034 1034 1034 1034 1034 
1034 1034 1034 1034 1034 1034 1034 1034 1034 
1034 1034 1034 1034 1034 1034 1034 1034 1034 
1034 1034 1034 1034 1034 1034 1034 1034 1034 
1034 1034 1034 1034 1034 1034 1034 1034 1034 
1034 1034 1034 1034 1034 1034 1034 1034 1034 
1034 1034 1034 1034 1034 1034 1034 1034 1034 
1034 1034 1034 1034 1034 1034 1034 1034 1034 
1034 1034 1034 1034 1034 1034 1034 1034 1034 
1034 1034 1034 1034 1034 1034 1034 1034 1034 
1034 1034 1034 1034 1034 1034 1034 1034 1034 
1034 1034 1034 1034 1034 1034 1034 1034 1034 
1034 1034 1034 1034 1034 1034 1034 1034 1034 
1034 1034 1034 1034 1034 1034 1034 1034 1034 
1034 1034 1034 1034 1034 1034 1034 1034 1034 
1034 1034 1034 1034 1034 1034 1034 1034 1034 
1034 1034 1034 1034 1034 1034 1034 1034 1034 
1034 1034 1034 1034 1034 1034 1034 1034 1034 
1034 1034 1034 1034 1034 1034 1034 1034 1034 
1034 1034 1034 1034 1034 1034 1034 1034 1034 
1034 1034 1034 1034 1034 1034 1034 1034 1034 
1034 1034 1034 1034 1034 1034 1034 1034 1034 
1034 1034 1034 1034 1034 1034 1034 1034 1034 
1034 1034 1034 1034 1034 1034 1034 1034 1034 
1034 1034 1034 1034 1034 1034 1034 1034 1034 
1034 1034 1034 1034 1034 1034 1034 1034 1034 
1034 1034 1034 1034 1034 1034 1034 1034 1034 
1034 1034 1034 1034 1034 1034 1034 1034 1034 
1034 1034 1034 1034 1034 1034 1034 1034 1034 
1034 1034 1034 1034 1034 1034 1034 1034 1034 
1034 1034 1034 1034 1034 1034 1034 1034 1034 
1034 1034 1034 1034 1034 1034 1034 1034 1034 
1034 1034 1034 1034 1034 1034 1034 1034 1034 
1034 1034 1034 1034 1034 1034 1034 1034 1034 
1034 1034 1034 1034 1034 1034 1034 1034 1034 
1034 1034 1034 1034 1034 1034 1034 1034 1034 
1034 1034 1034 1034 1034 1034 1034 1034 1034 
1034 1034 1034 1034 1034 1034 1034 1034 1034 
1034 1034 1034 1034 1034 1034 1034 1034 1034 
1034 1034 1034 1034 1034 1034 1034 1034 1034 
1034 1034 1034 1034 1034 1034 1034 1034 1034 
1034 1034 1034 1034 1034 1034 1034 1034 1034 
1034 1034 1034 1034 1034 1034 1034 1034 1034 
1034 1034 1034 1034 1034 1034 1034 1034 1034 
1034 1034 1034 1034 1034 1034 1034 1034 1034 
1034 1034 1034 1034 1034 1034 1034 1034 1034 
1034 1034 1034 1034 1034 1034 1034 1034 1034 
1034 1034 1034 1034 1034 1034 1034 1034 1034 
1034 1034 1034 1034 1034 1034 1034 1034 1034 
1034 1034 1034 1034 1034 1034 1034 1034 1034 
1034 1034 1034 1034 1034 1034 1034 1034 1034 
1034 1034 1034 1034 1034 1034 1034 1034 1034 
1034 1034 1034 1034 1034 1034 1034 1034 1034 
1034 1034 1034 1034 1034 1034 1034 1034 1034 
1034 1034 1034 1034 1034 1034 1034 1034 1034 
1034 1034 1034 1034 1034 1034 1034 1034 1034 
1034 1034 1034 1034 1034 1034 1034 1034 1034 
1034 1034 1034 1034 1034 1034 1034 1034 1034 
1034 1034 1034 1034 1034 1034 1034 1034 1034 
1034 1034 1034 1034 1034 1034 1034 1034 1034 
1034 1034 1034 1034 1034 1034 1034 1034 1034 
1034 1034 1034 1034 1034 1034 1034 1034 1034 
1034 1034 1034 1034 1034 1034 1034 1034 1034 
1034 1034 1034 1034 1034 1034 1034 1034 1034 
1034 1034 1034 1034 1034 1034 1034 1034 1034 
1034 1034 1034 1034 1034 1034 1034 1034 1034 
1034 1034 1034 1034 1034 1034 1034 1034 1034 
1034 1034 1034 1034 1034 1034 1034 1034 1034 
1034 1034 1034 1034 1034 1034 1034 1034 1034 
1034 1034 1034 1034 1034 1034 1034 1034 1034 
1034 1034 1034 1034 1034 1034 1034 1034 1034 
1034 1034 1034 1034 1034 1034 1034 1034 1034 
1034 1034 1034 1034 1034 1034 1034 1034 1034 
1034 1034 1034 1034 1034 1034 1034 1034 1034 
1034 1034 1034 1034 1034 1034 1034 1034 1034 
1034 1034 1034 1034 1034 1034 1034 1034 1034 
1034 1034 1034 1034 1034 1034 1034 1034 1034 
1034 1034 1034 1034 1034 1034 1034 1034 1034 
1034 1034 1034 1034 1034 1034 1034 1034 1034 
1034 1034 1034 1034 1034 1034 1034 1034 1034 
1034 1034 1034 1034 1034 1034 1034 1034 1034 
1034 1034 1034 1034 1034 1034 1034 1034 1034 
1034 1034 1034 1034 1034 1034 1034 1034 1034 
1034 1034 1034 1034 1034 1034 1034 1034 1034 
1034 1034 1034 1034 1034 1034 1034 1034 1034 
1034 1034 1034 1034 1034 1034 1034 1034 1034 
1034 1034 1034 1034 1034 1034 1034 1034 1034 
1034 1034 1034 1034 1034 1034 1034 1034 1034 
1034 1034 1034 1034 1034 1034 1034 1034 1034 
1034 1034 1034 1034 1034 1034 1034 1034 1034 
1034 1034 1034 1034 1034 1034 1034 1034 1034 
1034 1034 1034 1034 1034 1034 1034 1034 1034 
1034 1034 1034 1034 1034 1034 1034 1034 1034 
1034 1034 1034 1034 1034 1034 1034 1034 1034 
1034 1034 1034 1034 1034 1034 1034 1034 1034 
1034 1034 1034 1034 1034 1034 1034 1034 1034 
1034 1034 1034 1034 1034 1034 1034 1034 1034 
1034 1034 1034 1034 1034 1034 1034 1034 1034 
1034 1034 1034 1034 1034 1034 1034 1034 1034 
1034 1034 1034 1034 1034 1034 1034 1034 1034 
1034 1034 1034 1034 1034 1034 1034 1034 1034 
1034 1034 1034 1034 1034 1034 1034 1034 1034 
1034 1034 1034 1034 1034 1034 1034 1034 1034 
1034 1034 1034 1034 1034 1034 1034 1034 1034 
1034 1034 1034 1034 1034 1034 1034 1034 1034 
1034 1034 1034 1034 1034 1034 1034 1034 1034 
1034 1034 1034 1034 1034 1034 1034 1034 1034 
1034 1034 1034 1034 1034 1034 1034 1034 1034 
1034 1034 1034 1034 1034 1034 1034 1034 1034 
1034 1034 1034 1034 1034 1034 1034 1034 1034 
1034 1034 1034 1034 1034 1034 1034 1034 1034 
1034 1034 1034 1034 1034 1034 1034 1034 1034 
1034 1034 1034 1034 1034 1034 1034 1034 1034 
1034 1034 1034 1034 1034 1034 1034 1034 1034 
1034 1034 1034 1034 1034 1034 1034 1034 1034 
1034 1034 1034 1034 1034 1034 1034 1034 1034 
1034 1034 1034 1034 1034 1034 1034 1034 1034 
1034 1034 1034 1034 1034 1034 1034 1034 1034 
1034 1034 1034 1034 1034 1034 1034 1034 1034 
1034 1034 1034 1034 1034 1034 1034 1034 1034 
1034 1034 1034 1034 1034 1034 1034 1034 1034 
1034 1034 1034 1034 1034 1034 1034 1034 1034 
1034 1034 1034 1034 1034 1034 1034 1034 1034 
1034 1034 1034 1034 1034 1034 1034 1034 1034 
1034 1034 1034 1034 1034 1034 1034 1034 1034 
1034 1034 1034 1034 1034 1034 1034 1034 1034 
1034 1034 1034 1034 1034 1034 1034 1034 1034 
1034 1034 1034 1034 1034 1034 1034 1034 1034 
1034 1034 1034 1034 1034 1034 1034 1034 1034 
1034 1034 1034 1034 1034 1034 1034 1034 1034 
1034 1034 1034 1034 1034 1034 1034 1034 1034 
1034 1034 1034 1034 1034 1034 1034 1034 1034 
1034 1034 1034 1034 1034 1034 1034 1034 1034 
1034 1034 1034 1034 1034 1034 1034 1034 1034 
1034 1034 1034 1034 1034 1034 1034 1034 1034 
1034 1034 1034 1034 1034 1034 1034 1034 1034 
1034 1034 1034 1034 1034 1034 1034 1034 1034 
1034 1034 1034 1034 1034 1034 1034 1034 1034 
1034 1034 1034 1034 1034 1034 1034 1034 1034 
1034 1034 1034 1034 1034 1034 1034 1034 1034 
1034 1034 1034 1034 1034 1034 1034 1034 1034 
1034 1034 1034 1034 1034 1034 1034 1034 1034 
1034 1034 1034 1034 1034 1034 1034 1034 1034 
1034 1034 1034 1034 1034 1034 1034 1034 1034 
1034 1034 1034 1034 1034 1034 1034 1034 1034 
1034 1034 1034 1034 1034 1034 1034 1034 1034 
1034 1034 1034 1034 1034 1034 1034 1034 1034 
1034 1034 1034 1034 1034 1034 1034 1034 1034 
1034 1034 1034 1034 1034 1034 1034 1034 1034 
1034 1034 1034 1034 1034 1034 1034 1034 1034 
1034 1034 1034 1034 1034 1034 1034 1034 1034 
1034 1034 1034 1034 1034 1034 1034 1034 1034 
1034 1034 1034 1034 1034 1034 1034 1034 1034 
1034 1034 1034 1034 1034 1034 1034 1034 1034 
1034 1034 1034 1034 1034 1034 1034 1034 1034 
1034 1034 1034 1034 1034 1034 1034 1034 1034 
1034 1034 1034 1034 1034 1034 1034 1034 1034 
1034 1034 1034 1034 1034 1034 1034 1034 1034 
1034 1034 1034 1034 1034 1034 1034 1034 1034 
1034 1034 1034 1034 1034 1034 1034 1034 1034 
1034 1034 1034 1034 1034 1034 1034 1034 1034 
1034 1034 1034 1034 1034 1034 1034 1034 1034 
1034 1034 1034 1034 1034 1034 1034 1034 1034 
1034 1034 1034 1034 1034 1034 1034 1034 1034 
1034 1034 1034 1034 1034 1034 1034 1034 1034 
1034 1034 1034 1034 1034 1034 1034 1034 1034 
1034 1034 1034 1034 1034 1034 1034 1034 1034 
1034 1034 1034 1034 1034 1034 1034 1034 1034 
1034 1034 1034 1034 1034 1034 1034 1034 1034 
1034 1034 1034 1034 1034 1034 1034 1034 1034 
1034 1034 1034 1034 1034 1034 1034 1034 1034 
1034 1034 1034 1034 1034 1034 1034 1034 1034 
1034 1034 1034 1034 1034 1034 1034 1034 1034 
1034 1034 1034 1034 1034 1034 1034 1034 1034 
1034 1034 1034 1034 1034 1034 1034 1034 1034 
1034 1034 1034 1034 1034 1034 1034 1034 1034 
1034 1034 1034 1034 1034 1034 1034 1034 1034 
1034 1034 1034 1034 1034 1034 1034 1034 1034 
1034 1034 1034 1034 1034 1034 1034 1034 1034 
1034 1034 1034 1034 1034 1034 1034 1034 1034 
1034 
