# vtk DataFile Version 4.2
vtk output
ASCII
DATASET POLYDATA
POINTS 19824 float
-56.3778 55.5417 -7.2769 -56.4599 55.7517 -7.62313 -56.6015 55.2749 -7.62523 
-55.8819 55.5607 -7.71164 -56.2642 55.0965 -7.52618 -55.2554 56.3975 -8.04539 
-55.1372 56.8566 -8.74449 -55.6786 56.5854 -8.52465 -54.473 56.2534 -8.11741 
-54.4775 56.7912 -8.36449 -54.0466 56.6231 -8.59593 -56.1915 56.0569 -8.46538 
-56.6921 55.5416 -8.22828 -55.1008 55.7542 -7.94157 -54.7462 55.4856 -8.53225 
-54.2116 56.0617 -8.74312 -56.3503 54.3952 -7.98781 -56.7411 54.5998 -8.41921 
-55.8348 54.4418 -8.3186 -55.3212 54.9779 -8.43818 -56.4369 53.6726 -8.29272 
-56.7051 53.5426 -8.65436 -55.9997 53.4288 -8.62584 -56.3308 53.1326 -8.49993 
-58.0098 51.3726 -8.07296 -58.0691 51.8171 -8.61091 -58.5618 51.1621 -8.45804 
-57.3542 51.3035 -8.16658 -57.5451 51.8673 -8.35302 -56.932 51.6459 -8.74747 
-58.3668 50.6668 -8.03256 -58.6943 50.3362 -8.38126 -57.6845 50.4508 -8.0927 
-56.8486 50.8458 -8.67079 -58.2966 49.7852 -8.18597 -58.7146 49.495 -8.61274 
-57.6808 49.369 -8.58729 -57.1362 50.0322 -8.51857 -58.2535 49.0124 -8.60827 
-55.2689 56.8833 -9.65854 -55.8048 56.447 -9.37792 -54.4818 57.0683 -9.37909 
-53.9606 56.7189 -9.46892 -56.2598 55.8403 -9.59282 -56.6735 55.2819 -9.28358 
-54.6124 55.4512 -9.29262 -54.2692 55.9759 -9.71051 -56.9915 54.2948 -9.27761 
-55.423 54.2592 -9.10906 -54.9747 54.588 -9.61004 -57.1372 53.4052 -9.11798 
-57.3485 53.9186 -9.82906 -57.5821 53.2533 -9.49799 -55.5333 53.6702 -9.26003 
-55.2974 53.9342 -9.59026 -57.3242 52.3992 -9.01309 -57.7573 52.6627 -9.68288 
-56.19 52.6823 -8.93829 -55.3796 53.0274 -9.28845 -55.0984 52.4727 -9.13954 
-54.4662 52.2108 -9.2434 -54.5686 52.8925 -9.50433 -53.9681 52.5888 -9.82472 
-58.4371 51.3625 -9.03184 -58.0122 51.8689 -9.44619 -56.3182 51.8227 -9.30877 
-56.5033 51.3715 -9.32594 -56.0137 51.3242 -9.47649 -55.3825 51.5207 -9.1571 
-54.5811 51.4027 -9.46819 -54.1276 51.8939 -9.59006 -58.4106 51.2331 -9.61873 
-58.8446 50.5306 -9.26202 -56.3269 51.0809 -9.40562 -56.2656 50.4612 -8.99488 
-55.539 50.2729 -9.15634 -54.9973 50.7409 -9.44178 -59.1791 49.3435 -9.06971 
-59.3752 49.9017 -9.78353 -59.622 49.1787 -9.47014 -56.9206 49.4203 -8.87165 
-56.1533 49.4481 -9.06857 -55.681 49.5052 -9.43724 -55.2573 50.0083 -9.76747 
-59.3677 48.6441 -9.18327 -59.6379 48.5713 -9.76774 -58.69 48.5967 -9.01911 
-57.9046 48.6076 -9.18661 -57.2269 48.7853 -9.24086 -56.7657 48.2589 -9.67134 
-56.5309 48.7364 -9.23963 -55.968 48.7824 -9.57625 -59.1213 48.1814 -9.47821 
-58.3854 48.0787 -9.64121 -56.2152 48.2756 -9.73008 -54.1806 57.3903 -10.0176 
-54.3515 57.7299 -10.7107 -54.6248 57.4752 -10.3848 -53.8407 57.418 -10.602 
-55.1769 57.035 -10.6155 -55.6565 56.5196 -10.3383 -53.9703 56.5103 -10.3074 
-56.4116 55.3392 -10.1458 -56.0527 55.8358 -10.4314 -54.7098 55.3431 -10.2628 
-54.3568 55.9423 -10.7792 -56.3797 55.2287 -10.7214 -56.8404 54.7166 -10.3876 
-54.6509 54.7766 -10.7408 -57.338 54.0198 -10.8042 -57.6796 53.3405 -10.2458 
-54.9577 53.5749 -9.79601 -54.4857 53.9931 -10.3468 -54.2783 53.3128 -10.0131 
-53.8529 53.294 -10.5319 -57.9252 52.433 -10.438 -53.7179 52.5031 -10.4488 
-58.2125 51.616 -10.1004 -58.2834 51.8638 -10.8468 -58.5971 51.1875 -10.2886 
-56.2398 51.4575 -9.67429 -54.2797 51.2973 -10.0032 -53.8839 51.8246 -10.4082 
-59.0448 50.6305 -10.4137 -54.7476 50.5088 -10.3069 -54.2403 50.9994 -10.8512 
-59.4372 50.1746 -10.585 -59.7521 49.4616 -10.3676 -55.5788 49.172 -10.3002 
-55.1955 49.7486 -10.5649 -59.8123 48.5566 -10.5916 -57.5256 48.1926 -9.71027 
-55.8939 48.3133 -10.4368 -59.1458 47.9032 -10.1581 -58.1156 47.465 -10.0378 
-58.8513 47.1337 -10.6256 -57.0922 47.4985 -10.0851 -56.3493 47.8027 -10.366 
-56.6508 47.2044 -10.6337 -58.3035 46.6474 -10.1303 -58.6339 46.3097 -10.4697 
-57.6157 46.4449 -10.1184 -56.9447 46.5439 -10.6113 -58.2417 45.8225 -10.1817 
-58.615 45.3881 -10.7841 -57.7192 45.5594 -10.3117 -57.2123 45.8106 -10.5726 
-58.1381 45.1583 -10.4654 -53.4121 58.2523 -11.1997 -53.2988 58.6815 -11.4431 
-53.5538 58.5764 -11.4634 -53.1164 58.4841 -11.4455 -54.0325 58.0727 -11.5814 
-54.8163 57.5597 -11.2467 -53.3956 57.4673 -11.1552 -52.8995 57.922 -11.5903 
-55.3279 57.0103 -11.7843 -55.8019 56.3314 -11.272 -53.8448 56.555 -11.384 
-53.1066 57.0868 -11.8309 -56.215 55.6238 -11.1514 -56.2721 55.8571 -11.864 
-56.5891 55.1976 -11.3373 -54.6031 55.404 -11.2813 -54.3019 55.8227 -11.6901 
-57.017 54.6289 -11.4469 -54.1901 54.9979 -11.5602 -53.9444 54.3158 -10.9737 
-53.2409 54.235 -11.2166 -53.505 54.7182 -11.5139 -53.03 54.4526 -11.7222 
-57.3871 54.1631 -11.6324 -57.6956 53.4601 -11.3758 -53.4112 53.5348 -11.0932 
-52.9644 53.7997 -11.6209 -58.0091 52.6166 -11.4656 -53.6177 52.5145 -11.1623 
-53.27 53.0369 -11.7895 -58.3593 52.1284 -11.5926 -58.799 51.416 -11.3644 
-53.8797 51.5786 -11.5138 -59.2554 50.6744 -11.1062 -59.3009 50.9312 -11.8619 
-59.6291 50.2358 -11.289 -54.5993 50.4148 -11.3589 -54.2406 50.9072 -11.8414 
-59.9641 49.4412 -11.4076 -55.3662 49.2536 -11.0983 -55.027 49.7554 -11.3896 
-60.199 48.4465 -11.1194 -60.3638 48.9386 -11.7972 -60.6118 48.2421 -11.4587 
-55.6823 48.6812 -11.4387 -55.3938 49.1764 -11.7155 -60.3367 47.7428 -11.2256 
-60.659 47.4304 -11.7957 -59.6716 47.6729 -10.9348 -56.3542 47.2806 -11.0671 
-56.0368 47.7748 -11.3772 -59.9749 47.0805 -11.5023 -59.3006 47.0002 -11.3358 
-58.9538 46.2931 -11.2723 -56.6566 46.7348 -11.4589 -56.3649 47.1889 -11.6719 
-58.9185 45.2686 -11.6955 -57.4442 45.032 -10.8478 -56.875 45.7172 -11.4388 
-58.1456 44.6172 -10.9189 -58.5714 44.5546 -11.5258 -57.4873 44.3297 -11.1933 
-56.9625 44.6668 -11.6119 -57.935 44.0869 -11.5937 -57.2407 44.0889 -11.7155 
-53.2111 58.406 -11.7928 -54.1944 57.9428 -12.7881 -54.8348 57.5468 -12.255 
-53.2735 58.1585 -12.5986 -52.2694 58.0251 -12.4665 -52.1548 57.5542 -12.0433 
-51.4251 57.4285 -12.2652 -51.409 57.7737 -12.4809 -50.9058 57.4322 -12.7986 
-55.354 57.0048 -12.7761 -55.8109 56.4695 -12.3045 -53.6036 56.4943 -12.3284 
-53.1077 56.6945 -12.5428 -52.1442 56.9892 -12.3533 -51.2918 57.1232 -12.441 
-56.3179 55.9968 -12.7898 -56.8039 55.2994 -12.2713 -54.2152 55.4112 -12.0188 
-53.8043 55.8262 -12.4087 -57.2437 54.6539 -12.1166 -57.282 54.9164 -12.8567 
-57.5824 54.2168 -12.3269 -53.5029 55.0361 -12.224 -52.9158 54.5095 -12.5478 
-57.9125 53.4261 -12.442 -52.8008 53.6155 -12.5298 -58.2157 52.6402 -12.1129 
-58.3058 52.9369 -12.8669 -58.5791 52.2205 -12.3044 -53.7883 52.2317 -12.2648 
-53.3338 53.0042 -12.7945 -58.9393 51.6279 -12.5211 -54.0218 51.4363 -12.317 
-59.2991 50.9922 -12.8145 -59.6757 50.3485 -12.2204 -54.7962 50.4003 -12.3006 
-54.2905 51.0278 -12.4612 -59.9801 49.6629 -12.4808 -55.2691 49.5863 -12.1322 
-55.6685 49.3178 -12.491 -55.4016 49.993 -12.6848 -60.3566 49.0453 -12.7579 
-60.7217 48.3602 -12.1958 -55.9663 48.4461 -12.4873 -60.8656 47.6761 -12.6093 
-56.2659 47.6055 -12.1451 -56.61 47.2031 -12.3693 -56.3617 47.9394 -12.8998 
-60.2844 46.2976 -11.9126 -60.9108 46.6709 -12.482 -59.485 46.5161 -11.7294 
-56.8026 46.4807 -12.5147 -61.0866 45.6045 -12.1224 -61.3738 45.8895 -12.7705 
-61.6396 45.1879 -12.4595 -60.5249 45.2283 -12.1206 -59.5354 45.6888 -12.0202 
-56.91 45.3718 -12.5381 -61.3168 44.7318 -12.2146 -61.6329 44.6729 -12.7259 
-60.9667 44.5373 -12.3974 -60.3728 44.9294 -12.6948 -59.4093 44.9923 -12.5563 
-58.876 44.6187 -12.2717 -56.9944 44.4115 -12.2551 -61.4035 44.3197 -12.4656 
-58.4265 44.0973 -12.5765 -57.5131 44.0945 -12.4071 -54.1616 57.9023 -13.7737 
-54.8471 57.5159 -13.2635 -53.4618 58.0848 -13.3986 -52.376 57.9654 -13.4986 
-51.2878 57.8454 -13.1633 -50.7798 57.5651 -13.3871 -55.474 56.9951 -13.8028 
-55.8968 56.5121 -13.219 -53.3691 56.2114 -12.8459 -52.6096 56.2768 -13.0306 
-51.2974 56.6461 -12.9548 -50.5743 57.128 -13.6083 -50.4943 56.378 -13.2393 
-49.8809 56.5026 -13.796 -56.3804 56.1666 -13.5897 -56.8246 55.6148 -13.4452 
-53.1772 55.5201 -12.9351 -52.7757 55.6548 -13.6711 -52.0309 56.1813 -13.5602 
-51.0995 55.9848 -13.5304 -50.3486 56.0051 -13.4057 -57.3236 55.0135 -13.8109 
-57.6707 54.3325 -13.2483 -52.6275 54.4598 -13.361 -58.0324 53.6604 -13.4519 
-52.1876 53.9158 -13.457 -52.2377 53.4765 -13.047 -51.3093 53.8233 -13.5875 
-51.2463 53.4979 -13.2167 -50.4526 53.4239 -13.2837 -50.5017 53.7334 -13.5035 
-49.9534 53.3808 -13.8015 -58.3905 53.2 -13.6258 -58.6776 52.4824 -13.3999 
-54.1725 52.4983 -13.0264 -54.6245 52.3153 -13.5066 -54.1387 52.9078 -13.6709 
-53.3875 53.0699 -13.463 -52.3109 53.017 -13.4278 -50.9502 53.0096 -13.4014 
-50.2802 53.1095 -13.4503 -58.9538 51.6412 -13.5491 -54.4667 51.5397 -12.9127 
-54.9556 51.6169 -13.6796 -59.2968 50.9821 -13.8035 -59.6506 50.3577 -13.2163 
-55.1752 50.7513 -13.1195 -55.6593 50.2029 -13.3345 -55.3812 50.9325 -13.8856 
-59.9592 49.6559 -13.4922 -55.7354 49.5322 -13.5645 -60.3257 49.0134 -13.7674 
-60.7025 48.3917 -13.2159 -55.8835 48.6695 -13.4324 -60.8414 47.519 -13.472 
-56.6472 47.3899 -13.2434 -56.21 48.0861 -13.5599 -60.9946 46.6441 -13.5035 
-56.8491 46.4684 -13.3867 -61.37 46.0038 -13.7803 -61.6898 45.2185 -13.4098 
-57.2486 45.6033 -13.2441 -57.5473 45.2018 -13.6192 -57.2059 45.9549 -13.6408 
-61.1155 44.8002 -13.3515 -61.2185 44.4955 -12.7653 -60.1021 44.8026 -13.328 
-59.2914 44.5067 -13.0445 -59.8012 44.5368 -13.5783 -57.2857 44.7514 -12.9512 
-57.6581 44.0881 -13.4365 -61.4374 43.9157 -13.6025 -61.6213 43.3122 -13.7955 
-61.3148 43.4293 -13.3373 -60.9993 43.5232 -13.8137 -59.3192 44.0103 -13.5286 
-58.291 43.5464 -13.1308 -58.7269 43.1379 -13.5171 -57.5025 43.3323 -13.293 
-57.2283 43.7032 -13.5083 -57.0936 43.4623 -13.5097 -61.2396 42.9648 -13.6002 
-58.2236 42.7057 -13.2335 -58.4851 42.4913 -13.5979 -57.7575 42.6714 -13.4736 
-57.239 43.1446 -13.494 -58.2626 42.2678 -13.4591 -51.1169 26.2649 -13.079 
-51.3613 26.8458 -13.8053 -51.9186 26.3595 -13.3447 -50.0239 26.4209 -13.0334 
-50.2622 26.8923 -13.6194 -49.0403 26.4162 -13.0228 -49.2757 26.9272 -13.557 
-48.1027 26.2963 -13.1145 -48.5472 26.8072 -13.4308 -47.8595 26.543 -13.808 
[...]
CELL_DATA 39804
SCALARS scalars float
LOOKUP_TABLE default
2008 2008 2008 2008 2008 2008 2008 2008 2008 
2008 2008 2008 2008 2008 2008 2008 2008 2008 
2008 2008 2008 2008 2008 2008 2008 2008 2008 
2008 2008 2008 2008 2008 2008 2008 2008 2008 
2008 2008 2008 2008 2008 2008 2008 2008 2008 
2008 2008 2008 2008 2008 2008 2008 2008 2008 
2008 2008 2008 2008 2008 2008 2008 2008 2008 
2008 2008 2008 2008 2008 2008 2008 2008 2008 
2008 2008 2008 2008 2008 2008 2008 2008 2008 
2008 2008 2008 2008 2008 2008 2008 2008 2008 
2008 2008 2008 2008 2008 2008 2008 2008 2008 
2008 2008 2008 2008 2008 2008 2008 2008 2008 
2008 2008 2008 2008 2008 2008 2008 2008 2008 
2008 2008 2008 2008 2008 2008 2008 2008 2008 
2008 2008 2008 2008 2008 2008 2008 2008 2008 
2008 2008 2008 2008 2008 2008 2008 2008 2008 
2008 2008 2008 2008 2008 2008 2008 2008 2008 
2008 2008 2008 2008 2008 2008 2008 2008 2008 
2008 2008 2008 2008 2008 2008 2008 2008 2008 
2008 2008 2008 2008 2008 2008 2008 2008 2008 
2008 2008 2008 2008 2008 2008 2008 2008 2008 
2008 2008 2008 2008 2008 2008 2008 2008 2008 
2008 2008 2008 2008 2008 2008 2008 2008 2008 
2008 2008 2008 2008 2008 2008 2008 2008 2008 
2008 2008 2008 2008 2008 2008 2008 2008 2008 
2008 2008 2008 2008 2008 2008 2008 2008 2008 
2008 2008 2008 2008 2008 2008 2008 2008 2008 
2008 2008 2008 2008 2008 2008 2008 2008 2008 
2008 2008 2008 2008 2008 2008 2008 2008 2008 
2008 2008 2008 2008 2008 2008 2008 2008 2008 
2008 2008 2008 2008 2008 2008 2008 2008 2008 
2008 2008 2008 2008 2008 2008 2008 2008 2008 
2008 2008 2008 2008 2008 2008 2008 2008 2008 
2008 2008 2008 2008 2008 2008 2008 2008 2008 
2008 2008 2008 2008 2008 2008 2008 2008 2008 
2008 2008 2008 2008 2008 2008 2008 2008 2008 
2008 2008 2008 2008 2008 2008 2008 2008 2008 
2008 2008 2008 2008 2008 2008 2008 2008 2008 
2008 2008 2008 2008 2008 2008 2008 2008 2008 
2008 2008 2008 2008 2008 2008 2008 2008 2008 
2008 2008 2008 2008 2008 2008 2008 2008 2008 
2008 2008 2008 2008 2008 2008 2008 2008 2008 
2008 2008 2008 2008 2008 2008 2008 2008 2008 
2008 2008 2008 2008 2008 2008 2008 2008 2008 
2008 2008 2008 2008 2008 2008 2008 2008 2008 
2008 2008 2008 2008 2008 2008 2008 2008 2008 
2008 2008 2008 2008 2008 2008 2008 2008 2008 
2008 2008 2008 2008 2008 2008 2008 2008 2008 
2008 2008 2008 2008 2008 2008 2008 2008 2008 
2008 2008 2008 2008 2008 2008 2008 2008 2008 
2008 2008 2008 2008 2008 2008 2008 2008 2008 
2008 2008 2008 2008 2008 2008 2008 2008 2008 
2008 2008 2008 2008 2008 2008 2008 2008 2008 
2008 2008 2008 2008 2008 2008 2008 2008 2008 
2008 2008 2008 2008 2008 2008 2008 2008 2008 
2008 2008 2008 2008 2008 2008 2008 2008 2008 
2008 2008 2008 2008 2008 2008 2008 2008 2008 
2008 2008 2008 2008 2008 2008 2008 2008 2008 
2008 2008 2008 2008 2008 2008 2008 2008 2008 
2008 2008 2008 2008 2008 2008 2008 2008 2008 
2008 2008 2008 2008 2008 2008 2008 2008 2008 
2008 2008 2008 2008 2008 2008 2008 2008 2008 
2008 2008 2008 2008 2008 2008 2008 2008 2008 
2008 2008 2008 2008 2008 2008 2008 2008 2008 
2008 2008 2008 2008 2008 2008 2008 2008 2008 
2008 2008 2008 2008 2008 2008 2008 2008 2008 
2008 2008 2008 2008 2008 2008 2008 2008 2008 
2008 2008 2008 2008 2008 2008 2008 2008 2008 
2008 2008 2008 2008 2008 2008 2008 2008 2008 
2008 2008 2008 2008 2008 2008 2008 2008 2008 
2008 2008 2008 2008 2008 2008 2008 2008 2008 
2008 2008 2008 2008 2008 2008 2008 2008 2008 
2008 2008 2008 2008 2008 2008 2008 2008 2008 
2008 2008 2008 2008 2008 2008 2008 2008 2008 
2008 2008 2008 2008 2008 2008 2008 2008 2008 
2008 2008 2008 2008 2008 2008 2008 2008 2008 
2008 2008 2008 2008 2008 2008 2008 2008 2008 
2008 2008 2008 2008 2008 2008 2008 2008 2008 
2008 2008 2008 2008 2008 2008 2008 2008 2008 
2008 2008 2008 2008 2008 2008 2008 2008 2008 
2008 2008 2008 2008 2008 2008 2008 2008 2008 
2008 2008 2008 2008 2008 2008 2008 2008 2008 
2008 2008 2008 2008 2008 2008 2008 2008 2008 
2008 2008 2008 2008 2008 2008 2008 2008 2008 
2008 2008 2008 2008 2008 2008 2008 2008 2008 
2008 2008 2008 2008 2008 2008 2008 2008 2008 
2008 2008 2008 2008 2008 2008 2008 2008 2008 
2008 2008 2008 2008 2008 2008 2008 2008 2008 
2008 2008 2008 2008 2008 2008 2008 2008 2008 
2008 2008 2008 2008 2008 2008 2008 2008 2008 
2008 2008 2008 2008 2008 2008 2008 2008 2008 
2008 2008 2008 2008 2008 2008 2008 2008 2008 
2008 2008 2008 2008 2008 2008 2008 2008 2008 
2008 2008 2008 2008 2008 2008 2008 2008 2008 
2008 2008 2008 2008 2008 2008 2008 2008 2008 
2008 2008 2008 2008 2008 2008 2008 2008 2008 
2008 2008 2008 2008 2008 2008 2008 2008 2008 
2008 2008 2008 2008 2008 2008 2008 2008 2008 
2008 2008 2008 2008 2008 2008 2008 2008 2008 
2008 2008 2008 2008 2008 2008 2008 2008 2008 
2008 2008 2008 2008 2008 2008 2008 2008 2008 
2008 2008 2008 2008 2008 2008 2008 2008 2008 
2008 2008 2008 2008 2008 2008 2008 2008 2008 
2008 2008 2008 2008 2008 2008 2008 2008 2008 
2008 2008 2008 2008 2008 2008 2008 2008 2008 
2008 2008 2008 2008 2008 2008 2008 2008 2008 
2008 2008 2008 2008 2008 2008 2008 2008 2008 
2008 2008 2008 2008 2008 2008 2008 2008 2008 
2008 2008 2008 2008 2008 2008 2008 2008 2008 
2008 2008 2008 2008 2008 2008 2008 2008 2008 
2008 2008 2008 2008 2008 2008 2008 2008 2008 
2008 2008 2008 2008 2008 2008 2008 2008 2008 
2008 2008 2008 2008 2008 2008 2008 2008 2008 
2008 2008 2008 2008 2008 2008 2008 2008 2008 
2008 2008 2008 2008 2008 2008 2008 2008 2008 
2008 2008 2008 2008 2008 2008 2008 2008 2008 
2008 2008 2008 2008 2008 2008 2008 2008 2008 
2008 2008 2008 2008 2008 2008 2008 2008 2008 
2008 2008 2008 2008 2008 2008 2008 2008 2008 
2008 2008 2008 2008 2008 2008 2008 2008 2008 
2008 2008 2008 2008 2008 2008 2008 2008 2008 
2008 2008 2008 2008 2008 2008 2008 2008 2008 
2008 2008 2008 2008 2008 2008 2008 2008 2008 
2008 2008 2008 2008 2008 2008 2008 2008 2008 
2008 2008 2008 2008 2008 2008 2008 2008 2008 
2008 2008 2008 2008 2008 2008 2008 2008 2008 
2008 2008 2008 2008 2008 2008 2008 2008 2008 
2008 2008 2008 2008 2008 2008 2008 2008 2008 
2008 2008 2008 2008 2008 2008 2008 2008 2008 
2008 2008 2008 2008 2008 2008 2008 2008 2008 
2008 2008 2008 2008 2008 2008 2008 2008 2008 
2008 2008 2008 2008 2008 2008 2008 2008 2008 
2008 2008 2008 2008 2008 2008 2008 2008 2008 
2008 2008 2008 2008 2008 2008 2008 2008 2008 
2008 2008 2008 2008 2008 2008 2008 2008 2008 
2008 2008 2008 2008 2008 2008 2008 2008 2008 
2008 2008 2008 2008 2008 2008 2008 2008 2008 
2008 2008 2008 2008 2008 2008 2008 2008 2008 
2008 2008 2008 2008 2008 2008 2008 2008 2008 
2008 2008 2008 2008 2008 2008 2008 2008 2008 
2008 2008 2008 2008 2008 2008 2008 2008 2008 
2008 2008 2008 2008 2008 2008 2008 2008 2008 
2008 2008 2008 2008 2008 2008 2008 2008 2008 
2008 2008 2008 2008 2008 2008 2008 2008 2008 
2008 2008 2008 2008 2008 2008 2008 2008 2008 
2008 2008 2008 2008 2008 2008 2008 2008 2008 
2008 2008 2008 2008 2008 2008 2008 2008 2008 
2008 2008 2008 2008 2008 2008 2008 2008 2008 
2008 2008 2008 2008 2008 2008 2008 2008 2008 
2008 2008 2008 2008 2008 2008 2008 2008 2008 
2008 2008 2008 2008 2008 2008 2008 2008 2008 
2008 2008 2008 2008 2008 2008 2008 2008 2008 
2008 2008 2008 2008 2008 2008 2008 2008 2008 
2008 2008 2008 2008 2008 2008 2008 2008 2008 
2008 2008 2008 2008 2008 2008 2008 2008 2008 
2008 2008 2008 2008 2008 2008 2008 2008 2008 
2008 2008 2008 2008 2008 2008 2008 2008 2008 
2008 2008 2008 2008 2008 2008 2008 2008 2008 
2008 2008 2008 2008 2008 2008 2008 2008 2008 
2008 2008 2008 2008 2008 2008 2008 2008 2008 
2008 2008 2008 2008 2008 2008 2008 2008 2008 
2008 2008 2008 2008 2008 2008 2008 2008 2008 
2008 2008 2008 2008 2008 2008 2008 2008 2008 
2008 2008 2008 2008 2008 2008 2008 2008 2008 
2008 2008 2008 2008 2008 2008 2008 2008 2008 
2008 2008 2008 2008 2008 2008 2008 2008 2008 
2008 2008 2008 2008 2008 2008 2008 2008 2008 
2008 2008 2008 2008 2008 2008 2008 2008 2008 
2008 2008 2008 2008 2008 2008 2008 2008 2008 
2008 2008 2008 2008 2008 2008 2008 2008 2008 
2008 2008 2008 2008 2008 2008 2008 2008 2008 
2008 2008 2008 2008 2008 2008 2008 2008 2008 
2008 2008 2008 2008 2008 2008 2008 2008 2008 
2008 2008 2008 2008 2008 2008 2008 2008 2008 
2008 2008 2008 2008 2008 2008 2008 2008 2008 
2008 2008 2008 2008 2008 2008 2008 2008 2008 
2008 2008 2008 2008 2008 2008 2008 2008 2008 
2008 2008 2008 2008 2008 2008 2008 2008 2008 
2008 2008 2008 2008 2008 2008 2008 2008 2008 
2008 2008 2008 2008 2008 2008 2008 2008 2008 
2008 2008 2008 2008 2008 2008 2008 2008 2008 
2008 2008 2008 2008 2008 2008 2008 2008 2008 
2008 2008 2008 2008 2008 2008 2008 2008 2008 
2008 2008 2008 2008 2008 2008 2008 2008 2008 
2008 2008 2008 2008 2008 2008 2008 2008 2008 
2008 2008 2008 2008 2008 2008 2008 2008 2008 
2008 2008 2008 2008 2008 2008 2008 2008 2008 
2008 2008 2008 2008 2008 2008 2008 2008 2008 
2008 2008 2008 2008 2008 2008 2008 2008 2008 
2008 2008 2008 2008 2008 2008 2008 2008 2008 
2008 2008 2008 2008 2008 2008 2008 2008 2008 
2008 2008 2008 2008 2008 2008 2008 2008 2008 
2008 2008 2008 2008 2008 2008 2008 2008 2008 
2008 2008 2008 2008 2008 2008 2008 2008 2008 
2008 2008 2008 2008 2008 2008 2008 2008 2008 
2008 2008 2008 2008 2008 2008 2008 2008 2008 
2008 2008 2008 2008 2008 2008 2008 2008 2008 
2008 2008 2008 2008 2008 2008 2008 2008 2008 
2008 2008 2008 2008 2008 2008 2008 2008 2008 
2008 2008 2008 2008 2008 2008 2008 2008 2008 
2008 2008 2008 2008 2008 2008 2008 2008 2008 
2008 2008 2008 2008 2008 2008 2008 2008 2008 
2008 2008 2008 2008 2008 2008 2008 2008 2008 
2008 2008 2008 2008 2008 2008 2008 2008 2008 
2008 2008 2008 2008 2008 2008 2008 2008 2008 
2008 2008 2008 2008 2008 2008 2008 2008 2008 
2008 2008 2008 2008 2008 2008 2008 2008 2008 
2008 2008 2008 2008 2008 2008 2008 2008 2008 
2008 2008 2008 2008 2008 2008 2008 2008 2008 
2008 2008 2008 2008 2008 2008 2008 2008 2008 
2008 2008 2008 2008 2008 2008 2008 2008 2008 
2008 2008 2008 2008 2008 2008 2008 2008 2008 
2008 2008 2008 2008 2008 2008 2008 2008 2008 
2008 2008 2008 2008 2008 2008 2008 2008 2008 
2008 2008 2008 2008 2008 2008 2008 2008 2008 
2008 2008 2008 2008 2008 2008 2008 2008 2008 
2008 2008 2008 2008 2008 2008 2008 2008 2008 
2008 2008 2008 2008 2008 2008 2008 2008 2008 
2008 2008 2008 2008 2008 2008 2008 2008 2008 
2008 2008 2008 2008 2008 2008 2008 2008 2008 
2008 2008 2008 2008 2008 2008 2008 2008 2008 
2008 2008 2008 2008 2008 2008 2008 2008 2008 
2008 2008 2008 2008 2008 2008 2008 2008 2008 
2008 2008 2008 2008 2008 2008 2008 2008 2008 
2008 2008 2008 2008 2008 2008 2008 2008 2008 
2008 2008 2008 2008 2008 2008 2008 2008 2008 
2008 2008 2008 2008 2008 2008 2008 2008 2008 
2008 2008 2008 2008 2008 2008 2008 2008 2008 
2008 2008 2008 2008 2008 2008 2008 2008 2008 
2008 2008 2008 2008 2008 2008 2008 2008 2008 
2008 2008 2008 2008 2008 2008 2008 2008 2008 
2008 2008 2008 2008 2008 2008 2008 2008 2008 
2008 2008 2008 2008 2008 2008 2008 2008 2008 
2008 2008 2008 2008 2008 2008 2008 2008 2008 
2008 2008 2008 2008 2008 2008 2008 2008 2008 
2008 2008 2008 2008 2008 2008 2008 2008 2008 
2008 2008 2008 2008 2008 2008 2008 2008 2008 
2008 2008 2008 2008 2008 2008 2008 2008 2008 
2008 2008 2008 2008 2008 2008 2008 2008 2008 
2008 2008 2008 2008 2008 2008 2008 2008 2008 
2008 2008 2008 2008 2008 2008 2008 2008 2008 
2008 2008 2008 2008 2008 2008 2008 2008 2008 
2008 2008 2008 2008 2008 2008 2008 2008 2008 
2008 2008 2008 2008 2008 2008 2008 2008 2008 
2008 2008 2008 2008 2008 2008 2008 2008 2008 
2008 2008 2008 2008 2008 2008 2008 2008 2008 
2008 2008 2008 2008 2008 2008 2008 2008 2008 
2008 2008 2008 2008 2008 2008 2008 2008 2008 
2008 2008 2008 2008 2008 2008 2008 2008 2008 
2008 2008 2008 2008 2008 2008 2008 2008 2008 
2008 2008 2008 2008 2008 2008 2008 2008 2008 
2008 2008 2008 2008 2008 2008 2008 2008 2008 
2008 2008 2008 2008 2008 2008 2008 2008 2008 
2008 2008 2008 2008 2008 2008 2008 2008 2008 
2008 2008 2008 2008 2008 2008 2008 2008 2008 
2008 2008 2008 2008 2008 2008 2008 2008 2008 
2008 2008 2008 2008 2008 2008 2008 2008 2008 
2008 2008 2008 2008 2008 2008 2008 2008 2008 
2008 2008 2008 2008 2008 2008 2008 2008 2008 
2008 2008 2008 2008 2008 2008 2008 2008 2008 
2008 2008 2008 2008 2008 2008 2008 2008 2008 
2008 2008 2008 2008 2008 2008 2008 2008 2008 
2008 2008 2008 2008 2008 2008 2008 2008 2008 
2008 2008 2008 2008 2008 2008 2008 2008 2008 
2008 2008 2008 2008 2008 2008 2008 2008 2008 
2008 2008 2008 2008 2008 2008 2008 2008 2008 
2008 2008 2008 2008 2008 2008 2008 2008 2008 
2008 2008 2008 2008 2008 2008 2008 2008 2008 
2008 2008 2008 2008 2008 2008 2008 2008 2008 
2008 2008 2008 2008 2008 2008 2008 2008 2008 
2008 2008 2008 2008 2008 2008 2008 2008 2008 
2008 2008 2008 2008 2008 2008 2008 2008 2008 
2008 2008 2008 2008 2008 2008 2008 2008 2008 
2008 2008 2008 2008 2008 2008 2008 2008 2008 
2008 2008 2008 2008 2008 2008 2008 2008 2008 
2008 2008 2008 2008 2008 2008 2008 2008 2008 
2008 2008 2008 2008 2008 2008 2008 2008 2008 
2008 2008 2008 2008 2008 2008 2008 2008 2008 
2008 2008 2008 2008 2008 2008 2008 2008 2008 
2008 2008 2008 2008 2008 2008 2008 2008 2008 
2008 2008 2008 2008 2008 2008 2008 2008 2008 
2008 2008 2008 2008 2008 2008 2008 2008 2008 
2008 2008 2008 2008 2008 2008 2008 2008 2008 
2008 2008 2008 2008 2008 2008 2008 2008 2008 
2008 2008 2008 2008 2008 2008 2008 2008 2008 
2008 2008 2008 2008 2008 2008 2008 2008 2008 
2008 2008 2008 2008 2008 2008 2008 2008 2008 
2008 2008 2008 2008 2008 2008 2008 2008 2008 
2008 2008 2008 2008 2008 2008 2008 2008 2008 
2008 2008 2008 2008 2008 2008 2008 2008 2008 
2008 2008 2008 2008 2008 2008 2008 2008 2008 
2008 2008 2008 2008 2008 2008 2008 2008 2008 
2008 2008 2008 2008 2008 2008 2008 2008 2008 
2008 2008 2008 2008 2008 2008 2008 2008 2008 
2008 2008 2008 2008 2008 2008 2008 2008 2008 
2008 2008 2008 2008 2008 2008 2008 2008 2008 
2008 2008 2008 2008 2008 2008 2008 2008 2008 
2008 2008 2008 2008 2008 2008 2008 2008 2008 
2008 2008 2008 2008 2008 2008 2008 2008 2008 
2008 2008 2008 2008 2008 2008 2008 2008 2008 
2008 2008 2008 2008 2008 2008 2008 2008 2008 
2008 2008 2008 2008 2008 2008 2008 2008 2008 
2008 2008 2008 2008 2008 2008 2008 2008 2008 
2008 2008 2008 2008 2008 2008 2008 2008 2008 
2008 2008 2008 2008 2008 2008 2008 2008 2008 
2008 2008 2008 2008 2008 2008 2008 2008 2008 
2008 2008 2008 2008 2008 2008 2008 2008 2008 
2008 2008 2008 2008 2008 2008 2008 2008 2008 
2008 2008 2008 2008 2008 2008 2008 2008 2008 
2008 2008 2008 2008 2008 2008 2008 2008 2008 
2008 2008 2008 2008 2008 2008 2008 2008 2008 
2008 2008 2008 2008 2008 2008 2008 2008 2008 
2008 2008 2008 2008 2008 2008 2008 2008 2008 
2008 2008 2008 2008 2008 2008 2008 2008 2008 
2008 2008 2008 2008 2008 2008 2008 2008 2008 
2008 2008 2008 2008 2008 2008 2008 2008 2008 
2008 2008 2008 2008 2008 2008 2008 2008 2008 
2008 2008 2008 2008 2008 2008 2008 2008 2008 
2008 2008 2008 2008 2008 2008 2008 2008 2008 
2008 2008 2008 2008 2008 2008 2008 2008 2008 
2008 2008 2008 2008 2008 2008 2008 2008 2008 
2008 2008 2008 2008 2008 2008 2008 2008 2008 
2008 2008 2008 2008 2008 2008 2008 2008 2008 
2008 2008 2008 2008 2008 2008 2008 2008 2008 
2008 2008 2008 2008 2008 2008 2008 2008 2008 
2008 2008 2008 2008 2008 2008 2008 2008 2008 
2008 2008 2008 2008 2008 2008 2008 2008 2008 
2008 2008 2008 2008 2008 2008 2008 2008 2008 
2008 2008 2008 2008 2008 2008 2008 2008 2008 
2008 2008 2008 2008 2008 2008 2008 2008 2008 
2008 2008 2008 2008 2008 2008 2008 2008 2008 
2008 2008 2008 2008 2008 2008 2008 2008 2008 
2008 2008 2008 2008 2008 2008 2008 2008 2008 
2008 2008 2008 2008 2008 2008 2008 2008 2008 
2008 2008 2008 2008 2008 2008 2008 2008 2008 
2008 2008 2008 2008 2008 2008 2008 2008 2008 
2008 2008 2008 2008 2008 2008 2008 2008 2008 
2008 2008 2008 2008 2008 2008 2008 2008 2008 
2008 2008 2008 2008 2008 2008 2008 2008 2008 
2008 2008 2008 2008 2008 2008 2008 2008 2008 
2008 2008 2008 2008 2008 2008 2008 2008 2008 
2008 2008 2008 2008 2008 2008 2008 2008 2008 
2008 2008 2008 2008 2008 2008 2008 2008 2008 
2008 2008 2008 2008 2008 2008 2008 2008 2008 
2008 2008 2008 2008 2008 2008 2008 2008 2008 
2008 2008 2008 2008 2008 2008 2008 2008 2008 
2008 2008 2008 2008 2008 2008 2008 2008 2008 
2008 2008 2008 2008 2008 2008 2008 2008 2008 
2008 2008 2008 2008 2008 2008 2008 2008 2008 
2008 2008 2008 2008 2008 2008 2008 2008 2008 
2008 2008 2008 2008 2008 2008 2008 2008 2008 
2008 2008 2008 2008 2008 2008 2008 2008 2008 
2008 2008 2008 2008 2008 2008 2008 2008 2008 
2008 2008 2008 2008 2008 2008 2008 2008 2008 
2008 2008 2008 2008 2008 2008 2008 2008 2008 
2008 2008 2008 2008 2008 2008 2008 2008 2008 
2008 2008 2008 2008 2008 2008 2008 2008 2008 
2008 2008 2008 2008 2008 2008 2008 2008 2008 
2008 2008 2008 2008 2008 2008 2008 2008 2008 
2008 2008 2008 2008 2008 2008 2008 2008 2008 
2008 2008 2008 2008 2008 2008 2008 2008 2008 
2008 2008 2008 2008 2008 2008 2008 2008 2008 
2008 2008 2008 2008 2008 2008 2008 2008 2008 
2008 2008 2008 2008 2008 2008 2008 2008 2008 
2008 2008 2008 2008 2008 2008 2008 2008 2008 
2008 2008 2008 2008 2008 2008 2008 2008 2008 
2008 2008 2008 2008 2008 2008 2008 2008 2008 
2008 2008 2008 2008 2008 2008 2008 2008 2008 
2008 2008 2008 2008 2008 2008 2008 2008 2008 
2008 2008 2008 2008 2008 2008 2008 2008 2008 
2008 2008 2008 2008 2008 2008 2008 2008 2008 
2008 2008 2008 2008 2008 2008 2008 2008 2008 
2008 2008 2008 2008 2008 2008 2008 2008 2008 
2008 2008 2008 2008 2008 2008 2008 2008 2008 
2008 2008 2008 2008 2008 2008 2008 2008 2008 
2008 2008 2008 2008 2008 2008 2008 2008 2008 
2008 2008 2008 2008 2008 2008 2008 2008 2008 
2008 2008 2008 2008 2008 2008 2008 2008 2008 
2008 2008 2008 2008 2008 2008 2008 2008 2008 
2008 2008 2008 2008 2008 2008 2008 2008 2008 
2008 2008 2008 2008 2008 2008 2008 2008 2008 
2008 2008 2008 2008 2008 2008 2008 2008 2008 
2008 2008 2008 2008 2008 2008 2008 2008 2008 
2008 2008 2008 2008 2008 2008 2008 2008 2008 
2008 2008 2008 2008 2008 2008 2008 2008 2008 
2008 2008 2008 2008 2008 2008 2008 2008 2008 
2008 2008 2008 2008 2008 2008 2008 2008 2008 
2008 2008 2008 2008 2008 2008 2008 2008 2008 
2008 2008 2008 2008 2008 2008 2008 2008 2008 
2008 2008 2008 2008 2008 2008 2008 2008 2008 
2008 2008 2008 2008 2008 2008 2008 2008 2008 
2008 2008 2008 2008 2008 2008 2008 2008 2008 
2008 2008 2008 2008 2008 2008 2008 2008 2008 
2008 2008 2008 2008 2008 2008 2008 2008 2008 
2008 2008 2008 2008 2008 2008 2008 2008 2008 
2008 2008 2008 2008 2008 2008 2008 2008 2008 
2008 2008 2008 2008 2008 2008 2008 2008 2008 
2008 2008 2008 2008 2008 2008 2008 2008 2008 
2008 2008 2008 2008 2008 2008 2008 2008 2008 
2008 2008 2008 2008 2008 2008 2008 2008 2008 
2008 2008 2008 2008 2008 2008 2008 2008 2008 
2008 2008 2008 2008 2008 2008 2008 2008 2008 
2008 2008 2008 2008 2008 2008 2008 2008 2008 
2008 2008 2008 2008 2008 2008 2008 2008 2008 
2008 2008 2008 2008 2008 2008 2008 2008 2008 
2008 2008 2008 2008 2008 2008 2008 2008 2008 
2008 2008 2008 2008 2008 2008 2008 2008 2008 
2008 2008 2008 2008 2008 2008 2008 2008 2008 
2008 2008 2008 2008 2008 2008 2008 2008 2008 
2008 2008 2008 2008 2008 2008 2008 2008 2008 
2008 2008 2008 2008 2008 2008 2008 2008 2008 
2008 2008 2008 2008 2008 2008 2008 2008 2008 
2008 2008 2008 2008 2008 2008 2008 2008 2008 
2008 2008 2008 2008 2008 2008 2008 2008 2008 
2008 2008 2008 2008 2008 2008 2008 2008 2008 
2008 2008 2008 2008 2008 2008 2008 2008 2008 
2008 2008 2008 2008 2008 2008 2008 2008 2008 
2008 2008 2008 2008 2008 2008 2008 2008 2008 
2008 2008 2008 2008 2008 2008 2008 2008 2008 
2008 2008 2008 2008 2008 2008 2008 2008 2008 
2008 2008 2008 2008 2008 2008 2008 2008 2008 
2008 2008 2008 2008 2008 2008 2008 2008 2008 
2008 2008 2008 2008 2008 2008 2008 2008 2008 
2008 2008 2008 2008 2008 2008 2008 2008 2008 
2008 2008 2008 2008 2008 2008 2008 2008 2008 
2008 2008 2008 2008 2008 2008 2008 2008 2008 
2008 2008 2008 2008 2008 2008 2008 2008 2008 
2008 2008 2008 2008 2008 2008 2008 2008 2008 
2008 2008 2008 2008 2008 2008 2008 2008 2008 
2008 2008 2008 2008 2008 2008 2008 2008 2008 
2008 2008 2008 2008 2008 2008 2008 2008 2008 
2008 2008 2008 2008 2008 2008 2008 2008 2008 
2008 2008 2008 2008 2008 2008 2008 2008 2008 