# vtk DataFile Version 4.2
vtk output
ASCII
DATASET POLYDATA
POINTS 10156 float
-10.9895 -26.0991 4.37961 -10.6694 -26.6788 4.80419 -10.4176 -26.4217 4.25095 
-11.6655 -26.1511 4.27193 -11.353 -26.6099 4.98357 -12.0688 -26.6221 4.46169 
-10.6676 -26.0648 3.63826 -10.1524 -26.535 3.35154 -11.3825 -26.0842 3.39629 
-12.0425 -26.5769 3.51044 -15.7217 -26.0964 3.37168 -15.6683 -26.649 3.7785 
-15.1658 -26.4098 3.34704 -16.4007 -26.1728 3.24705 -16.3453 -26.6115 3.98086 
-16.9366 -26.4952 3.68197 -24.8612 -26.2365 3.54361 -24.5307 -26.4717 3.8104 
-24.3314 -26.4385 3.46164 -25.7973 -26.1519 3.38994 -25.3931 -26.4033 4.00828 
-26.963 -26.1524 3.2187 -26.6545 -26.6486 4.00827 -27.327 -26.8735 3.25717 
-10.7242 -26.1959 2.76681 -10.2917 -26.4612 2.50976 -11.3017 -26.3787 2.52056 
-11.8023 -26.5926 2.78357 -14.9215 -26.1708 2.77324 -14.6169 -26.7589 2.92778 
-14.4173 -26.5129 2.48622 -15.617 -26.1036 2.61855 -16.3191 -26.6058 2.41454 
-16.8589 -26.4876 3.0708 -24.7315 -26.7292 2.98533 -25.8349 -26.5937 2.86009 
-26.3491 -26.5658 2.25718 -26.5053 -26.0851 2.61811 -27.6522 -26.4163 2.87166 
-27.4057 -26.2097 2.30894 -27.8764 -26.5013 2.44669 -8.91555 -26.2452 1.50883 
-8.57286 -26.4974 1.78879 -8.39583 -26.4464 1.46107 -9.45146 -26.2615 1.37453 
-9.32418 -26.4271 1.86139 -10.8249 -26.7627 2.16462 -9.90608 -26.684 1.45571 
-14.7388 -26.5395 2.00539 -15.6447 -26.5864 1.94173 -26.7083 -26.2759 1.67953 
-26.497 -26.6181 1.56158 -27.125 -26.453 1.49342 -27.5966 -26.5912 1.96122 
-8.73262 -26.5887 1.05177 -9.67006 -26.5857 0.939711 -26.6869 -26.5273 1.22022 
-12.6955 -26.325 -1.59902 -12.4848 -26.5958 -1.20059 -12.4905 -26.6663 -1.63799 
-13.015 -26.6613 -1.39953 -12.8006 -26.6724 -1.77895 -12.0031 -26.9961 5.35365 
-11.9435 -27.6783 5.78928 -11.4225 -27.4769 5.37788 -12.6682 -27.1582 5.31123 
-12.4482 -27.3506 5.87317 -13.0087 -27.4942 5.59608 -8.79214 -27.2465 4.16982 
-8.6046 -27.7175 4.65374 -8.17547 -27.4745 4.38381 -9.15615 -27.9061 4.44867 
-10.8264 -27.5473 5.11566 -10.1624 -27.3454 4.42472 -12.5489 -27.091 4.55914 
-13.2157 -27.6658 4.5624 -17.0398 -27.0094 4.36477 -16.8117 -27.8158 4.79527 
-16.3685 -27.3906 4.46932 -17.9752 -27.0915 4.35078 -17.5078 -27.5109 4.84759 
-18.9772 -27.1133 4.33523 -18.3599 -27.6625 4.98713 -19.9817 -27.0996 4.32879 
-19.3997 -27.5098 4.99437 -20.9806 -27.1078 4.31369 -20.397 -27.4897 4.98875 
-21.9597 -27.1152 4.30022 -21.41 -27.485 4.99388 -22.9384 -27.1127 4.32574 
-22.4184 -27.4869 4.96925 -23.8207 -27.1326 4.45684 -23.4141 -27.5028 4.95722 
-24.7499 -26.9342 4.37212 -24.4168 -27.491 4.96889 -25.9561 -26.9343 4.5426 
-25.5936 -27.5818 5.01156 -26.6709 -27.0913 4.53033 -26.6662 -27.616 4.81168 
-27.2925 -27.7715 4.24077 -7.98249 -27.1409 3.5805 -7.66887 -27.7979 3.9861 
-7.35735 -27.5027 3.27549 -8.82471 -26.9377 3.33745 -9.61238 -27.6785 4.18668 
-9.53023 -27.039 3.6733 -12.4082 -27.3546 3.50709 -12.8095 -27.6343 3.858 
-15.7847 -27.5705 4.03403 -15.1505 -27.2036 3.50092 -17.56 -26.8354 3.33629 
-18.7105 -26.9416 3.4246 -19.7327 -26.9372 3.42783 -20.5707 -26.9399 3.58308 
-21.4264 -27.0862 3.35447 -22.435 -27.1266 3.56231 -23.71 -26.9045 3.61074 
-27.8148 -27.2955 3.47393 -27.6173 -27.2856 3.76454 -27.9123 -27.5313 3.50392 
-7.59505 -27.1348 2.68315 -7.08649 -27.6119 2.40757 -8.5077 -26.8127 2.48409 
-9.81334 -26.821 2.39757 -11.588 -26.9095 2.27211 -12.0617 -27.2761 2.65589 
-14.6159 -27.7391 2.98563 -14.1533 -27.1848 2.35507 -16.943 -26.8736 2.61229 
-17.5053 -27.1261 2.42502 -18.3802 -27.0972 2.53146 -19.4275 -27.0908 2.52542 
-20.5343 -27.1321 2.60546 -21.2263 -27.5067 2.48341 -21.9116 -27.7618 2.8457 
-22.9101 -27.629 3.03916 -23.8494 -27.3815 2.81575 -24.4761 -27.2646 2.41164 
-24.3 -27.7295 2.56538 -24.8852 -27.3453 2.44724 -25.4494 -27.3592 2.8377 
-26.5001 -27.299 2.97687 -26.775 -26.8993 2.30449 -27.5304 -27.522 3.34145 
-27.5237 -26.7614 2.43123 -7.83229 -26.9711 1.7299 -7.18585 -27.5001 1.60533 
-10.7139 -27.6829 1.84949 -10.1748 -27.3593 1.51454 -11.5645 -27.591 2.09544 
-13.9508 -27.1297 1.50319 -13.5989 -27.8268 1.91472 -13.4415 -27.6442 1.29718 
-14.6088 -26.8506 1.3313 -15.3245 -27.0102 1.23072 -16.0779 -27.4409 1.47006 
-16.8483 -27.6031 1.98835 -17.8049 -27.4993 2.08913 -18.6455 -27.6273 2.13446 
-19.8424 -27.6053 2.07207 -20.726 -27.7139 2.0608 -24.6593 -27.5233 2.25834 
-26.9763 -26.7562 1.60553 -6.58949 -27.3739 0.423038 -6.50283 -27.6275 0.84103 
-6.37368 -27.7665 0.518973 -7.73169 -27.3885 0.985949 -6.93219 -27.6617 0.377012 
-8.70165 -27.1326 0.389321 -8.21902 -27.5993 0.298176 -9.71365 -26.9437 0.284518 
-10.1731 -27.4922 0.662495 -12.8418 -27.1911 0.178811 -12.7548 -27.7638 0.693314 
-12.1743 -27.4985 0.347366 -13.7917 -27.3867 0.85471 -13.2022 -27.4666 0.514547 
-14.1465 -27.4749 0.435656 -14.5391 -27.1872 0.753417 -15.3025 -27.4402 0.529897 
-15.7877 -27.6396 0.783882 -6.62525 -27.5211 0.216921 -8.8195 -27.4777 -0.11142 
-9.26564 -27.5783 -0.67985 -9.62873 -27.1622 -0.42584 -10.7251 -27.6079 0.00269046 
-10.6582 -27.1112 -0.397614 -11.7875 -27.1184 -0.621878 -11.5167 -27.6125 0.00192639 
-12.9226 -26.8783 -0.673643 -13.5443 -27.385 0.117523 -13.5196 -27.2021 -0.349329 
-14.8252 -27.8021 0.1791 -13.89 -27.6214 -0.341476 -9.85527 -27.4028 -1.15787 
-10.1131 -27.432 -1.93355 -10.7805 -27.1393 -1.4605 -11.4502 -27.4177 -1.39197 
-11.6897 -27.4776 -1.22299 -12.0968 -27.2001 -1.36936 -13.6035 -27.5661 -1.02033 
-13.1426 -27.2758 -1.65875 -10.7063 -27.1813 -2.42283 -10.2046 -27.5785 -2.64479 
-11.5582 -27.3992 -2.00481 -11.3925 -27.2407 -2.53095 -12.6034 -27.5189 -1.80289 
-11.9157 -27.627 -2.48007 -10.8734 -27.6816 -2.98017 -11.6964 -27.726 -2.88484 
-5.80102 -28.2317 9.27479 -5.72842 -28.4208 9.59727 -5.53469 -28.3462 9.30489 
-5.93494 -28.7238 9.2296 -5.64312 -28.2399 8.74652 -5.28953 -28.6793 8.59982 
-6.01265 -28.5726 8.54202 -5.76447 -28.6008 8.04409 -13.6 -28.2159 7.23375 
-13.5902 -28.58 7.98028 -13.178 -28.7303 7.4148 -14.0098 -28.4882 7.6668 
-4.02163 -28.1844 6.43045 -3.63121 -28.6276 7.00925 -3.38629 -28.7931 6.39743 
-4.89327 -28.1463 6.2102 -4.35238 -28.4629 6.95223 -5.15387 -28.5392 6.63222 
-12.8451 -28.0226 6.36016 -12.8032 -28.7066 6.72445 -12.5169 -28.6822 6.27416 
-13.7279 -28.1006 6.33237 -14.2069 -28.4359 6.76545 -19.8497 -28.179 6.28681 
-19.7358 -28.4912 6.90683 -19.1595 -28.5058 6.47574 -20.9301 -28.1603 6.34269 
-20.5323 -28.6037 7.01095 -21.8729 -28.2231 6.2052 -21.5481 -28.6404 6.78665 
-22.2175 -28.6722 6.53407 -3.7985 -28.3064 5.89351 -4.04738 -28.5676 5.09829 
-4.47227 -28.0342 5.6318 -5.58192 -28.411 6.03253 -5.34973 -28.1767 5.33167 
-5.97313 -28.5755 5.58086 -10.8318 -28.2952 5.3709 -10.4486 -28.8502 5.64296 
-10.2605 -28.3887 5.09382 -11.6215 -28.0118 5.47398 -11.1969 -28.7441 5.60266 
-12.0505 -28.4452 5.73934 -13.6142 -27.9465 5.35372 -14.2461 -28.5555 5.53336 
-18.9787 -28.0719 5.62613 -18.5115 -28.5732 5.87449 -18.2183 -28.3432 5.37434 
-19.8067 -27.8463 5.50695 -20.6513 -27.8649 5.63694 -21.671 -27.8696 5.62531 
-22.5694 -28.4333 6.12555 -22.7541 -27.9947 5.58339 -23.9126 -27.9949 5.46764 
-23.3975 -28.486 5.97741 -24.9555 -28.0188 5.46698 -24.5672 -28.6168 5.98213 
-25.8005 -28.1783 5.44444 -25.6404 -28.6633 5.79833 -26.3324 -28.696 5.57579 
-4.69064 -28.2027 4.75159 -4.37734 -28.7039 4.38117 -5.2627 -28.3827 4.58322 
-5.83513 -28.5573 4.97328 -8.65629 -28.3975 4.77692 -8.11086 -28.1529 4.55847 
-9.23542 -28.5764 4.60802 -9.9661 -28.2873 4.459 -11.388 -28.2266 5.32619 
-13.736 -28.0839 4.50965 -14.005 -28.4548 4.64361 -16.6583 -28.6724 4.80122 
-16.1885 -28.2634 4.49163 -17.4331 -28.4649 5.10163 -26.5483 -28.2597 5.20414 
-27.8083 -28.2938 4.44687 -27.4912 -28.4854 4.75573 -27.9481 -28.5547 4.45229 
-4.94466 -28.7037 4.18891 -7.51525 -28.6678 4.10558 -7.14794 -28.3679 3.28672 
-9.64086 -28.351 4.30385 -12.6746 -28.1041 3.23531 -13.0914 -28.3322 3.58819 
-13.6753 -28.6583 4.01173 -15.6866 -28.7699 3.96746 -15.1783 -28.2564 3.49282 
-24.6756 -28.2369 3.26341 -24.1311 -28.5497 3.47456 -24.6181 -28.8981 3.79239 
-25.7163 -28.6872 3.80824 -25.8183 -28.0382 3.31609 -26.7088 -28.4374 3.90348 
-26.9671 -27.9183 3.55347 -27.5579 -28.6689 4.27545 -27.649 -27.7152 3.64434 
-6.69942 -28.1799 2.59302 -6.7096 -28.6675 2.80972 -6.37299 -28.5781 2.18071 
-12.2411 -28.2385 2.57665 -12.7231 -28.8806 2.9383 -14.6702 -28.774 2.9648 
-14.1051 -28.2573 2.48382 -19.0224 -28.0625 2.36376 -18.3449 -28.4107 2.35103 
-18.6516 -28.7479 2.69379 -19.3134 -28.7024 2.8491 -19.7473 -28.1543 2.26586 
-20.0662 -28.5977 2.54837 -21.1676 -28.1962 2.32447 -21.7378 -28.6927 2.78244 
-22.5085 -28.4258 2.87233 -23.5078 -28.4392 3.04196 -24.9395 -27.7602 2.64935 
-6.79246 -27.858 1.47776 -6.23669 -28.2906 1.28092 -10.3348 -28.3183 1.18336 
-10.9301 -28.7224 1.70887 -11.5825 -28.5444 2.03886 -13.6124 -28.7734 2.0002 
-13.2518 -28.3306 1.4284 -16.3848 -28.465 1.30533 -16.941 -28.748 1.74022 
-17.6896 -28.4015 2.0553 -20.4403 -28.2304 2.10039 -6.31359 -28.6641 0.716293 
-7.62194 -27.8105 0.383622 -10.3156 -28.6438 0.397687 -12.785 -28.6888 0.94281 
-12.1611 -28.2521 0.506732 -13.6807 -27.8499 0.46197 -15.6046 -27.955 0.297671 
-16.0209 -28.3121 0.661637 -6.7541 -28.1267 0.0613924 -7.65312 -28.0968 -0.460198 
-7.21564 -28.7945 -0.408516 -8.55119 -27.8576 -0.489325 -10.794 -28.5349 0.0246145 
-11.5317 -28.5111 0.0703733 -14.7397 -28.7036 -0.147454 -14.098 -28.306 -0.502403 
-15.5876 -28.6086 0.0969992 -7.83025 -28.506 -1.08715 -8.22652 -28.7938 -1.61273 
-8.60397 -28.1672 -1.4497 -9.40156 -27.7818 -1.3761 -11.9739 -27.7989 -1.85945 
-13.2163 -28.2496 -1.59534 -13.7502 -28.7783 -1.07176 -8.80031 -28.4912 -2.10501 
-9.19898 -28.7878 -2.6209 -9.48186 -28.0143 -2.27963 -12.4724 -28.7409 -2.02381 
-12.0101 -28.2594 -2.53819 -10.0102 -28.3998 -2.97227 -10.6705 -28.4589 -3.14785 
-11.3569 -28.5386 -2.94939 -2.95315 -29.2479 10.4639 -2.88331 -29.7336 10.7782 
-2.53702 -29.4834 10.5764 -3.59362 -29.2019 10.3146 -3.57535 -29.6199 10.8501 
-4.14989 -29.6234 10.5385 -2.77728 -29.5149 10.1691 -2.92363 -29.5534 9.52763 
[...]
CELL_DATA 20448
SCALARS scalars float
LOOKUP_TABLE default
1013 1013 1013 1013 1013 1013 1013 1013 1013 
1013 1013 1013 1013 1013 1013 1013 1013 1013 
1013 1013 1013 1013 1013 1013 1013 1013 1013 
1013 1013 1013 1013 1013 1013 1013 1013 1013 
1013 1013 1013 1013 1013 1013 1013 1013 1013 
1013 1013 1013 1013 1013 1013 1013 1013 1013 
1013 1013 1013 1013 1013 1013 1013 1013 1013 
1013 1013 1013 1013 1013 1013 1013 1013 1013 
1013 1013 1013 1013 1013 1013 1013 1013 1013 
1013 1013 1013 1013 1013 1013 1013 1013 1013 
1013 1013 1013 1013 1013 1013 1013 1013 1013 
1013 1013 1013 1013 1013 1013 1013 1013 1013 
1013 1013 1013 1013 1013 1013 1013 1013 1013 
1013 1013 1013 1013 1013 1013 1013 1013 1013 
1013 1013 1013 1013 1013 1013 1013 1013 1013 
1013 1013 1013 1013 1013 1013 1013 1013 1013 
1013 1013 1013 1013 1013 1013 1013 1013 1013 
1013 1013 1013 1013 1013 1013 1013 1013 1013 
1013 1013 1013 1013 1013 1013 1013 1013 1013 
1013 1013 1013 1013 1013 1013 1013 1013 1013 
1013 1013 1013 1013 1013 1013 1013 1013 1013 
1013 1013 1013 1013 1013 1013 1013 1013 1013 
1013 1013 1013 1013 1013 1013 1013 1013 1013 
1013 1013 1013 1013 1013 1013 1013 1013 1013 
1013 1013 1013 1013 1013 1013 1013 1013 1013 
1013 1013 1013 1013 1013 1013 1013 1013 1013 
1013 1013 1013 1013 1013 1013 1013 1013 1013 
1013 1013 1013 1013 1013 1013 1013 1013 1013 
1013 1013 1013 1013 1013 1013 1013 1013 1013 
1013 1013 1013 1013 1013 1013 1013 1013 1013 
1013 1013 1013 1013 1013 1013 1013 1013 1013 
1013 1013 1013 1013 1013 1013 1013 1013 1013 
1013 1013 1013 1013 1013 1013 1013 1013 1013 
1013 1013 1013 1013 1013 1013 1013 1013 1013 
1013 1013 1013 1013 1013 1013 1013 1013 1013 
1013 1013 1013 1013 1013 1013 1013 1013 1013 
1013 1013 1013 1013 1013 1013 1013 1013 1013 
1013 1013 1013 1013 1013 1013 1013 1013 1013 
1013 1013 1013 1013 1013 1013 1013 1013 1013 
1013 1013 1013 1013 1013 1013 1013 1013 1013 
1013 1013 1013 1013 1013 1013 1013 1013 1013 
1013 1013 1013 1013 1013 1013 1013 1013 1013 
1013 1013 1013 1013 1013 1013 1013 1013 1013 
1013 1013 1013 1013 1013 1013 1013 1013 1013 
1013 1013 1013 1013 1013 1013 1013 1013 1013 
1013 1013 1013 1013 1013 1013 1013 1013 1013 
1013 1013 1013 1013 1013 1013 1013 1013 1013 
1013 1013 1013 1013 1013 1013 1013 1013 1013 
1013 1013 1013 1013 1013 1013 1013 1013 1013 
1013 1013 1013 1013 1013 1013 1013 1013 1013 
1013 1013 1013 1013 1013 1013 1013 1013 1013 
1013 1013 1013 1013 1013 1013 1013 1013 1013 
1013 1013 1013 1013 1013 1013 1013 1013 1013 
1013 1013 1013 1013 1013 1013 1013 1013 1013 
1013 1013 1013 1013 1013 1013 1013 1013 1013 
1013 1013 1013 1013 1013 1013 1013 1013 1013 
1013 1013 1013 1013 1013 1013 1013 1013 1013 
1013 1013 1013 1013 1013 1013 1013 1013 1013 
1013 1013 1013 1013 1013 1013 1013 1013 1013 
1013 1013 1013 1013 1013 1013 1013 1013 1013 
1013 1013 1013 1013 1013 1013 1013 1013 1013 
1013 1013 1013 1013 1013 1013 1013 1013 1013 
1013 1013 1013 1013 1013 1013 1013 1013 1013 
1013 1013 1013 1013 1013 1013 1013 1013 1013 
1013 1013 1013 1013 1013 1013 1013 1013 1013 
1013 1013 1013 1013 1013 1013 1013 1013 1013 
1013 1013 1013 1013 1013 1013 1013 1013 1013 
1013 1013 1013 1013 1013 1013 1013 1013 1013 
1013 1013 1013 1013 1013 1013 1013 1013 1013 
1013 1013 1013 1013 1013 1013 1013 1013 1013 
1013 1013 1013 1013 1013 1013 1013 1013 1013 
1013 1013 1013 1013 1013 1013 1013 1013 1013 
1013 1013 1013 1013 1013 1013 1013 1013 1013 
1013 1013 1013 1013 1013 1013 1013 1013 1013 
1013 1013 1013 1013 1013 1013 1013 1013 1013 
1013 1013 1013 1013 1013 1013 1013 1013 1013 
1013 1013 1013 1013 1013 1013 1013 1013 1013 
1013 1013 1013 1013 1013 1013 1013 1013 1013 
1013 1013 1013 1013 1013 1013 1013 1013 1013 
1013 1013 1013 1013 1013 1013 1013 1013 1013 
1013 1013 1013 1013 1013 1013 1013 1013 1013 
1013 1013 1013 1013 1013 1013 1013 1013 1013 
1013 1013 1013 1013 1013 1013 1013 1013 1013 
1013 1013 1013 1013 1013 1013 1013 1013 1013 
1013 1013 1013 1013 1013 1013 1013 1013 1013 
1013 1013 1013 1013 1013 1013 1013 1013 1013 
1013 1013 1013 1013 1013 1013 1013 1013 1013 
1013 1013 1013 1013 1013 1013 1013 1013 1013 
1013 1013 1013 1013 1013 1013 1013 1013 1013 
1013 1013 1013 1013 1013 1013 1013 1013 1013 
1013 1013 1013 1013 1013 1013 1013 1013 1013 
1013 1013 1013 1013 1013 1013 1013 1013 1013 
1013 1013 1013 1013 1013 1013 1013 1013 1013 
1013 1013 1013 1013 1013 1013 1013 1013 1013 
1013 1013 1013 1013 1013 1013 1013 1013 1013 
1013 1013 1013 1013 1013 1013 1013 1013 1013 
1013 1013 1013 1013 1013 1013 1013 1013 1013 
1013 1013 1013 1013 1013 1013 1013 1013 1013 
1013 1013 1013 1013 1013 1013 1013 1013 1013 
1013 1013 1013 1013 1013 1013 1013 1013 1013 
1013 1013 1013 1013 1013 1013 1013 1013 1013 
1013 1013 1013 1013 1013 1013 1013 1013 1013 
1013 1013 1013 1013 1013 1013 1013 1013 1013 
1013 1013 1013 1013 1013 1013 1013 1013 1013 
1013 1013 1013 1013 1013 1013 1013 1013 1013 
1013 1013 1013 1013 1013 1013 1013 1013 1013 
1013 1013 1013 1013 1013 1013 1013 1013 1013 
1013 1013 1013 1013 1013 1013 1013 1013 1013 
1013 1013 1013 1013 1013 1013 1013 1013 1013 
1013 1013 1013 1013 1013 1013 1013 1013 1013 
1013 1013 1013 1013 1013 1013 1013 1013 1013 
1013 1013 1013 1013 1013 1013 1013 1013 1013 
1013 1013 1013 1013 1013 1013 1013 1013 1013 
1013 1013 1013 1013 1013 1013 1013 1013 1013 
1013 1013 1013 1013 1013 1013 1013 1013 1013 
1013 1013 1013 1013 1013 1013 1013 1013 1013 
1013 1013 1013 1013 1013 1013 1013 1013 1013 
1013 1013 1013 1013 1013 1013 1013 1013 1013 
1013 1013 1013 1013 1013 1013 1013 1013 1013 
1013 1013 1013 1013 1013 1013 1013 1013 1013 
1013 1013 1013 1013 1013 1013 1013 1013 1013 
1013 1013 1013 1013 1013 1013 1013 1013 1013 
1013 1013 1013 1013 1013 1013 1013 1013 1013 
1013 1013 1013 1013 1013 1013 1013 1013 1013 
1013 1013 1013 1013 1013 1013 1013 1013 1013 
1013 1013 1013 1013 1013 1013 1013 1013 1013 
1013 1013 1013 1013 1013 1013 1013 1013 1013 
1013 1013 1013 1013 1013 1013 1013 1013 1013 
1013 1013 1013 1013 1013 1013 1013 1013 1013 
1013 1013 1013 1013 1013 1013 1013 1013 1013 
1013 1013 1013 1013 1013 1013 1013 1013 1013 
1013 1013 1013 1013 1013 1013 1013 1013 1013 
1013 1013 1013 1013 1013 1013 1013 1013 1013 
1013 1013 1013 1013 1013 1013 1013 1013 1013 
1013 1013 1013 1013 1013 1013 1013 1013 1013 
1013 1013 1013 1013 1013 1013 1013 1013 1013 
1013 1013 1013 1013 1013 1013 1013 1013 1013 
1013 1013 1013 1013 1013 1013 1013 1013 1013 
1013 1013 1013 1013 1013 1013 1013 1013 1013 
1013 1013 1013 1013 1013 1013 1013 1013 1013 
1013 1013 1013 1013 1013 1013 1013 1013 1013 
1013 1013 1013 1013 1013 1013 1013 1013 1013 
1013 1013 1013 1013 1013 1013 1013 1013 1013 
1013 1013 1013 1013 1013 1013 1013 1013 1013 
1013 1013 1013 1013 1013 1013 1013 1013 1013 
1013 1013 1013 1013 1013 1013 1013 1013 1013 
1013 1013 1013 1013 1013 1013 1013 1013 1013 
1013 1013 1013 1013 1013 1013 1013 1013 1013 
1013 1013 1013 1013 1013 1013 1013 1013 1013 
1013 1013 1013 1013 1013 1013 1013 1013 1013 
1013 1013 1013 1013 1013 1013 1013 1013 1013 
1013 1013 1013 1013 1013 1013 1013 1013 1013 
1013 1013 1013 1013 1013 1013 1013 1013 1013 
1013 1013 1013 1013 1013 1013 1013 1013 1013 
1013 1013 1013 1013 1013 1013 1013 1013 1013 
1013 1013 1013 1013 1013 1013 1013 1013 1013 
1013 1013 1013 1013 1013 1013 1013 1013 1013 
1013 1013 1013 1013 1013 1013 1013 1013 1013 
1013 1013 1013 1013 1013 1013 1013 1013 1013 
1013 1013 1013 1013 1013 1013 1013 1013 1013 
1013 1013 1013 1013 1013 1013 1013 1013 1013 
1013 1013 1013 1013 1013 1013 1013 1013 1013 
1013 1013 1013 1013 1013 1013 1013 1013 1013 
1013 1013 1013 1013 1013 1013 1013 1013 1013 
1013 1013 1013 1013 1013 1013 1013 1013 1013 
1013 1013 1013 1013 1013 1013 1013 1013 1013 
1013 1013 1013 1013 1013 1013 1013 1013 1013 
1013 1013 1013 1013 1013 1013 1013 1013 1013 
1013 1013 1013 1013 1013 1013 1013 1013 1013 
1013 1013 1013 1013 1013 1013 1013 1013 1013 
1013 1013 1013 1013 1013 1013 1013 1013 1013 
1013 1013 1013 1013 1013 1013 1013 1013 1013 
1013 1013 1013 1013 1013 1013 1013 1013 1013 
1013 1013 1013 1013 1013 1013 1013 1013 1013 
1013 1013 1013 1013 1013 1013 1013 1013 1013 
1013 1013 1013 1013 1013 1013 1013 1013 1013 
1013 1013 1013 1013 1013 1013 1013 1013 1013 
1013 1013 1013 1013 1013 1013 1013 1013 1013 
1013 1013 1013 1013 1013 1013 1013 1013 1013 
1013 1013 1013 1013 1013 1013 1013 1013 1013 
1013 1013 1013 1013 1013 1013 1013 1013 1013 
1013 1013 1013 1013 1013 1013 1013 1013 1013 
1013 1013 1013 1013 1013 1013 1013 1013 1013 
1013 1013 1013 1013 1013 1013 1013 1013 1013 
1013 1013 1013 1013 1013 1013 1013 1013 1013 
1013 1013 1013 1013 1013 1013 1013 1013 1013 
1013 1013 1013 1013 1013 1013 1013 1013 1013 
1013 1013 1013 1013 1013 1013 1013 1013 1013 
1013 1013 1013 1013 1013 1013 1013 1013 1013 
1013 1013 1013 1013 1013 1013 1013 1013 1013 
1013 1013 1013 1013 1013 1013 1013 1013 1013 
1013 1013 1013 1013 1013 1013 1013 1013 1013 
1013 1013 1013 1013 1013 1013 1013 1013 1013 
1013 1013 1013 1013 1013 1013 1013 1013 1013 
1013 1013 1013 1013 1013 1013 1013 1013 1013 
1013 1013 1013 1013 1013 1013 1013 1013 1013 
1013 1013 1013 1013 1013 1013 1013 1013 1013 
1013 1013 1013 1013 1013 1013 1013 1013 1013 
1013 1013 1013 1013 1013 1013 1013 1013 1013 
1013 1013 1013 1013 1013 1013 1013 1013 1013 
1013 1013 1013 1013 1013 1013 1013 1013 1013 
1013 1013 1013 1013 1013 1013 1013 1013 1013 
1013 1013 1013 1013 1013 1013 1013 1013 1013 
1013 1013 1013 1013 1013 1013 1013 1013 1013 
1013 1013 1013 1013 1013 1013 1013 1013 1013 
1013 1013 1013 1013 1013 1013 1013 1013 1013 
1013 1013 1013 1013 1013 1013 1013 1013 1013 
1013 1013 1013 1013 1013 1013 1013 1013 1013 
1013 1013 1013 1013 1013 1013 1013 1013 1013 
1013 1013 1013 1013 1013 1013 1013 1013 1013 
1013 1013 1013 1013 1013 1013 1013 1013 1013 
1013 1013 1013 1013 1013 1013 1013 1013 1013 
1013 1013 1013 1013 1013 1013 1013 1013 1013 
1013 1013 1013 1013 1013 1013 1013 1013 1013 
1013 1013 1013 1013 1013 1013 1013 1013 1013 
1013 1013 1013 1013 1013 1013 1013 1013 1013 
1013 1013 1013 1013 1013 1013 1013 1013 1013 
1013 1013 1013 1013 1013 1013 1013 1013 1013 
1013 1013 1013 1013 1013 1013 1013 1013 1013 
1013 1013 1013 1013 1013 1013 1013 1013 1013 
1013 1013 1013 1013 1013 1013 1013 1013 1013 
1013 1013 1013 1013 1013 1013 1013 1013 1013 
1013 1013 1013 1013 1013 1013 1013 1013 1013 
1013 1013 1013 1013 1013 1013 1013 1013 1013 
1013 1013 1013 1013 1013 1013 1013 1013 1013 
1013 1013 1013 1013 1013 1013 1013 1013 1013 
1013 1013 1013 1013 1013 1013 1013 1013 1013 
1013 1013 1013 1013 1013 1013 1013 1013 1013 
1013 1013 1013 1013 1013 1013 1013 1013 1013 
1013 1013 1013 1013 1013 1013 1013 1013 1013 
1013 1013 1013 1013 1013 1013 1013 1013 1013 
1013 1013 1013 1013 1013 1013 1013 1013 1013 
1013 1013 1013 1013 1013 1013 1013 1013 1013 
1013 1013 1013 1013 1013 1013 1013 1013 1013 
1013 1013 1013 1013 1013 1013 1013 1013 1013 
1013 1013 1013 1013 1013 1013 1013 1013 1013 
1013 1013 1013 1013 1013 1013 1013 1013 1013 
1013 1013 1013 1013 1013 1013 1013 1013 1013 
1013 1013 1013 1013 1013 1013 1013 1013 1013 
1013 1013 1013 1013 1013 1013 1013 1013 1013 
1013 1013 1013 1013 1013 1013 1013 1013 1013 
1013 1013 1013 1013 1013 1013 1013 1013 1013 
1013 1013 1013 1013 1013 1013 1013 1013 1013 
1013 1013 1013 1013 1013 1013 1013 1013 1013 
1013 1013 1013 1013 1013 1013 1013 1013 1013 
1013 1013 1013 1013 1013 1013 1013 1013 1013 
1013 1013 1013 1013 1013 1013 1013 1013 1013 
1013 1013 1013 1013 1013 1013 1013 1013 1013 
1013 1013 1013 1013 1013 1013 1013 1013 1013 
1013 1013 1013 1013 1013 1013 1013 1013 1013 
1013 1013 1013 1013 1013 1013 1013 1013 1013 
1013 1013 1013 1013 1013 1013 1013 1013 1013 
1013 1013 1013 1013 1013 1013 1013 1013 1013 
1013 1013 1013 1013 1013 1013 1013 1013 1013 
1013 1013 1013 1013 1013 1013 1013 1013 1013 
1013 1013 1013 1013 1013 1013 1013 1013 1013 
1013 1013 1013 1013 1013 1013 1013 1013 1013 
1013 1013 1013 1013 1013 1013 1013 1013 1013 
1013 1013 1013 1013 1013 1013 1013 1013 1013 
1013 1013 1013 1013 1013 1013 1013 1013 1013 
1013 1013 1013 1013 1013 1013 1013 1013 1013 
1013 1013 1013 1013 1013 1013 1013 1013 1013 
1013 1013 1013 1013 1013 1013 1013 1013 1013 
1013 1013 1013 1013 1013 1013 1013 1013 1013 
1013 1013 1013 1013 1013 1013 1013 1013 1013 
1013 1013 1013 1013 1013 1013 1013 1013 1013 
1013 1013 1013 1013 1013 1013 1013 1013 1013 
1013 1013 1013 1013 1013 1013 1013 1013 1013 
1013 1013 1013 1013 1013 1013 1013 1013 1013 
1013 1013 1013 1013 1013 1013 1013 1013 1013 
1013 1013 1013 1013 1013 1013 1013 1013 1013 
1013 1013 1013 1013 1013 1013 1013 1013 1013 
1013 1013 1013 1013 1013 1013 1013 1013 1013 
1013 1013 1013 1013 1013 1013 1013 1013 1013 
1013 1013 1013 1013 1013 1013 1013 1013 1013 
1013 1013 1013 1013 1013 1013 1013 1013 1013 
1013 1013 1013 1013 1013 1013 1013 1013 1013 
1013 1013 1013 1013 1013 1013 1013 1013 1013 
1013 1013 1013 1013 1013 1013 1013 1013 1013 
1013 1013 1013 1013 1013 1013 1013 1013 1013 
1013 1013 1013 1013 1013 1013 1013 1013 1013 
1013 1013 1013 1013 1013 1013 1013 1013 1013 
1013 1013 1013 1013 1013 1013 1013 1013 1013 
1013 1013 1013 1013 1013 1013 1013 1013 1013 
1013 1013 1013 1013 1013 1013 1013 1013 1013 
1013 1013 1013 1013 1013 1013 1013 1013 1013 
1013 1013 1013 1013 1013 1013 1013 1013 1013 
1013 1013 1013 1013 1013 1013 1013 1013 1013 
1013 1013 1013 1013 1013 1013 1013 1013 1013 
1013 1013 1013 1013 1013 1013 1013 1013 1013 
1013 1013 1013 1013 1013 1013 1013 1013 1013 
1013 1013 1013 1013 1013 1013 1013 1013 1013 
1013 1013 1013 1013 1013 1013 1013 1013 1013 
1013 1013 1013 1013 1013 1013 1013 1013 1013 
1013 1013 1013 1013 1013 1013 1013 1013 1013 
1013 1013 1013 1013 1013 1013 1013 1013 1013 
1013 1013 1013 1013 1013 1013 1013 1013 1013 
1013 1013 1013 1013 1013 1013 1013 1013 1013 
1013 1013 1013 1013 1013 1013 1013 1013 1013 
1013 1013 1013 1013 1013 1013 1013 1013 1013 
1013 1013 1013 1013 1013 1013 1013 1013 1013 
1013 1013 1013 1013 1013 1013 1013 1013 1013 
1013 1013 1013 1013 1013 1013 1013 1013 1013 
1013 1013 1013 1013 1013 1013 1013 1013 1013 
1013 1013 1013 1013 1013 1013 1013 1013 1013 
1013 1013 1013 1013 1013 1013 1013 1013 1013 
1013 1013 1013 1013 1013 1013 1013 1013 1013 
1013 1013 1013 1013 1013 1013 1013 1013 1013 
1013 1013 1013 1013 1013 1013 1013 1013 1013 
1013 1013 1013 1013 1013 1013 1013 1013 1013 
1013 1013 1013 1013 1013 1013 1013 1013 1013 
1013 1013 1013 1013 1013 1013 1013 1013 1013 
1013 1013 1013 1013 1013 1013 1013 1013 1013 
1013 1013 1013 1013 1013 1013 1013 1013 1013 
1013 1013 1013 1013 1013 1013 1013 1013 1013 
1013 1013 1013 1013 1013 1013 1013 1013 1013 
1013 1013 1013 1013 1013 1013 1013 1013 1013 
1013 1013 1013 1013 1013 1013 1013 1013 1013 
1013 1013 1013 1013 1013 1013 1013 1013 1013 
1013 1013 1013 1013 1013 1013 1013 1013 1013 
1013 1013 1013 1013 1013 1013 1013 1013 1013 
1013 1013 1013 1013 1013 1013 1013 1013 1013 
1013 1013 1013 1013 1013 1013 1013 1013 1013 
1013 1013 1013 1013 1013 1013 1013 1013 1013 
1013 1013 1013 1013 1013 1013 1013 1013 1013 
1013 1013 1013 1013 1013 1013 1013 1013 1013 
1013 1013 1013 1013 1013 1013 1013 1013 1013 
1013 1013 1013 1013 1013 1013 1013 1013 1013 
1013 1013 1013 1013 1013 1013 1013 1013 1013 
1013 1013 1013 1013 1013 1013 1013 1013 1013 
1013 1013 1013 1013 1013 1013 1013 1013 1013 
1013 1013 1013 1013 1013 1013 1013 1013 1013 
1013 1013 1013 1013 1013 1013 1013 1013 1013 
1013 1013 1013 1013 1013 1013 1013 1013 1013 
1013 1013 1013 1013 1013 1013 1013 1013 1013 
1013 1013 1013 1013 1013 1013 1013 1013 1013 
1013 1013 1013 1013 1013 1013 1013 1013 1013 
1013 1013 1013 1013 1013 1013 1013 1013 1013 
1013 1013 1013 1013 1013 1013 1013 1013 1013 
1013 1013 1013 1013 1013 1013 1013 1013 1013 
1013 1013 1013 1013 1013 1013 1013 1013 1013 
1013 1013 1013 1013 1013 1013 1013 1013 1013 
1013 1013 1013 1013 1013 1013 1013 1013 1013 
1013 1013 1013 1013 1013 1013 1013 1013 1013 
1013 1013 1013 1013 1013 1013 1013 1013 1013 
1013 1013 1013 1013 1013 1013 1013 1013 1013 
1013 1013 1013 1013 1013 1013 1013 1013 1013 
1013 1013 1013 1013 1013 1013 1013 1013 1013 
1013 1013 1013 1013 1013 1013 1013 1013 1013 
1013 1013 1013 1013 1013 1013 1013 1013 1013 
1013 1013 1013 1013 1013 1013 1013 1013 1013 
1013 1013 1013 1013 1013 1013 1013 1013 1013 
1013 1013 1013 1013 1013 1013 1013 1013 1013 
1013 1013 1013 1013 1013 1013 1013 1013 1013 
1013 1013 1013 1013 1013 1013 1013 1013 1013 
1013 1013 1013 1013 1013 1013 1013 1013 1013 
1013 1013 1013 1013 1013 1013 1013 1013 1013 
1013 1013 1013 1013 1013 1013 1013 1013 1013 
1013 1013 1013 1013 1013 1013 1013 1013 1013 
1013 1013 1013 1013 1013 1013 1013 1013 1013 
1013 1013 1013 1013 1013 1013 1013 1013 1013 
1013 1013 1013 1013 1013 1013 1013 1013 1013 
1013 1013 1013 1013 1013 1013 1013 1013 1013 
1013 1013 1013 1013 1013 1013 1013 1013 1013 
1013 1013 1013 1013 1013 1013 1013 1013 1013 
1013 1013 1013 1013 1013 1013 1013 1013 1013 
1013 1013 1013 1013 1013 1013 1013 1013 1013 
1013 1013 1013 1013 1013 1013 1013 1013 1013 
1013 1013 1013 1013 1013 1013 1013 1013 1013 
1013 1013 1013 1013 1013 1013 1013 1013 1013 
1013 1013 1013 1013 1013 1013 1013 1013 1013 
1013 1013 1013 1013 1013 1013 1013 1013 1013 
1013 1013 1013 1013 1013 1013 1013 1013 1013 
1013 1013 1013 1013 1013 1013 1013 1013 1013 
1013 1013 1013 1013 1013 1013 1013 1013 1013 
1013 1013 1013 1013 1013 1013 1013 1013 1013 
1013 1013 1013 1013 1013 1013 1013 1013 1013 
1013 1013 1013 1013 1013 1013 1013 1013 1013 
1013 1013 1013 1013 1013 1013 1013 1013 1013 
1013 1013 1013 1013 1013 1013 1013 1013 1013 
1013 1013 1013 1013 1013 1013 1013 1013 1013 
1013 1013 1013 1013 1013 1013 1013 1013 1013 
1013 1013 1013 1013 1013 1013 1013 1013 1013 
1013 1013 1013 1013 1013 1013 1013 1013 1013 
1013 1013 1013 1013 1013 1013 1013 1013 1013 
1013 1013 1013 1013 1013 1013 1013 1013 1013 
1013 1013 1013 1013 1013 1013 1013 1013 1013 
1013 1013 1013 1013 1013 1013 1013 1013 1013 
1013 1013 1013 1013 1013 1013 1013 1013 1013 
1013 1013 1013 1013 1013 1013 1013 1013 1013 
1013 1013 1013 1013 1013 1013 1013 1013 1013 
1013 1013 1013 1013 1013 1013 1013 1013 1013 
1013 1013 1013 1013 1013 1013 1013 1013 1013 
1013 1013 1013 1013 1013 1013 1013 1013 1013 
1013 1013 1013 1013 1013 1013 1013 1013 1013 
1013 1013 1013 1013 1013 1013 1013 1013 1013 
1013 1013 1013 1013 1013 1013 1013 1013 1013 
1013 1013 1013 1013 1013 1013 1013 1013 1013 
1013 1013 1013 1013 1013 1013 1013 1013 1013 
1013 1013 1013 1013 1013 1013 1013 1013 1013 
1013 1013 1013 1013 1013 1013 1013 1013 1013 
1013 1013 1013 1013 1013 1013 1013 1013 1013 
1013 1013 1013 1013 1013 1013 1013 1013 1013 
1013 1013 1013 1013 1013 1013 1013 1013 1013 
1013 1013 1013 1013 1013 1013 1013 1013 1013 
1013 1013 1013 1013 1013 1013 1013 1013 1013 
1013 1013 1013 1013 1013 1013 1013 1013 1013 
1013 1013 1013 1013 1013 1013 1013 1013 1013 
1013 1013 1013 1013 1013 1013 1013 1013 1013 
1013 1013 1013 1013 1013 1013 1013 1013 1013 
1013 1013 1013 1013 1013 1013 1013 1013 1013 
1013 1013 1013 1013 1013 1013 1013 1013 1013 
1013 1013 1013 1013 1013 1013 1013 1013 1013 
1013 1013 1013 1013 1013 1013 1013 1013 1013 
1013 1013 1013 1013 1013 1013 1013 1013 1013 
1013 1013 1013 1013 1013 1013 1013 1013 1013 
1013 1013 1013 1013 1013 1013 1013 1013 1013 
1013 1013 1013 1013 1013 1013 1013 1013 1013 
1013 1013 1013 1013 1013 1013 1013 1013 1013 
1013 1013 1013 1013 1013 1013 1013 1013 1013 
1013 1013 1013 1013 1013 1013 1013 1013 1013 
1013 1013 1013 1013 1013 1013 1013 1013 1013 
1013 1013 1013 1013 1013 1013 1013 1013 1013 
1013 1013 1013 1013 1013 1013 1013 1013 1013 
1013 1013 1013 1013 1013 1013 1013 1013 1013 
1013 1013 1013 1013 1013 1013 1013 1013 1013 
1013 1013 1013 1013 1013 1013 1013 1013 1013 
1013 1013 1013 1013 1013 1013 1013 1013 1013 
1013 1013 1013 1013 1013 1013 1013 1013 1013 
1013 1013 1013 1013 1013 1013 1013 1013 1013 
1013 1013 1013 1013 1013 1013 1013 1013 1013 
1013 1013 1013 1013 1013 1013 1013 1013 1013 
1013 1013 1013 1013 1013 1013 1013 1013 1013 