# vtk DataFile Version 4.2
vtk output
ASCII
DATASET POLYDATA
POINTS 14626 float
-38.8865 37.8473 -23.7319 -38.5878 37.4152 -23.1389 -38.0708 37.5699 -23.6284 
-39.9763 37.9102 -23.6347 -39.4452 37.4931 -22.9809 -40.7291 37.8166 -23.7247 
-40.4234 37.5227 -23.0464 -41.0844 37.4706 -23.4219 -36.8437 37.8515 -24.7669 
-36.7098 37.4916 -24.1311 -36.1528 37.4971 -24.5368 -37.9597 37.904 -24.4711 
-37.3194 37.5009 -23.9253 -38.8779 38.0401 -24.687 -39.7175 38.0472 -24.5319 
-40.6097 37.9168 -24.5044 -41.2333 37.5559 -24.2809 -35.9493 37.848 -25.5049 
-35.4632 37.4607 -25.1214 -35.1668 37.5321 -25.8789 -36.7912 38.0362 -25.7312 
-37.6654 38.0262 -25.5544 -38.523 38.0281 -25.3796 -39.4155 37.9184 -25.5886 
-40.3856 37.8177 -25.4015 -41.2194 37.3435 -25.4334 -35.6235 37.767 -26.3215 
-35.2785 37.456 -26.6518 -36.3699 37.8797 -26.4051 -37.3739 37.8813 -26.4461 
-38.4886 37.8197 -26.3139 -39.3116 37.5686 -26.4041 -40.0652 37.5084 -26.1353 
-40.7495 37.3558 -26.0229 -35.9837 37.518 -27.0083 -36.9414 37.5068 -27.106 
-37.9725 37.4704 -27.0778 -38.8172 37.4043 -26.9045 -37.7608 36.7657 -22.628 
-37.7528 36.4501 -22.1268 -37.1883 36.4535 -22.543 -38.7914 36.9617 -22.5929 
-38.4125 36.4458 -22.0192 -39.9733 36.9834 -22.4833 -39.4338 36.4575 -21.9937 
-41.0275 36.9942 -22.6832 -40.4509 36.479 -21.9919 -41.7361 36.7309 -22.7911 
-41.3844 36.4744 -22.0903 -42.0799 36.2889 -22.5867 -36.7889 36.9798 -23.5516 
-36.6796 36.4651 -23.0502 -36.1819 36.4789 -23.5353 -37.855 37.1734 -23.2267 
-41.6429 37.0215 -23.6407 -42.0761 36.478 -23.3626 -34.7129 36.8212 -24.6709 
-34.7518 36.5235 -24.1939 -34.1645 36.511 -24.5357 -35.6229 37.0025 -24.426 
-35.3621 36.4986 -23.9969 -41.7326 37.0246 -24.8095 -42.2244 36.3485 -24.2896 
-33.9601 36.7907 -25.4137 -33.5478 36.3344 -24.9395 -33.3453 36.1657 -25.673 
-34.8117 37.16 -25.3479 -41.7275 36.912 -25.4886 -42.2357 36.322 -25.4792 
-33.7771 36.5878 -26.1101 -34.0889 36.331 -26.8708 -34.5786 37.0478 -26.4055 
-39.6872 37.1789 -26.903 -40.6037 37.0133 -26.6782 -41.2355 36.7806 -26.4131 
-41.7288 36.5327 -26.0546 -34.7769 36.8053 -27.4798 -34.3817 36.2047 -27.7655 
-35.5924 37.1325 -27.5037 -36.6851 37.1407 -27.7425 -37.7015 37.1176 -27.7381 
-38.8308 37.1014 -27.5651 -39.6902 37.0072 -27.5478 -40.3643 36.8127 -27.597 
-41.2258 36.2986 -27.4358 -34.8242 36.5981 -28.1234 -35.1518 36.5413 -28.557 
-35.4548 36.8113 -28.2954 -36.4146 36.8552 -28.4525 -37.4468 36.8497 -28.4708 
-38.4626 36.8521 -28.4288 -39.5612 36.8075 -28.3123 -40.3435 36.3289 -28.5884 
-40.8047 36.3248 -28.1085 -35.7237 36.3718 -28.9903 -36.9829 36.4958 -29.1038 
-38.009 36.4987 -29.0926 -38.9892 36.4837 -29.0805 -39.7508 36.3442 -29.06 
-39.8663 35.7852 -20.7388 -39.7393 35.4556 -20.123 -39.1951 35.4604 -20.4934 
-40.9567 35.8415 -20.6419 -40.3945 35.4717 -20.0023 -41.9865 35.8808 -20.6555 
-41.3918 35.4933 -19.9857 -42.8986 35.8315 -20.7791 -42.3739 35.4885 -20.0745 
-43.1477 35.4676 -20.361 -37.7693 35.9714 -21.7043 -37.7881 35.4754 -21.1298 
-37.2181 35.4694 -21.5398 -38.9414 35.9546 -21.3473 -38.3807 35.4772 -20.932 
-39.8456 36.1098 -21.5016 -40.6948 36.1104 -21.3818 -41.774 36.117 -21.5469 
-42.5805 36.0255 -21.3609 -43.5686 35.6067 -20.9671 -43.3747 35.7641 -21.6544 
-44.1177 35.2409 -21.6043 -36.6975 35.9725 -22.5451 -36.6831 35.4696 -22.0468 
-36.2032 35.4702 -22.5461 -42.6434 35.862 -22.3506 -43.3114 35.254 -22.5994 
-43.7988 35.3078 -22.137 -34.7833 36.0054 -23.7329 -34.4668 35.2153 -23.2435 
-34.1129 35.5701 -23.651 -35.8221 35.9893 -23.301 -35.3572 35.3118 -23.0038 
-42.4399 35.8033 -23.418 -42.7954 35.2916 -23.1368 -33.8483 35.9608 -24.2371 
-33.668 35.529 -23.9766 -33.2197 35.5929 -24.6927 -42.6291 35.6209 -24.1553 
-42.6949 35.8815 -24.8867 -42.9669 35.1835 -24.3782 -32.9874 35.491 -25.7245 
-42.7309 35.9101 -25.4894 -43.0282 35.2514 -25.3815 -33.5893 36.0958 -26.3831 
-33.2866 35.5621 -26.4689 -41.723 36.07 -26.8744 -42.2215 35.6099 -26.5733 
-42.7035 35.5136 -26.0442 -33.7261 35.6555 -26.9444 -34.0195 35.3823 -27.6889 
-41.7281 35.8501 -27.4575 -42.0179 35.3454 -27.4864 -34.767 36.1642 -28.5151 
-34.341 35.3576 -28.6292 -40.7576 35.9987 -28.5469 -41.2501 35.4823 -28.5403 
-41.7182 35.4507 -28.028 -34.9089 35.7109 -29.1581 -35.5684 35.8299 -29.5361 
-35.0602 35.3121 -29.6638 -36.4351 35.9949 -29.5854 -37.4658 36.0157 -29.5955 
-38.4783 35.9965 -29.6045 -39.4205 35.9328 -29.574 -40.1737 35.7556 -29.3805 
-40.745 35.5212 -29.0623 -35.8202 35.2312 -29.8943 -36.8366 35.4936 -29.9031 
-37.7829 35.3662 -30.0564 -38.9582 35.4707 -30.0608 -39.8165 35.423 -29.9126 
-40.8302 34.7504 -18.8367 -40.5901 34.1489 -18.2505 -40.0879 34.5607 -18.679 
-41.3001 34.3184 -18.4707 -43.8591 34.8258 -18.7432 -43.7525 34.5005 -18.0839 
-43.1853 34.4779 -18.5064 -44.6647 34.75 -18.712 -44.3639 34.4936 -18.0517 
-45.0489 34.4379 -18.3848 -39.8214 34.9951 -19.5566 -39.5196 34.4578 -19.0779 
-39.1213 34.5597 -19.6641 -40.8292 35.1488 -19.4858 -41.6217 34.5533 -18.869 
-41.7595 34.9962 -19.3927 -42.9825 35.0069 -19.5217 -42.3597 34.4896 -18.9453 
-43.8841 35.0241 -19.7276 -44.5712 34.8651 -19.5309 -45.2167 34.5275 -19.234 
-37.7989 34.9622 -20.7098 -37.5027 34.1774 -20.2386 -37.1462 34.5494 -20.6628 
-38.8166 34.9817 -20.2613 -38.3562 34.2871 -19.9649 -43.8389 35.2059 -20.5916 
-44.5684 34.8868 -20.5587 -45.2288 34.5146 -20.2954 -36.7212 34.9717 -21.5177 
-36.7017 34.4864 -20.9804 -36.1933 34.4748 -21.5184 -44.5779 34.9051 -21.3493 
-45.2456 34.2783 -21.4937 -35.8852 34.9133 -22.3134 -35.6996 34.4965 -22.072 
-35.3062 34.5696 -22.4812 -43.7467 34.9628 -22.5109 -44.178 34.7335 -22.3623 
-44.7453 34.4854 -22.0825 -33.6135 35.1062 -23.6672 -33.811 34.4231 -23.202 
-33.1827 34.4836 -23.6193 -34.5664 34.4222 -22.8691 -42.7592 35.1793 -23.7237 
-43.1949 34.7567 -23.535 -43.7796 34.5353 -22.9012 -32.8642 34.8464 -24.2785 
-32.6718 34.1487 -24.0619 -32.4197 34.4778 -24.7418 -43.3346 34.5925 -24.517 
-32.6566 34.9899 -25.2653 -32.1748 34.4165 -25.6663 -43.3391 34.3752 -25.5387 
-32.756 34.9699 -26.4481 -32.1659 34.4871 -26.8429 -42.6483 34.9189 -26.7203 
-43.0222 34.5502 -26.4321 -32.7195 34.7082 -27.3623 -32.3697 34.3743 -27.6917 
-33.3883 35.0134 -27.3648 -42.3857 34.5689 -27.4942 -42.7649 34.303 -27.1408 
-33.0601 34.4421 -28.0273 -33.7208 34.6109 -28.0969 -33.9929 34.5532 -28.6436 
-41.726 34.967 -28.5635 -42.0411 34.5172 -28.4215 -34.5687 35.0446 -29.429 
-34.1804 34.4271 -29.3994 -40.5486 35.0576 -29.896 -41.236 34.595 -29.5705 
-41.7096 34.4503 -29.0586 -34.8704 34.388 -29.8972 -35.683 34.4798 -30.0293 
-36.6353 34.6656 -30.1766 -37.5862 34.7861 -30.4642 -37.2617 34.391 -30.6875 
-38.4579 34.9678 -30.5371 -39.6313 34.9838 -30.4619 -40.4785 34.7417 -30.5486 
-40.9805 34.4897 -30.314 -38.0184 34.4887 -30.9817 -38.9698 34.5195 -31.0672 
-40.0028 34.326 -31.054 -40.7304 34.2615 -30.7821 -43.7725 33.9901 -17.679 
-43.754 33.4702 -17.1245 -43.188 33.4407 -17.5365 -44.9642 34.0166 -17.6404 
-44.425 33.4828 -16.9933 -45.9974 33.8869 -17.642 -45.4812 33.4881 -16.9747 
-46.7478 33.7873 -17.7179 -46.6571 33.296 -17.0136 -47.2546 33.387 -17.5397 
-38.9611 33.7702 -18.4948 -38.8167 33.1536 -18.2257 -38.4512 33.4982 -18.7568 
-39.6078 34.1473 -18.5357 -39.7992 33.4813 -18.106 -40.8455 33.3499 -18.0409 
-41.9992 34.0502 -18.5483 -41.5056 33.6633 -18.1987 -42.7939 33.9538 -18.2883 
-42.3498 33.3004 -18.0236 -45.7311 34.1486 -18.616 -46.583 33.9071 -18.5009 
-47.2576 33.5588 -18.2907 -38.8446 34.0552 -19.1756 -38.1767 33.482 -19.3861 
-45.7294 34.204 -19.7093 -46.3898 33.8449 -19.6388 -47.2297 33.3407 -19.4433 
-36.6445 34.0788 -20.6861 -36.8344 33.405 -20.2339 -36.1836 33.4669 -20.7015 
-37.5818 33.3575 -19.8657 -45.8484 34.0017 -20.7176 -46.3524 33.4386 -20.6633 
-46.8 33.3375 -20.1538 -35.6738 33.9928 -21.5642 -35.6368 33.1576 -21.1122 
-35.1593 33.477 -21.7151 -45.7259 33.8558 -21.5195 -45.9938 33.505 -21.357 
-34.8747 33.9512 -22.2965 -34.6689 33.1864 -22.1352 -34.3326 33.5823 -22.6141 
-44.5538 34.0228 -22.8914 -45.1928 33.6654 -22.4731 -45.6651 33.2971 -21.9815 
-33.8041 33.394 -23.0299 -33.1789 33.7332 -23.502 -43.8431 34.17 -23.6316 
-44.4754 33.758 -23.7455 -45.0428 33.3272 -23.2382 -32.5171 33.2034 -24.0163 
-32.124 33.8267 -24.7025 -43.838 33.9936 -24.645 -44.3246 33.5254 -24.4577 
-44.7404 33.1537 -23.9658 -30.993 33.7965 -25.6225 -30.4497 33.2082 -25.1553 
-30.2345 33.4918 -25.8235 -31.6769 33.952 -25.4297 -31.3476 33.3544 -24.9248 
-43.6445 33.834 -25.6149 -44.0538 33.2909 -25.3756 -30.8265 33.8138 -26.4364 
-30.2962 33.4239 -26.5709 -31.5495 34.1379 -26.2595 -43.3773 33.6264 -26.5003 
-43.7839 33.3302 -26.1176 -30.8062 33.5594 -27.1029 -31.0884 33.4652 -27.875 
-31.6012 33.9828 -27.4137 -42.6454 33.8644 -27.7131 -43.0144 33.5427 -27.4369 
-31.69 33.6887 -28.3331 -31.3833 33.3668 -28.6595 -32.5665 33.9384 -28.5221 
-33.4893 34.1772 -28.5898 -42.3798 33.5744 -28.4933 -42.7415 33.2961 -28.1495 
-32.0423 33.4614 -29.0183 -32.7742 33.5042 -29.261 -33.199 33.2473 -29.7915 
-33.5177 33.8595 -29.2479 -41.6582 33.856 -29.7307 -42.0281 33.4964 -29.4327 
-33.9858 33.6091 -29.8659 -34.7113 33.3346 -30.1605 -35.7213 33.816 -30.1993 
-36.6865 34.0012 -30.6603 -36.1282 33.312 -30.832 -41.3205 33.5581 -30.5519 
-41.7817 33.2683 -30.1518 -36.8155 33.7933 -31.448 -36.3807 33.2346 -31.7231 
-37.6227 34.1093 -31.4649 -38.5298 34.1919 -31.5742 -39.3743 33.9614 -31.744 
-40.2049 33.3784 -31.6624 -40.665 33.5707 -31.1587 -36.8097 33.6232 -32.1118 
-37.1292 33.5572 -32.5661 -37.4543 33.8191 -32.2791 -38.5007 33.8366 -32.3289 
-39.2965 33.5837 -32.4085 -39.7818 33.356 -32.1529 -37.7636 33.2567 -32.9958 
-38.9476 33.2292 -32.8835 -43.7743 32.96 -16.7015 -43.7611 32.4546 -16.1303 
-43.1907 32.4498 -16.5482 -44.9272 32.9718 -16.4917 -44.4391 32.4463 -16.0055 
-45.9827 32.9554 -16.512 -45.4551 32.4552 -16.0031 -46.6589 32.8442 -16.5245 
-46.398 32.4598 -16.1065 -47.0994 32.546 -16.4728 -42.8622 32.8718 -17.3114 
-42.686 32.4502 -17.0682 -42.311 32.5098 -17.5204 -47.7545 32.9617 -17.8868 
-47.5559 32.7483 -17.1111 -48.0558 32.2186 -17.3398 -38.4622 32.2655 -18.1383 
[...]
CELL_DATA 29272
SCALARS scalars float
LOOKUP_TABLE default
1030 1030 1030 1030 1030 1030 1030 1030 1030 
1030 1030 1030 1030 1030 1030 1030 1030 1030 
1030 1030 1030 1030 1030 1030 1030 1030 1030 
1030 1030 1030 1030 1030 1030 1030 1030 1030 
1030 1030 1030 1030 1030 1030 1030 1030 1030 
1030 1030 1030 1030 1030 1030 1030 1030 1030 
1030 1030 1030 1030 1030 1030 1030 1030 1030 
1030 1030 1030 1030 1030 1030 1030 1030 1030 
1030 1030 1030 1030 1030 1030 1030 1030 1030 
1030 1030 1030 1030 1030 1030 1030 1030 1030 
1030 1030 1030 1030 1030 1030 1030 1030 1030 
1030 1030 1030 1030 1030 1030 1030 1030 1030 
1030 1030 1030 1030 1030 1030 1030 1030 1030 
1030 1030 1030 1030 1030 1030 1030 1030 1030 
1030 1030 1030 1030 1030 1030 1030 1030 1030 
1030 1030 1030 1030 1030 1030 1030 1030 1030 
1030 1030 1030 1030 1030 1030 1030 1030 1030 
1030 1030 1030 1030 1030 1030 1030 1030 1030 
1030 1030 1030 1030 1030 1030 1030 1030 1030 
1030 1030 1030 1030 1030 1030 1030 1030 1030 
1030 1030 1030 1030 1030 1030 1030 1030 1030 
1030 1030 1030 1030 1030 1030 1030 1030 1030 
1030 1030 1030 1030 1030 1030 1030 1030 1030 
1030 1030 1030 1030 1030 1030 1030 1030 1030 
1030 1030 1030 1030 1030 1030 1030 1030 1030 
1030 1030 1030 1030 1030 1030 1030 1030 1030 
1030 1030 1030 1030 1030 1030 1030 1030 1030 
1030 1030 1030 1030 1030 1030 1030 1030 1030 
1030 1030 1030 1030 1030 1030 1030 1030 1030 
1030 1030 1030 1030 1030 1030 1030 1030 1030 
1030 1030 1030 1030 1030 1030 1030 1030 1030 
1030 1030 1030 1030 1030 1030 1030 1030 1030 
1030 1030 1030 1030 1030 1030 1030 1030 1030 
1030 1030 1030 1030 1030 1030 1030 1030 1030 
1030 1030 1030 1030 1030 1030 1030 1030 1030 
1030 1030 1030 1030 1030 1030 1030 1030 1030 
1030 1030 1030 1030 1030 1030 1030 1030 1030 
1030 1030 1030 1030 1030 1030 1030 1030 1030 
1030 1030 1030 1030 1030 1030 1030 1030 1030 
1030 1030 1030 1030 1030 1030 1030 1030 1030 
1030 1030 1030 1030 1030 1030 1030 1030 1030 
1030 1030 1030 1030 1030 1030 1030 1030 1030 
1030 1030 1030 1030 1030 1030 1030 1030 1030 
1030 1030 1030 1030 1030 1030 1030 1030 1030 
1030 1030 1030 1030 1030 1030 1030 1030 1030 
1030 1030 1030 1030 1030 1030 1030 1030 1030 
1030 1030 1030 1030 1030 1030 1030 1030 1030 
1030 1030 1030 1030 1030 1030 1030 1030 1030 
1030 1030 1030 1030 1030 1030 1030 1030 1030 
1030 1030 1030 1030 1030 1030 1030 1030 1030 
1030 1030 1030 1030 1030 1030 1030 1030 1030 
1030 1030 1030 1030 1030 1030 1030 1030 1030 
1030 1030 1030 1030 1030 1030 1030 1030 1030 
1030 1030 1030 1030 1030 1030 1030 1030 1030 
1030 1030 1030 1030 1030 1030 1030 1030 1030 
1030 1030 1030 1030 1030 1030 1030 1030 1030 
1030 1030 1030 1030 1030 1030 1030 1030 1030 
1030 1030 1030 1030 1030 1030 1030 1030 1030 
1030 1030 1030 1030 1030 1030 1030 1030 1030 
1030 1030 1030 1030 1030 1030 1030 1030 1030 
1030 1030 1030 1030 1030 1030 1030 1030 1030 
1030 1030 1030 1030 1030 1030 1030 1030 1030 
1030 1030 1030 1030 1030 1030 1030 1030 1030 
1030 1030 1030 1030 1030 1030 1030 1030 1030 
1030 1030 1030 1030 1030 1030 1030 1030 1030 
1030 1030 1030 1030 1030 1030 1030 1030 1030 
1030 1030 1030 1030 1030 1030 1030 1030 1030 
1030 1030 1030 1030 1030 1030 1030 1030 1030 
1030 1030 1030 1030 1030 1030 1030 1030 1030 
1030 1030 1030 1030 1030 1030 1030 1030 1030 
1030 1030 1030 1030 1030 1030 1030 1030 1030 
1030 1030 1030 1030 1030 1030 1030 1030 1030 
1030 1030 1030 1030 1030 1030 1030 1030 1030 
1030 1030 1030 1030 1030 1030 1030 1030 1030 
1030 1030 1030 1030 1030 1030 1030 1030 1030 
1030 1030 1030 1030 1030 1030 1030 1030 1030 
1030 1030 1030 1030 1030 1030 1030 1030 1030 
1030 1030 1030 1030 1030 1030 1030 1030 1030 
1030 1030 1030 1030 1030 1030 1030 1030 1030 
1030 1030 1030 1030 1030 1030 1030 1030 1030 
1030 1030 1030 1030 1030 1030 1030 1030 1030 
1030 1030 1030 1030 1030 1030 1030 1030 1030 
1030 1030 1030 1030 1030 1030 1030 1030 1030 
1030 1030 1030 1030 1030 1030 1030 1030 1030 
1030 1030 1030 1030 1030 1030 1030 1030 1030 
1030 1030 1030 1030 1030 1030 1030 1030 1030 
1030 1030 1030 1030 1030 1030 1030 1030 1030 
1030 1030 1030 1030 1030 1030 1030 1030 1030 
1030 1030 1030 1030 1030 1030 1030 1030 1030 
1030 1030 1030 1030 1030 1030 1030 1030 1030 
1030 1030 1030 1030 1030 1030 1030 1030 1030 
1030 1030 1030 1030 1030 1030 1030 1030 1030 
1030 1030 1030 1030 1030 1030 1030 1030 1030 
1030 1030 1030 1030 1030 1030 1030 1030 1030 
1030 1030 1030 1030 1030 1030 1030 1030 1030 
1030 1030 1030 1030 1030 1030 1030 1030 1030 
1030 1030 1030 1030 1030 1030 1030 1030 1030 
1030 1030 1030 1030 1030 1030 1030 1030 1030 
1030 1030 1030 1030 1030 1030 1030 1030 1030 
1030 1030 1030 1030 1030 1030 1030 1030 1030 
1030 1030 1030 1030 1030 1030 1030 1030 1030 
1030 1030 1030 1030 1030 1030 1030 1030 1030 
1030 1030 1030 1030 1030 1030 1030 1030 1030 
1030 1030 1030 1030 1030 1030 1030 1030 1030 
1030 1030 1030 1030 1030 1030 1030 1030 1030 
1030 1030 1030 1030 1030 1030 1030 1030 1030 
1030 1030 1030 1030 1030 1030 1030 1030 1030 
1030 1030 1030 1030 1030 1030 1030 1030 1030 
1030 1030 1030 1030 1030 1030 1030 1030 1030 
1030 1030 1030 1030 1030 1030 1030 1030 1030 
1030 1030 1030 1030 1030 1030 1030 1030 1030 
1030 1030 1030 1030 1030 1030 1030 1030 1030 
1030 1030 1030 1030 1030 1030 1030 1030 1030 
1030 1030 1030 1030 1030 1030 1030 1030 1030 
1030 1030 1030 1030 1030 1030 1030 1030 1030 
1030 1030 1030 1030 1030 1030 1030 1030 1030 
1030 1030 1030 1030 1030 1030 1030 1030 1030 
1030 1030 1030 1030 1030 1030 1030 1030 1030 
1030 1030 1030 1030 1030 1030 1030 1030 1030 
1030 1030 1030 1030 1030 1030 1030 1030 1030 
1030 1030 1030 1030 1030 1030 1030 1030 1030 
1030 1030 1030 1030 1030 1030 1030 1030 1030 
1030 1030 1030 1030 1030 1030 1030 1030 1030 
1030 1030 1030 1030 1030 1030 1030 1030 1030 
1030 1030 1030 1030 1030 1030 1030 1030 1030 
1030 1030 1030 1030 1030 1030 1030 1030 1030 
1030 1030 1030 1030 1030 1030 1030 1030 1030 
1030 1030 1030 1030 1030 1030 1030 1030 1030 
1030 1030 1030 1030 1030 1030 1030 1030 1030 
1030 1030 1030 1030 1030 1030 1030 1030 1030 
1030 1030 1030 1030 1030 1030 1030 1030 1030 
1030 1030 1030 1030 1030 1030 1030 1030 1030 
1030 1030 1030 1030 1030 1030 1030 1030 1030 
1030 1030 1030 1030 1030 1030 1030 1030 1030 
1030 1030 1030 1030 1030 1030 1030 1030 1030 
1030 1030 1030 1030 1030 1030 1030 1030 1030 
1030 1030 1030 1030 1030 1030 1030 1030 1030 
1030 1030 1030 1030 1030 1030 1030 1030 1030 
1030 1030 1030 1030 1030 1030 1030 1030 1030 
1030 1030 1030 1030 1030 1030 1030 1030 1030 
1030 1030 1030 1030 1030 1030 1030 1030 1030 
1030 1030 1030 1030 1030 1030 1030 1030 1030 
1030 1030 1030 1030 1030 1030 1030 1030 1030 
1030 1030 1030 1030 1030 1030 1030 1030 1030 
1030 1030 1030 1030 1030 1030 1030 1030 1030 
1030 1030 1030 1030 1030 1030 1030 1030 1030 
1030 1030 1030 1030 1030 1030 1030 1030 1030 
1030 1030 1030 1030 1030 1030 1030 1030 1030 
1030 1030 1030 1030 1030 1030 1030 1030 1030 
1030 1030 1030 1030 1030 1030 1030 1030 1030 
1030 1030 1030 1030 1030 1030 1030 1030 1030 
1030 1030 1030 1030 1030 1030 1030 1030 1030 
1030 1030 1030 1030 1030 1030 1030 1030 1030 
1030 1030 1030 1030 1030 1030 1030 1030 1030 
1030 1030 1030 1030 1030 1030 1030 1030 1030 
1030 1030 1030 1030 1030 1030 1030 1030 1030 
1030 1030 1030 1030 1030 1030 1030 1030 1030 
1030 1030 1030 1030 1030 1030 1030 1030 1030 
1030 1030 1030 1030 1030 1030 1030 1030 1030 
1030 1030 1030 1030 1030 1030 1030 1030 1030 
1030 1030 1030 1030 1030 1030 1030 1030 1030 
1030 1030 1030 1030 1030 1030 1030 1030 1030 
1030 1030 1030 1030 1030 1030 1030 1030 1030 
1030 1030 1030 1030 1030 1030 1030 1030 1030 
1030 1030 1030 1030 1030 1030 1030 1030 1030 
1030 1030 1030 1030 1030 1030 1030 1030 1030 
1030 1030 1030 1030 1030 1030 1030 1030 1030 
1030 1030 1030 1030 1030 1030 1030 1030 1030 
1030 1030 1030 1030 1030 1030 1030 1030 1030 
1030 1030 1030 1030 1030 1030 1030 1030 1030 
1030 1030 1030 1030 1030 1030 1030 1030 1030 
1030 1030 1030 1030 1030 1030 1030 1030 1030 
1030 1030 1030 1030 1030 1030 1030 1030 1030 
1030 1030 1030 1030 1030 1030 1030 1030 1030 
1030 1030 1030 1030 1030 1030 1030 1030 1030 
1030 1030 1030 1030 1030 1030 1030 1030 1030 
1030 1030 1030 1030 1030 1030 1030 1030 1030 
1030 1030 1030 1030 1030 1030 1030 1030 1030 
1030 1030 1030 1030 1030 1030 1030 1030 1030 
1030 1030 1030 1030 1030 1030 1030 1030 1030 
1030 1030 1030 1030 1030 1030 1030 1030 1030 
1030 1030 1030 1030 1030 1030 1030 1030 1030 
1030 1030 1030 1030 1030 1030 1030 1030 1030 
1030 1030 1030 1030 1030 1030 1030 1030 1030 
1030 1030 1030 1030 1030 1030 1030 1030 1030 
1030 1030 1030 1030 1030 1030 1030 1030 1030 
1030 1030 1030 1030 1030 1030 1030 1030 1030 
1030 1030 1030 1030 1030 1030 1030 1030 1030 
1030 1030 1030 1030 1030 1030 1030 1030 1030 
1030 1030 1030 1030 1030 1030 1030 1030 1030 
1030 1030 1030 1030 1030 1030 1030 1030 1030 
1030 1030 1030 1030 1030 1030 1030 1030 1030 
1030 1030 1030 1030 1030 1030 1030 1030 1030 
1030 1030 1030 1030 1030 1030 1030 1030 1030 
1030 1030 1030 1030 1030 1030 1030 1030 1030 
1030 1030 1030 1030 1030 1030 1030 1030 1030 
1030 1030 1030 1030 1030 1030 1030 1030 1030 
1030 1030 1030 1030 1030 1030 1030 1030 1030 
1030 1030 1030 1030 1030 1030 1030 1030 1030 
1030 1030 1030 1030 1030 1030 1030 1030 1030 
1030 1030 1030 1030 1030 1030 1030 1030 1030 
1030 1030 1030 1030 1030 1030 1030 1030 1030 
1030 1030 1030 1030 1030 1030 1030 1030 1030 
1030 1030 1030 1030 1030 1030 1030 1030 1030 
1030 1030 1030 1030 1030 1030 1030 1030 1030 
1030 1030 1030 1030 1030 1030 1030 1030 1030 
1030 1030 1030 1030 1030 1030 1030 1030 1030 
1030 1030 1030 1030 1030 1030 1030 1030 1030 
1030 1030 1030 1030 1030 1030 1030 1030 1030 
1030 1030 1030 1030 1030 1030 1030 1030 1030 
1030 1030 1030 1030 1030 1030 1030 1030 1030 
1030 1030 1030 1030 1030 1030 1030 1030 1030 
1030 1030 1030 1030 1030 1030 1030 1030 1030 
1030 1030 1030 1030 1030 1030 1030 1030 1030 
1030 1030 1030 1030 1030 1030 1030 1030 1030 
1030 1030 1030 1030 1030 1030 1030 1030 1030 
1030 1030 1030 1030 1030 1030 1030 1030 1030 
1030 1030 1030 1030 1030 1030 1030 1030 1030 
1030 1030 1030 1030 1030 1030 1030 1030 1030 
1030 1030 1030 1030 1030 1030 1030 1030 1030 
1030 1030 1030 1030 1030 1030 1030 1030 1030 
1030 1030 1030 1030 1030 1030 1030 1030 1030 
1030 1030 1030 1030 1030 1030 1030 1030 1030 
1030 1030 1030 1030 1030 1030 1030 1030 1030 
1030 1030 1030 1030 1030 1030 1030 1030 1030 
1030 1030 1030 1030 1030 1030 1030 1030 1030 
1030 1030 1030 1030 1030 1030 1030 1030 1030 
1030 1030 1030 1030 1030 1030 1030 1030 1030 
1030 1030 1030 1030 1030 1030 1030 1030 1030 
1030 1030 1030 1030 1030 1030 1030 1030 1030 
1030 1030 1030 1030 1030 1030 1030 1030 1030 
1030 1030 1030 1030 1030 1030 1030 1030 1030 
1030 1030 1030 1030 1030 1030 1030 1030 1030 
1030 1030 1030 1030 1030 1030 1030 1030 1030 
1030 1030 1030 1030 1030 1030 1030 1030 1030 
1030 1030 1030 1030 1030 1030 1030 1030 1030 
1030 1030 1030 1030 1030 1030 1030 1030 1030 
1030 1030 1030 1030 1030 1030 1030 1030 1030 
1030 1030 1030 1030 1030 1030 1030 1030 1030 
1030 1030 1030 1030 1030 1030 1030 1030 1030 
1030 1030 1030 1030 1030 1030 1030 1030 1030 
1030 1030 1030 1030 1030 1030 1030 1030 1030 
1030 1030 1030 1030 1030 1030 1030 1030 1030 
1030 1030 1030 1030 1030 1030 1030 1030 1030 
1030 1030 1030 1030 1030 1030 1030 1030 1030 
1030 1030 1030 1030 1030 1030 1030 1030 1030 
1030 1030 1030 1030 1030 1030 1030 1030 1030 
1030 1030 1030 1030 1030 1030 1030 1030 1030 
1030 1030 1030 1030 1030 1030 1030 1030 1030 
1030 1030 1030 1030 1030 1030 1030 1030 1030 
1030 1030 1030 1030 1030 1030 1030 1030 1030 
1030 1030 1030 1030 1030 1030 1030 1030 1030 
1030 1030 1030 1030 1030 1030 1030 1030 1030 
1030 1030 1030 1030 1030 1030 1030 1030 1030 
1030 1030 1030 1030 1030 1030 1030 1030 1030 
1030 1030 1030 1030 1030 1030 1030 1030 1030 
1030 1030 1030 1030 1030 1030 1030 1030 1030 
1030 1030 1030 1030 1030 1030 1030 1030 1030 
1030 1030 1030 1030 1030 1030 1030 1030 1030 
1030 1030 1030 1030 1030 1030 1030 1030 1030 
1030 1030 1030 1030 1030 1030 1030 1030 1030 
1030 1030 1030 1030 1030 1030 1030 1030 1030 
1030 1030 1030 1030 1030 1030 1030 1030 1030 
1030 1030 1030 1030 1030 1030 1030 1030 1030 
1030 1030 1030 1030 1030 1030 1030 1030 1030 
1030 1030 1030 1030 1030 1030 1030 1030 1030 
1030 1030 1030 1030 1030 1030 1030 1030 1030 
1030 1030 1030 1030 1030 1030 1030 1030 1030 
1030 1030 1030 1030 1030 1030 1030 1030 1030 
1030 1030 1030 1030 1030 1030 1030 1030 1030 
1030 1030 1030 1030 1030 1030 1030 1030 1030 
1030 1030 1030 1030 1030 1030 1030 1030 1030 
1030 1030 1030 1030 1030 1030 1030 1030 1030 
1030 1030 1030 1030 1030 1030 1030 1030 1030 
1030 1030 1030 1030 1030 1030 1030 1030 1030 
1030 1030 1030 1030 1030 1030 1030 1030 1030 
1030 1030 1030 1030 1030 1030 1030 1030 1030 
1030 1030 1030 1030 1030 1030 1030 1030 1030 
1030 1030 1030 1030 1030 1030 1030 1030 1030 
1030 1030 1030 1030 1030 1030 1030 1030 1030 
1030 1030 1030 1030 1030 1030 1030 1030 1030 
1030 1030 1030 1030 1030 1030 1030 1030 1030 
1030 1030 1030 1030 1030 1030 1030 1030 1030 
1030 1030 1030 1030 1030 1030 1030 1030 1030 
1030 1030 1030 1030 1030 1030 1030 1030 1030 
1030 1030 1030 1030 1030 1030 1030 1030 1030 
1030 1030 1030 1030 1030 1030 1030 1030 1030 
1030 1030 1030 1030 1030 1030 1030 1030 1030 
1030 1030 1030 1030 1030 1030 1030 1030 1030 
1030 1030 1030 1030 1030 1030 1030 1030 1030 
1030 1030 1030 1030 1030 1030 1030 1030 1030 
1030 1030 1030 1030 1030 1030 1030 1030 1030 
1030 1030 1030 1030 1030 1030 1030 1030 1030 
1030 1030 1030 1030 1030 1030 1030 1030 1030 
1030 1030 1030 1030 1030 1030 1030 1030 1030 
1030 1030 1030 1030 1030 1030 1030 1030 1030 
1030 1030 1030 1030 1030 1030 1030 1030 1030 
1030 1030 1030 1030 1030 1030 1030 1030 1030 
1030 1030 1030 1030 1030 1030 1030 1030 1030 
1030 1030 1030 1030 1030 1030 1030 1030 1030 
1030 1030 1030 1030 1030 1030 1030 1030 1030 
1030 1030 1030 1030 1030 1030 1030 1030 1030 
1030 1030 1030 1030 1030 1030 1030 1030 1030 
1030 1030 1030 1030 1030 1030 1030 1030 1030 
1030 1030 1030 1030 1030 1030 1030 1030 1030 
1030 1030 1030 1030 1030 1030 1030 1030 1030 
1030 1030 1030 1030 1030 1030 1030 1030 1030 
1030 1030 1030 1030 1030 1030 1030 1030 1030 
1030 1030 1030 1030 1030 1030 1030 1030 1030 
1030 1030 1030 1030 1030 1030 1030 1030 1030 
1030 1030 1030 1030 1030 1030 1030 1030 1030 
1030 1030 1030 1030 1030 1030 1030 1030 1030 
1030 1030 1030 1030 1030 1030 1030 1030 1030 
1030 1030 1030 1030 1030 1030 1030 1030 1030 
1030 1030 1030 1030 1030 1030 1030 1030 1030 
1030 1030 1030 1030 1030 1030 1030 1030 1030 
1030 1030 1030 1030 1030 1030 1030 1030 1030 
1030 1030 1030 1030 1030 1030 1030 1030 1030 
1030 1030 1030 1030 1030 1030 1030 1030 1030 
1030 1030 1030 1030 1030 1030 1030 1030 1030 
1030 1030 1030 1030 1030 1030 1030 1030 1030 
1030 1030 1030 1030 1030 1030 1030 1030 1030 
1030 1030 1030 1030 1030 1030 1030 1030 1030 
1030 1030 1030 1030 1030 1030 1030 1030 1030 
1030 1030 1030 1030 1030 1030 1030 1030 1030 
1030 1030 1030 1030 1030 1030 1030 1030 1030 
1030 1030 1030 1030 1030 1030 1030 1030 1030 
1030 1030 1030 1030 1030 1030 1030 1030 1030 
1030 1030 1030 1030 1030 1030 1030 1030 1030 
1030 1030 1030 1030 1030 1030 1030 1030 1030 
1030 1030 1030 1030 1030 1030 1030 1030 1030 
1030 1030 1030 1030 1030 1030 1030 1030 1030 
1030 1030 1030 1030 1030 1030 1030 1030 1030 
1030 1030 1030 1030 1030 1030 1030 1030 1030 
1030 1030 1030 1030 1030 1030 1030 1030 1030 
1030 1030 1030 1030 1030 1030 1030 1030 1030 
1030 1030 1030 1030 1030 1030 1030 1030 1030 
1030 1030 1030 1030 1030 1030 1030 1030 1030 
1030 1030 1030 1030 1030 1030 1030 1030 1030 
1030 1030 1030 1030 1030 1030 1030 1030 1030 
1030 1030 1030 1030 1030 1030 1030 1030 1030 
1030 1030 1030 1030 1030 1030 1030 1030 1030 
1030 1030 1030 1030 1030 1030 1030 1030 1030 
1030 1030 1030 1030 1030 1030 1030 1030 1030 
1030 1030 1030 1030 1030 1030 1030 1030 1030 
1030 1030 1030 1030 1030 1030 1030 1030 1030 
1030 1030 1030 1030 1030 1030 1030 1030 1030 
1030 1030 1030 1030 1030 1030 1030 1030 1030 
1030 1030 1030 1030 1030 1030 1030 1030 1030 
1030 1030 1030 1030 1030 1030 1030 1030 1030 
1030 1030 1030 1030 1030 1030 1030 1030 1030 
1030 1030 1030 1030 1030 1030 1030 1030 1030 
1030 1030 1030 1030 1030 1030 1030 1030 1030 
1030 1030 1030 1030 1030 1030 1030 1030 1030 
1030 1030 1030 1030 1030 1030 1030 1030 1030 
1030 1030 1030 1030 1030 1030 1030 1030 1030 
1030 1030 1030 1030 1030 1030 1030 1030 1030 
1030 1030 1030 1030 1030 1030 1030 1030 1030 
1030 1030 1030 1030 1030 1030 1030 1030 1030 
1030 1030 1030 1030 1030 1030 1030 1030 1030 
1030 1030 1030 1030 1030 1030 1030 1030 1030 
1030 1030 1030 1030 1030 1030 1030 1030 1030 
1030 1030 1030 1030 1030 1030 1030 1030 1030 
1030 1030 1030 1030 1030 1030 1030 1030 1030 
1030 1030 1030 1030 1030 1030 1030 1030 1030 
1030 1030 1030 1030 1030 1030 1030 1030 1030 
1030 1030 1030 1030 1030 1030 1030 1030 1030 
1030 1030 1030 1030 1030 1030 1030 1030 1030 
1030 1030 1030 1030 1030 1030 1030 1030 1030 
1030 1030 1030 1030 1030 1030 1030 1030 1030 
1030 1030 1030 1030 1030 1030 1030 1030 1030 
1030 1030 1030 1030 1030 1030 1030 1030 1030 
1030 1030 1030 1030 1030 1030 1030 1030 1030 
1030 1030 1030 1030 1030 1030 1030 1030 1030 
1030 1030 1030 1030 1030 1030 1030 1030 1030 
1030 1030 1030 1030 1030 1030 1030 1030 1030 
1030 1030 1030 1030 1030 1030 1030 1030 1030 
1030 1030 1030 1030 1030 1030 1030 1030 1030 
1030 1030 1030 1030 1030 1030 1030 1030 1030 
1030 1030 1030 1030 1030 1030 1030 1030 1030 
1030 1030 1030 1030 1030 1030 1030 1030 1030 
1030 1030 1030 1030 1030 1030 1030 1030 1030 
1030 1030 1030 1030 1030 1030 1030 1030 1030 
1030 1030 1030 1030 1030 1030 1030 1030 1030 
1030 1030 1030 1030 1030 1030 1030 1030 1030 
1030 1030 1030 1030 1030 1030 1030 1030 1030 
1030 1030 1030 1030 1030 1030 1030 1030 1030 
1030 1030 1030 1030 1030 1030 1030 1030 1030 
1030 1030 1030 1030 1030 1030 1030 1030 1030 
1030 1030 1030 1030 1030 1030 1030 1030 1030 
1030 1030 1030 1030 1030 1030 1030 1030 1030 
1030 1030 1030 1030 1030 1030 1030 1030 1030 
1030 1030 1030 1030 1030 1030 1030 1030 1030 
1030 1030 1030 1030 1030 1030 1030 1030 1030 
1030 1030 1030 1030 1030 1030 1030 1030 1030 
1030 1030 1030 1030 1030 1030 1030 1030 1030 
1030 1030 1030 1030 1030 1030 1030 1030 1030 
1030 1030 1030 1030 1030 1030 1030 1030 1030 
1030 1030 1030 1030 1030 1030 1030 1030 1030 
1030 1030 1030 1030 1030 1030 1030 1030 1030 
1030 1030 1030 1030 1030 1030 1030 1030 1030 
1030 1030 1030 1030 1030 1030 1030 1030 1030 
1030 1030 1030 1030 1030 1030 1030 1030 1030 
1030 1030 1030 1030 1030 1030 1030 1030 1030 
1030 1030 1030 1030 1030 1030 1030 1030 1030 
1030 1030 1030 1030 1030 1030 1030 1030 1030 
1030 1030 1030 1030 1030 1030 1030 1030 1030 
1030 1030 1030 1030 1030 1030 1030 1030 1030 
1030 1030 1030 1030 1030 1030 1030 1030 1030 
1030 1030 1030 1030 1030 1030 1030 1030 1030 
1030 1030 1030 1030 1030 1030 1030 1030 1030 
1030 1030 1030 1030 1030 1030 1030 1030 1030 
1030 1030 1030 1030 1030 1030 1030 1030 1030 
1030 1030 1030 1030 1030 1030 1030 1030 1030 
1030 1030 1030 1030 1030 1030 1030 1030 1030 
1030 1030 1030 1030 1030 1030 1030 1030 1030 
1030 1030 1030 1030 1030 1030 1030 1030 1030 
1030 1030 1030 1030 1030 1030 1030 1030 1030 
1030 1030 1030 1030 1030 1030 1030 1030 1030 
1030 1030 1030 1030 1030 1030 1030 1030 1030 
1030 1030 1030 1030 1030 1030 1030 1030 1030 
1030 1030 1030 1030 1030 1030 1030 1030 1030 
1030 1030 1030 1030 1030 1030 1030 1030 1030 
1030 1030 1030 1030 1030 1030 1030 1030 1030 
1030 1030 1030 1030 1030 1030 1030 1030 1030 
1030 1030 1030 1030 1030 1030 1030 1030 1030 
1030 1030 1030 1030 1030 1030 1030 1030 1030 
1030 1030 1030 1030 1030 1030 1030 1030 1030 
1030 1030 1030 1030 1030 1030 1030 1030 1030 
1030 1030 1030 1030 1030 1030 1030 1030 1030 
1030 1030 1030 1030 1030 1030 1030 1030 1030 
1030 1030 1030 1030 1030 1030 1030 1030 1030 
1030 1030 1030 1030 1030 1030 1030 1030 1030 