# vtk DataFile Version 4.2
vtk output
ASCII
DATASET POLYDATA
POINTS 20016 float
-58.7727 13.7094 16.2279 -58.7619 13.2514 16.8338 -58.2329 13.5277 16.0885 
-59.2493 13.3873 16.4351 -58.5916 13.7338 15.6978 -58.3218 13.4857 15.3638 
-59.1491 13.5478 15.7754 -58.8395 13.4844 15.2061 -58.6469 12.7585 20.1756 
-58.7732 12.2376 20.8896 -58.0954 12.6164 20.3474 -59.2584 12.3661 20.4872 
-58.0079 12.8655 19.5066 -57.6517 12.5784 20.0018 -57.291 12.4731 19.3057 
-58.6962 12.8704 19.3417 -59.2322 12.5343 19.7246 -57.8111 12.8784 18.4399 
-57.188 12.4995 18.1865 -58.562 12.8929 18.4858 -59.2235 12.5287 18.7134 
-57.6765 12.8495 17.6015 -57.1664 12.4993 17.2 -58.3534 12.9988 17.5602 
-59.2229 12.6352 17.6649 -57.7169 13.0069 16.6005 -56.9874 12.5616 16.3739 
-59.7223 12.9631 16.1031 -59.5689 12.7699 16.8686 -60.0372 12.2018 16.6382 
-56.9985 12.7446 15.5778 -56.6497 12.4498 15.9563 -56.4462 12.319 15.485 
-57.7983 13.1646 15.4497 -59.5617 13.0372 15.1263 -60.1002 12.3337 15.6963 
-56.8054 12.5297 14.8707 -57.0794 12.4723 14.1283 -57.6315 12.8799 14.5028 
-58.7595 13.1458 14.5418 -59.7265 12.8515 14.2217 -60.1011 12.3669 14.6934 
-57.8549 12.8515 13.4409 -57.2337 12.4438 13.1838 -58.7014 13.0297 13.4394 
-59.5872 12.871 13.3928 -60.1056 12.3513 13.6969 -57.9116 12.8564 12.4316 
-57.2614 12.4654 12.1684 -58.5864 13.0259 12.6142 -59.397 12.8475 12.3482 
-60.0551 12.2563 12.6196 -57.7465 12.8836 11.2901 -57.0988 12.5746 11.3592 
-58.7364 12.9133 11.5757 -59.4318 12.5991 11.4767 -59.8252 12.3461 11.8206 
-56.0273 12.823 10.278 -55.6517 12.4298 10.7128 -55.25 12.3182 10.0758 
-56.9195 12.8934 10.6055 -56.4242 12.5109 10.9946 -57.5018 12.8906 10.2237 
-58.4011 12.7995 10.5727 -59.1785 12.5133 10.7668 -55.6603 12.7738 9.64972 
-55.4033 12.2768 9.43294 -56.4867 12.8554 9.67853 -57.2285 12.5931 9.55371 
-58.0489 12.523 9.85658 -58.8222 12.4199 10.1356 -55.8549 12.5038 9.20262 
-56.5834 12.313 9.07995 -56.6465 12.6699 6.40567 -56.6681 12.5933 6.68927 
-56.302 12.3704 6.48099 -56.9896 12.3067 6.60025 -56.6066 12.191 6.19648 
-57.9503 11.7403 21.4884 -57.8184 11.4657 21.8749 -57.3157 11.4385 21.3065 
-58.4929 11.8825 21.3694 -58.402 11.4821 21.9459 -59.1348 11.5769 21.5843 
-57.6737 12.1025 20.5586 -56.9765 11.5868 20.3752 -59.7733 11.9452 20.1541 
-59.6111 11.7576 20.942 -60.1104 11.2216 20.6511 -56.8502 11.8645 19.6467 
-56.5779 11.3133 20.0071 -56.376 11.3435 19.3549 -59.7482 12.0001 19.1775 
-60.1389 11.3332 19.6961 -56.6927 11.9808 18.7239 -56.2046 11.3622 18.3449 
-59.7473 11.9881 18.149 -60.0891 11.3211 18.6929 -56.6892 11.9817 17.7104 
-56.1884 11.4743 17.203 -59.818 12.1475 17.343 -60.1202 11.4364 17.5637 
-56.5365 12.0595 16.5014 -56.0333 11.5197 16.3747 -60.3376 11.4044 16.518 
-50.8409 11.8813 15.2867 -50.8511 11.3623 15.661 -50.2843 11.4541 15.3411 
-51.9332 11.8905 15.3659 -51.6432 11.3517 15.871 -52.6859 11.7486 15.2342 
-52.6153 11.3756 15.7649 -53.177 11.2987 15.4164 -55.9683 11.803 15.5132 
-55.5544 11.3438 15.8684 -55.2609 11.4027 15.103 -60.3789 11.6209 15.4342 
-49.9413 11.8732 14.5624 -49.6807 11.221 15.1312 -49.2607 11.3509 14.4676 
-50.7659 12.0814 14.3519 -51.6349 12.0578 14.5122 -52.7113 11.8933 14.427 
-53.2595 11.466 14.7445 -55.7081 11.8056 14.3301 -54.9943 11.4844 14.3278 
-56.4025 12.1514 14.6759 -60.3745 11.6452 14.428 -49.691 11.8242 13.5511 
-49.2039 11.1427 13.4497 -50.5845 12.0468 13.4906 -51.6193 12.0547 13.4702 
-52.6675 12.0129 13.4543 -53.5735 11.5432 14.0773 -53.7983 11.8354 13.4127 
-55.0035 11.7832 13.4409 -54.3289 11.4372 13.9785 -55.9009 11.901 13.2994 
-56.5303 12.0787 13.7294 -60.3701 11.623 13.4205 -49.7243 11.5858 12.8509 
-50.2271 11.4517 12.2654 -50.4224 11.8219 12.7203 -51.5549 11.8856 12.4654 
-52.6961 12.0019 12.4232 -53.7264 11.9869 12.3915 -54.7542 11.9371 12.3874 
-55.7649 11.9264 12.4299 -56.603 12.0635 12.7234 -60.3947 11.5042 12.5855 
-51.0267 11.4934 11.9954 -51.8381 11.5536 11.7631 -52.3357 11.4221 11.2403 
-52.6909 11.8175 11.5231 -53.7274 11.9925 11.4303 -54.5822 11.9958 11.5553 
-55.6056 12.0902 11.4239 -56.5899 12.1605 11.7735 -59.7661 12.0802 11.0949 
-60.2467 11.6617 11.7002 -52.9006 11.552 10.8227 -53.1654 11.2995 10.3238 
-53.5653 11.7831 10.6906 -54.6733 11.983 10.6746 -59.5391 11.9736 10.1605 
-60.2263 11.3865 10.5475 -53.8238 11.3154 10.1469 -54.5969 11.4628 9.95609 
-55.1669 11.6026 9.4601 -57.6751 12.161 9.09306 -58.735 12.1245 9.5533 
-59.457 11.7652 9.2626 -60.019 11.3279 9.55105 -55.8525 11.8135 8.91589 
-56.8708 11.9152 8.42125 -56.1156 11.4556 8.1222 -57.8545 11.9459 8.28589 
-58.7175 11.869 8.57143 -59.4251 11.5531 8.53411 -59.8204 11.3044 8.87414 
-56.6839 12.0041 7.25601 -55.9663 11.2408 7.14202 -57.5617 11.8888 7.69392 
-58.4079 11.7494 7.61979 -59.1919 11.4686 7.77862 -55.8283 11.7969 6.67645 
-55.6103 11.4405 6.71559 -55.5374 11.5038 6.44351 -57.8234 11.6522 6.90089 
-57.194 11.7446 6.3362 -58.8439 11.3855 7.12385 -56.0086 11.6052 6.19362 
-56.7522 11.4191 6.08099 -57.4485 11.4373 5.38493 -57.9311 11.7925 5.24164 
-57.7036 11.5076 5.77622 -58.1345 11.4581 5.64937 -57.7033 11.829 4.68941 
-57.3716 11.1793 4.42047 -58.544 11.6094 5.07492 -58.3749 11.8226 4.48705 
-59.0095 11.1958 4.55692 -58.0078 11.6039 3.96682 -58.7057 11.4089 3.87907 
-58.0337 10.8713 25.3365 -57.6378 10.4696 25.8354 -57.2575 10.5138 25.1976 
-58.7276 10.8448 25.2401 -58.419 10.5579 25.8827 -59.0451 10.2894 25.6292 
-57.8238 10.9069 24.5105 -57.1571 10.4824 24.2559 -58.5951 10.933 24.4954 
-59.0987 10.4232 24.7129 -57.8386 10.8694 23.4962 -57.1696 10.4695 23.2335 
-58.8023 10.9048 23.4598 -59.2747 10.2502 23.4461 -57.6501 11.0332 22.3676 
-57.0199 10.5254 22.4058 -58.8255 11.1047 22.4718 -59.6094 10.6041 22.8669 
-59.6771 10.7881 22.3876 -59.9406 10.4299 22.2093 -56.8937 10.8096 21.6694 
-56.6449 10.2588 22.0505 -56.4177 10.3065 21.3767 -59.7547 11.1116 21.5748 
-60.0941 10.4049 21.2877 -56.6758 11.0258 20.7691 -56.1969 10.5068 20.3125 
-60.2736 10.6182 20.2721 -56 10.7288 19.2633 -60.2445 10.4622 19.4486 
-55.7947 10.7892 18.5507 -55.6478 10.2957 19.0778 -55.4314 10.3086 18.4149 
-60.3313 10.3886 18.5037 -50.9154 10.8157 17.2488 -50.6882 10.237 17.7281 
-50.3852 10.5852 17.2471 -51.2344 10.3946 17.6135 -55.6214 10.9333 17.5773 
-55.0955 10.3733 17.5193 -60.434 10.6116 17.5111 -50.7306 10.7834 16.5308 
-50.2474 10.2169 16.5345 -51.5155 10.606 17.0825 -51.5532 10.8578 16.4324 
-52.1183 10.4442 16.6357 -54.8476 10.7656 16.5023 -54.7262 10.4116 16.9144 
-54.2238 10.4188 16.3867 -55.5657 11.1412 16.5218 -60.6496 10.633 16.8634 
-60.7197 10.9029 16.094 -61.0221 10.2108 16.6575 -49.7746 10.668 15.5191 
-49.674 10.3995 15.6456 -49.3857 10.7063 15.2719 -50.5627 10.3282 15.8593 
-50.6585 11.0362 15.5096 -49.939 10.3911 15.5823 -50.9429 10.5237 15.4943 
-52.4863 10.7659 16.1543 -53.9713 10.9377 15.3671 -53.3612 10.6414 15.9695 
-54.909 11.0509 15.6316 -60.7346 10.9945 15.1435 -61.0943 10.3316 15.7015 
-49.1975 10.58 14.5322 -50.2952 10.6491 15.3112 -53.9005 11.1924 14.4195 
-54.5502 11.1353 14.7223 -60.7237 10.9939 14.1372 -61.0824 10.348 14.7009 
-49.1891 10.4089 13.7 -60.7206 10.9841 13.1333 -61.0591 10.3409 13.6858 
-49.6565 11.1275 12.3382 -49.2719 10.5361 12.5957 -60.7142 11.0021 12.1564 
-61.0578 10.3405 12.693 -49.706 10.756 11.4871 -49.3896 10.3573 11.6455 
-50.5988 11.0808 11.4276 -51.661 11.1815 11.2613 -60.6963 10.9765 11.1725 
-61.069 10.3598 11.7055 -49.7368 10.4846 10.9379 -50.2092 10.3734 10.4656 
-50.4268 10.7229 10.6014 -51.4062 10.8203 10.4945 -52.3895 11.0134 10.5306 
-60.6525 10.8034 10.3593 -61.0284 10.2515 10.6233 -50.9052 10.4934 10.1449 
-51.7039 10.4271 10.1285 -52.7898 10.4191 9.90358 -53.9064 10.708 9.74584 
-54.6189 10.9467 9.24975 -53.9488 10.5179 9.28641 -60.4374 10.7401 9.66367 
-60.7892 10.3341 9.8551 -54.0304 10.7079 8.55208 -53.4904 10.3638 8.88564 
-53.3616 10.436 8.45199 -54.8784 10.9304 8.35357 -55.4328 11.1697 8.67599 
-59.7646 11.0583 8.12455 -60.2444 10.5389 8.60582 -53.5278 10.3557 7.92606 
-54.2445 10.4146 7.23578 -54.5474 10.7509 7.71109 -55.5055 10.9353 7.69571 
-59.5727 10.9512 7.16604 -60.078 10.4836 7.60026 -55.0894 10.4832 6.99273 
-55.772 10.5969 6.93459 -55.8429 11.1004 6.50017 -56.0452 10.5993 6.58886 
-57.633 11.1637 6.07086 -58.7771 11.1169 6.57009 -59.5025 10.7712 6.26338 
-60.0538 10.2266 6.61644 -56.4271 10.526 6.03119 -57.107 10.4374 5.25847 
-58.7949 11.1216 5.66467 -59.3802 10.5512 5.26947 -59.8041 10.2976 5.86994 
-57.1978 10.4246 4.44354 -59.2663 10.5042 4.43161 -57.7161 11.0459 3.57981 
-57.3337 10.4126 3.76352 -58.4215 11.0065 3.36531 -59.103 10.4485 3.5972 
-57.8264 10.3801 2.91872 -58.7314 10.3524 2.86278 -55.0076 9.83862 32.3857 
-54.6055 9.44299 32.881 -54.2117 9.49271 32.206 -55.9221 9.86443 32.2311 
-55.4048 9.51605 32.9351 -56.1848 9.18964 32.6387 -54.1092 9.47559 31.2287 
-54.8035 9.89061 31.5096 -55.7255 10.0748 31.5007 -56.5852 9.57223 31.935 
-56.6037 9.87283 31.3932 -57.003 9.32266 31.4456 -54.7824 9.86933 30.4814 
-54.1586 9.45223 30.2033 -55.6923 10.0821 30.4908 -56.5996 9.95689 30.4835 
-57.21 9.2693 30.6415 -54.7999 9.77354 29.5377 -54.3493 9.39065 29.3678 
-55.6889 10.0435 29.4764 -56.7809 9.97535 29.3603 -57.0685 9.4738 29.7096 
-50.6965 9.65736 28.4181 -50.5257 9.52284 28.6595 -50.2754 9.39155 28.3406 
-50.9782 9.48714 28.5682 -54.8496 9.52563 28.8792 -55.283 9.3972 28.3002 
-55.6475 9.81726 28.5759 -56.7376 10.041 28.4057 -57.3995 9.32747 29.0658 
-57.6372 9.83236 28.3234 -58.0654 9.25618 28.6394 -50.8297 9.17218 28.1739 
-55.8758 9.5282 27.8523 -56.1689 9.46071 27.1031 -56.6876 9.87167 27.4934 
-57.8335 9.92498 27.3534 -58.343 9.35025 27.74 -56.7461 9.80192 26.6109 
-56.2352 9.44646 26.1872 -57.6254 10.1301 26.4847 -58.6481 9.59874 26.9748 
-58.6249 10.0449 26.4255 -59.0887 9.3949 26.4622 -56.8826 9.98143 25.7715 
-56.2093 9.44566 25.2063 -59.2433 9.51113 25.4465 -56.681 9.96794 24.7584 
-56.2051 9.44297 24.1954 -59.4108 9.48871 24.5216 -56.6905 9.93927 23.754 
-56.2205 9.44237 23.1932 -59.684 9.6997 23.8015 -59.7485 9.86124 23.4165 
[...]
CELL_DATA 40320
SCALARS scalars float
LOOKUP_TABLE default
1022 1022 1022 1022 1022 1022 1022 1022 1022 
1022 1022 1022 1022 1022 1022 1022 1022 1022 
1022 1022 1022 1022 1022 1022 1022 1022 1022 
1022 1022 1022 1022 1022 1022 1022 1022 1022 
1022 1022 1022 1022 1022 1022 1022 1022 1022 
1022 1022 1022 1022 1022 1022 1022 1022 1022 
1022 1022 1022 1022 1022 1022 1022 1022 1022 
1022 1022 1022 1022 1022 1022 1022 1022 1022 
1022 1022 1022 1022 1022 1022 1022 1022 1022 
1022 1022 1022 1022 1022 1022 1022 1022 1022 
1022 1022 1022 1022 1022 1022 1022 1022 1022 
1022 1022 1022 1022 1022 1022 1022 1022 1022 
1022 1022 1022 1022 1022 1022 1022 1022 1022 
1022 1022 1022 1022 1022 1022 1022 1022 1022 
1022 1022 1022 1022 1022 1022 1022 1022 1022 
1022 1022 1022 1022 1022 1022 1022 1022 1022 
1022 1022 1022 1022 1022 1022 1022 1022 1022 
1022 1022 1022 1022 1022 1022 1022 1022 1022 
1022 1022 1022 1022 1022 1022 1022 1022 1022 
1022 1022 1022 1022 1022 1022 1022 1022 1022 
1022 1022 1022 1022 1022 1022 1022 1022 1022 
1022 1022 1022 1022 1022 1022 1022 1022 1022 
1022 1022 1022 1022 1022 1022 1022 1022 1022 
1022 1022 1022 1022 1022 1022 1022 1022 1022 
1022 1022 1022 1022 1022 1022 1022 1022 1022 
1022 1022 1022 1022 1022 1022 1022 1022 1022 
1022 1022 1022 1022 1022 1022 1022 1022 1022 
1022 1022 1022 1022 1022 1022 1022 1022 1022 
1022 1022 1022 1022 1022 1022 1022 1022 1022 
1022 1022 1022 1022 1022 1022 1022 1022 1022 
1022 1022 1022 1022 1022 1022 1022 1022 1022 
1022 1022 1022 1022 1022 1022 1022 1022 1022 
1022 1022 1022 1022 1022 1022 1022 1022 1022 
1022 1022 1022 1022 1022 1022 1022 1022 1022 
1022 1022 1022 1022 1022 1022 1022 1022 1022 
1022 1022 1022 1022 1022 1022 1022 1022 1022 
1022 1022 1022 1022 1022 1022 1022 1022 1022 
1022 1022 1022 1022 1022 1022 1022 1022 1022 
1022 1022 1022 1022 1022 1022 1022 1022 1022 
1022 1022 1022 1022 1022 1022 1022 1022 1022 
1022 1022 1022 1022 1022 1022 1022 1022 1022 
1022 1022 1022 1022 1022 1022 1022 1022 1022 
1022 1022 1022 1022 1022 1022 1022 1022 1022 
1022 1022 1022 1022 1022 1022 1022 1022 1022 
1022 1022 1022 1022 1022 1022 1022 1022 1022 
1022 1022 1022 1022 1022 1022 1022 1022 1022 
1022 1022 1022 1022 1022 1022 1022 1022 1022 
1022 1022 1022 1022 1022 1022 1022 1022 1022 
1022 1022 1022 1022 1022 1022 1022 1022 1022 
1022 1022 1022 1022 1022 1022 1022 1022 1022 
1022 1022 1022 1022 1022 1022 1022 1022 1022 
1022 1022 1022 1022 1022 1022 1022 1022 1022 
1022 1022 1022 1022 1022 1022 1022 1022 1022 
1022 1022 1022 1022 1022 1022 1022 1022 1022 
1022 1022 1022 1022 1022 1022 1022 1022 1022 
1022 1022 1022 1022 1022 1022 1022 1022 1022 
1022 1022 1022 1022 1022 1022 1022 1022 1022 
1022 1022 1022 1022 1022 1022 1022 1022 1022 
1022 1022 1022 1022 1022 1022 1022 1022 1022 
1022 1022 1022 1022 1022 1022 1022 1022 1022 
1022 1022 1022 1022 1022 1022 1022 1022 1022 
1022 1022 1022 1022 1022 1022 1022 1022 1022 
1022 1022 1022 1022 1022 1022 1022 1022 1022 
1022 1022 1022 1022 1022 1022 1022 1022 1022 
1022 1022 1022 1022 1022 1022 1022 1022 1022 
1022 1022 1022 1022 1022 1022 1022 1022 1022 
1022 1022 1022 1022 1022 1022 1022 1022 1022 
1022 1022 1022 1022 1022 1022 1022 1022 1022 
1022 1022 1022 1022 1022 1022 1022 1022 1022 
1022 1022 1022 1022 1022 1022 1022 1022 1022 
1022 1022 1022 1022 1022 1022 1022 1022 1022 
1022 1022 1022 1022 1022 1022 1022 1022 1022 
1022 1022 1022 1022 1022 1022 1022 1022 1022 
1022 1022 1022 1022 1022 1022 1022 1022 1022 
1022 1022 1022 1022 1022 1022 1022 1022 1022 
1022 1022 1022 1022 1022 1022 1022 1022 1022 
1022 1022 1022 1022 1022 1022 1022 1022 1022 
1022 1022 1022 1022 1022 1022 1022 1022 1022 
1022 1022 1022 1022 1022 1022 1022 1022 1022 
1022 1022 1022 1022 1022 1022 1022 1022 1022 
1022 1022 1022 1022 1022 1022 1022 1022 1022 
1022 1022 1022 1022 1022 1022 1022 1022 1022 
1022 1022 1022 1022 1022 1022 1022 1022 1022 
1022 1022 1022 1022 1022 1022 1022 1022 1022 
1022 1022 1022 1022 1022 1022 1022 1022 1022 
1022 1022 1022 1022 1022 1022 1022 1022 1022 
1022 1022 1022 1022 1022 1022 1022 1022 1022 
1022 1022 1022 1022 1022 1022 1022 1022 1022 
1022 1022 1022 1022 1022 1022 1022 1022 1022 
1022 1022 1022 1022 1022 1022 1022 1022 1022 
1022 1022 1022 1022 1022 1022 1022 1022 1022 
1022 1022 1022 1022 1022 1022 1022 1022 1022 
1022 1022 1022 1022 1022 1022 1022 1022 1022 
1022 1022 1022 1022 1022 1022 1022 1022 1022 
1022 1022 1022 1022 1022 1022 1022 1022 1022 
1022 1022 1022 1022 1022 1022 1022 1022 1022 
1022 1022 1022 1022 1022 1022 1022 1022 1022 
1022 1022 1022 1022 1022 1022 1022 1022 1022 
1022 1022 1022 1022 1022 1022 1022 1022 1022 
1022 1022 1022 1022 1022 1022 1022 1022 1022 
1022 1022 1022 1022 1022 1022 1022 1022 1022 
1022 1022 1022 1022 1022 1022 1022 1022 1022 
1022 1022 1022 1022 1022 1022 1022 1022 1022 
1022 1022 1022 1022 1022 1022 1022 1022 1022 
1022 1022 1022 1022 1022 1022 1022 1022 1022 
1022 1022 1022 1022 1022 1022 1022 1022 1022 
1022 1022 1022 1022 1022 1022 1022 1022 1022 
1022 1022 1022 1022 1022 1022 1022 1022 1022 
1022 1022 1022 1022 1022 1022 1022 1022 1022 
1022 1022 1022 1022 1022 1022 1022 1022 1022 
1022 1022 1022 1022 1022 1022 1022 1022 1022 
1022 1022 1022 1022 1022 1022 1022 1022 1022 
1022 1022 1022 1022 1022 1022 1022 1022 1022 
1022 1022 1022 1022 1022 1022 1022 1022 1022 
1022 1022 1022 1022 1022 1022 1022 1022 1022 
1022 1022 1022 1022 1022 1022 1022 1022 1022 
1022 1022 1022 1022 1022 1022 1022 1022 1022 
1022 1022 1022 1022 1022 1022 1022 1022 1022 
1022 1022 1022 1022 1022 1022 1022 1022 1022 
1022 1022 1022 1022 1022 1022 1022 1022 1022 
1022 1022 1022 1022 1022 1022 1022 1022 1022 
1022 1022 1022 1022 1022 1022 1022 1022 1022 
1022 1022 1022 1022 1022 1022 1022 1022 1022 
1022 1022 1022 1022 1022 1022 1022 1022 1022 
1022 1022 1022 1022 1022 1022 1022 1022 1022 
1022 1022 1022 1022 1022 1022 1022 1022 1022 
1022 1022 1022 1022 1022 1022 1022 1022 1022 
1022 1022 1022 1022 1022 1022 1022 1022 1022 
1022 1022 1022 1022 1022 1022 1022 1022 1022 
1022 1022 1022 1022 1022 1022 1022 1022 1022 
1022 1022 1022 1022 1022 1022 1022 1022 1022 
1022 1022 1022 1022 1022 1022 1022 1022 1022 
1022 1022 1022 1022 1022 1022 1022 1022 1022 
1022 1022 1022 1022 1022 1022 1022 1022 1022 
1022 1022 1022 1022 1022 1022 1022 1022 1022 
1022 1022 1022 1022 1022 1022 1022 1022 1022 
1022 1022 1022 1022 1022 1022 1022 1022 1022 
1022 1022 1022 1022 1022 1022 1022 1022 1022 
1022 1022 1022 1022 1022 1022 1022 1022 1022 
1022 1022 1022 1022 1022 1022 1022 1022 1022 
1022 1022 1022 1022 1022 1022 1022 1022 1022 
1022 1022 1022 1022 1022 1022 1022 1022 1022 
1022 1022 1022 1022 1022 1022 1022 1022 1022 
1022 1022 1022 1022 1022 1022 1022 1022 1022 
1022 1022 1022 1022 1022 1022 1022 1022 1022 
1022 1022 1022 1022 1022 1022 1022 1022 1022 
1022 1022 1022 1022 1022 1022 1022 1022 1022 
1022 1022 1022 1022 1022 1022 1022 1022 1022 
1022 1022 1022 1022 1022 1022 1022 1022 1022 
1022 1022 1022 1022 1022 1022 1022 1022 1022 
1022 1022 1022 1022 1022 1022 1022 1022 1022 
1022 1022 1022 1022 1022 1022 1022 1022 1022 
1022 1022 1022 1022 1022 1022 1022 1022 1022 
1022 1022 1022 1022 1022 1022 1022 1022 1022 
1022 1022 1022 1022 1022 1022 1022 1022 1022 
1022 1022 1022 1022 1022 1022 1022 1022 1022 
1022 1022 1022 1022 1022 1022 1022 1022 1022 
1022 1022 1022 1022 1022 1022 1022 1022 1022 
1022 1022 1022 1022 1022 1022 1022 1022 1022 
1022 1022 1022 1022 1022 1022 1022 1022 1022 
1022 1022 1022 1022 1022 1022 1022 1022 1022 
1022 1022 1022 1022 1022 1022 1022 1022 1022 
1022 1022 1022 1022 1022 1022 1022 1022 1022 
1022 1022 1022 1022 1022 1022 1022 1022 1022 
1022 1022 1022 1022 1022 1022 1022 1022 1022 
1022 1022 1022 1022 1022 1022 1022 1022 1022 
1022 1022 1022 1022 1022 1022 1022 1022 1022 
1022 1022 1022 1022 1022 1022 1022 1022 1022 
1022 1022 1022 1022 1022 1022 1022 1022 1022 
1022 1022 1022 1022 1022 1022 1022 1022 1022 
1022 1022 1022 1022 1022 1022 1022 1022 1022 
1022 1022 1022 1022 1022 1022 1022 1022 1022 
1022 1022 1022 1022 1022 1022 1022 1022 1022 
1022 1022 1022 1022 1022 1022 1022 1022 1022 
1022 1022 1022 1022 1022 1022 1022 1022 1022 
1022 1022 1022 1022 1022 1022 1022 1022 1022 
1022 1022 1022 1022 1022 1022 1022 1022 1022 
1022 1022 1022 1022 1022 1022 1022 1022 1022 
1022 1022 1022 1022 1022 1022 1022 1022 1022 
1022 1022 1022 1022 1022 1022 1022 1022 1022 
1022 1022 1022 1022 1022 1022 1022 1022 1022 
1022 1022 1022 1022 1022 1022 1022 1022 1022 
1022 1022 1022 1022 1022 1022 1022 1022 1022 
1022 1022 1022 1022 1022 1022 1022 1022 1022 
1022 1022 1022 1022 1022 1022 1022 1022 1022 
1022 1022 1022 1022 1022 1022 1022 1022 1022 
1022 1022 1022 1022 1022 1022 1022 1022 1022 
1022 1022 1022 1022 1022 1022 1022 1022 1022 
1022 1022 1022 1022 1022 1022 1022 1022 1022 
1022 1022 1022 1022 1022 1022 1022 1022 1022 
1022 1022 1022 1022 1022 1022 1022 1022 1022 
1022 1022 1022 1022 1022 1022 1022 1022 1022 
1022 1022 1022 1022 1022 1022 1022 1022 1022 
1022 1022 1022 1022 1022 1022 1022 1022 1022 
1022 1022 1022 1022 1022 1022 1022 1022 1022 
1022 1022 1022 1022 1022 1022 1022 1022 1022 
1022 1022 1022 1022 1022 1022 1022 1022 1022 
1022 1022 1022 1022 1022 1022 1022 1022 1022 
1022 1022 1022 1022 1022 1022 1022 1022 1022 
1022 1022 1022 1022 1022 1022 1022 1022 1022 
1022 1022 1022 1022 1022 1022 1022 1022 1022 
1022 1022 1022 1022 1022 1022 1022 1022 1022 
1022 1022 1022 1022 1022 1022 1022 1022 1022 
1022 1022 1022 1022 1022 1022 1022 1022 1022 
1022 1022 1022 1022 1022 1022 1022 1022 1022 
1022 1022 1022 1022 1022 1022 1022 1022 1022 
1022 1022 1022 1022 1022 1022 1022 1022 1022 
1022 1022 1022 1022 1022 1022 1022 1022 1022 
1022 1022 1022 1022 1022 1022 1022 1022 1022 
1022 1022 1022 1022 1022 1022 1022 1022 1022 
1022 1022 1022 1022 1022 1022 1022 1022 1022 
1022 1022 1022 1022 1022 1022 1022 1022 1022 
1022 1022 1022 1022 1022 1022 1022 1022 1022 
1022 1022 1022 1022 1022 1022 1022 1022 1022 
1022 1022 1022 1022 1022 1022 1022 1022 1022 
1022 1022 1022 1022 1022 1022 1022 1022 1022 
1022 1022 1022 1022 1022 1022 1022 1022 1022 
1022 1022 1022 1022 1022 1022 1022 1022 1022 
1022 1022 1022 1022 1022 1022 1022 1022 1022 
1022 1022 1022 1022 1022 1022 1022 1022 1022 
1022 1022 1022 1022 1022 1022 1022 1022 1022 
1022 1022 1022 1022 1022 1022 1022 1022 1022 
1022 1022 1022 1022 1022 1022 1022 1022 1022 
1022 1022 1022 1022 1022 1022 1022 1022 1022 
1022 1022 1022 1022 1022 1022 1022 1022 1022 
1022 1022 1022 1022 1022 1022 1022 1022 1022 
1022 1022 1022 1022 1022 1022 1022 1022 1022 
1022 1022 1022 1022 1022 1022 1022 1022 1022 
1022 1022 1022 1022 1022 1022 1022 1022 1022 
1022 1022 1022 1022 1022 1022 1022 1022 1022 
1022 1022 1022 1022 1022 1022 1022 1022 1022 
1022 1022 1022 1022 1022 1022 1022 1022 1022 
1022 1022 1022 1022 1022 1022 1022 1022 1022 
1022 1022 1022 1022 1022 1022 1022 1022 1022 
1022 1022 1022 1022 1022 1022 1022 1022 1022 
1022 1022 1022 1022 1022 1022 1022 1022 1022 
1022 1022 1022 1022 1022 1022 1022 1022 1022 
1022 1022 1022 1022 1022 1022 1022 1022 1022 
1022 1022 1022 1022 1022 1022 1022 1022 1022 
1022 1022 1022 1022 1022 1022 1022 1022 1022 
1022 1022 1022 1022 1022 1022 1022 1022 1022 
1022 1022 1022 1022 1022 1022 1022 1022 1022 
1022 1022 1022 1022 1022 1022 1022 1022 1022 
1022 1022 1022 1022 1022 1022 1022 1022 1022 
1022 1022 1022 1022 1022 1022 1022 1022 1022 
1022 1022 1022 1022 1022 1022 1022 1022 1022 
1022 1022 1022 1022 1022 1022 1022 1022 1022 
1022 1022 1022 1022 1022 1022 1022 1022 1022 
1022 1022 1022 1022 1022 1022 1022 1022 1022 
1022 1022 1022 1022 1022 1022 1022 1022 1022 
1022 1022 1022 1022 1022 1022 1022 1022 1022 
1022 1022 1022 1022 1022 1022 1022 1022 1022 
1022 1022 1022 1022 1022 1022 1022 1022 1022 
1022 1022 1022 1022 1022 1022 1022 1022 1022 
1022 1022 1022 1022 1022 1022 1022 1022 1022 
1022 1022 1022 1022 1022 1022 1022 1022 1022 
1022 1022 1022 1022 1022 1022 1022 1022 1022 
1022 1022 1022 1022 1022 1022 1022 1022 1022 
1022 1022 1022 1022 1022 1022 1022 1022 1022 
1022 1022 1022 1022 1022 1022 1022 1022 1022 
1022 1022 1022 1022 1022 1022 1022 1022 1022 
1022 1022 1022 1022 1022 1022 1022 1022 1022 
1022 1022 1022 1022 1022 1022 1022 1022 1022 
1022 1022 1022 1022 1022 1022 1022 1022 1022 
1022 1022 1022 1022 1022 1022 1022 1022 1022 
1022 1022 1022 1022 1022 1022 1022 1022 1022 
1022 1022 1022 1022 1022 1022 1022 1022 1022 
1022 1022 1022 1022 1022 1022 1022 1022 1022 
1022 1022 1022 1022 1022 1022 1022 1022 1022 
1022 1022 1022 1022 1022 1022 1022 1022 1022 
1022 1022 1022 1022 1022 1022 1022 1022 1022 
1022 1022 1022 1022 1022 1022 1022 1022 1022 
1022 1022 1022 1022 1022 1022 1022 1022 1022 
1022 1022 1022 1022 1022 1022 1022 1022 1022 
1022 1022 1022 1022 1022 1022 1022 1022 1022 
1022 1022 1022 1022 1022 1022 1022 1022 1022 
1022 1022 1022 1022 1022 1022 1022 1022 1022 
1022 1022 1022 1022 1022 1022 1022 1022 1022 
1022 1022 1022 1022 1022 1022 1022 1022 1022 
1022 1022 1022 1022 1022 1022 1022 1022 1022 
1022 1022 1022 1022 1022 1022 1022 1022 1022 
1022 1022 1022 1022 1022 1022 1022 1022 1022 
1022 1022 1022 1022 1022 1022 1022 1022 1022 
1022 1022 1022 1022 1022 1022 1022 1022 1022 
1022 1022 1022 1022 1022 1022 1022 1022 1022 
1022 1022 1022 1022 1022 1022 1022 1022 1022 
1022 1022 1022 1022 1022 1022 1022 1022 1022 
1022 1022 1022 1022 1022 1022 1022 1022 1022 
1022 1022 1022 1022 1022 1022 1022 1022 1022 
1022 1022 1022 1022 1022 1022 1022 1022 1022 
1022 1022 1022 1022 1022 1022 1022 1022 1022 
1022 1022 1022 1022 1022 1022 1022 1022 1022 
1022 1022 1022 1022 1022 1022 1022 1022 1022 
1022 1022 1022 1022 1022 1022 1022 1022 1022 
1022 1022 1022 1022 1022 1022 1022 1022 1022 
1022 1022 1022 1022 1022 1022 1022 1022 1022 
1022 1022 1022 1022 1022 1022 1022 1022 1022 
1022 1022 1022 1022 1022 1022 1022 1022 1022 
1022 1022 1022 1022 1022 1022 1022 1022 1022 
1022 1022 1022 1022 1022 1022 1022 1022 1022 
1022 1022 1022 1022 1022 1022 1022 1022 1022 
1022 1022 1022 1022 1022 1022 1022 1022 1022 
1022 1022 1022 1022 1022 1022 1022 1022 1022 
1022 1022 1022 1022 1022 1022 1022 1022 1022 
1022 1022 1022 1022 1022 1022 1022 1022 1022 
1022 1022 1022 1022 1022 1022 1022 1022 1022 
1022 1022 1022 1022 1022 1022 1022 1022 1022 
1022 1022 1022 1022 1022 1022 1022 1022 1022 
1022 1022 1022 1022 1022 1022 1022 1022 1022 
1022 1022 1022 1022 1022 1022 1022 1022 1022 
1022 1022 1022 1022 1022 1022 1022 1022 1022 
1022 1022 1022 1022 1022 1022 1022 1022 1022 
1022 1022 1022 1022 1022 1022 1022 1022 1022 
1022 1022 1022 1022 1022 1022 1022 1022 1022 
1022 1022 1022 1022 1022 1022 1022 1022 1022 
1022 1022 1022 1022 1022 1022 1022 1022 1022 
1022 1022 1022 1022 1022 1022 1022 1022 1022 
1022 1022 1022 1022 1022 1022 1022 1022 1022 
1022 1022 1022 1022 1022 1022 1022 1022 1022 
1022 1022 1022 1022 1022 1022 1022 1022 1022 
1022 1022 1022 1022 1022 1022 1022 1022 1022 
1022 1022 1022 1022 1022 1022 1022 1022 1022 
1022 1022 1022 1022 1022 1022 1022 1022 1022 
1022 1022 1022 1022 1022 1022 1022 1022 1022 
1022 1022 1022 1022 1022 1022 1022 1022 1022 
1022 1022 1022 1022 1022 1022 1022 1022 1022 
1022 1022 1022 1022 1022 1022 1022 1022 1022 
1022 1022 1022 1022 1022 1022 1022 1022 1022 
1022 1022 1022 1022 1022 1022 1022 1022 1022 
1022 1022 1022 1022 1022 1022 1022 1022 1022 
1022 1022 1022 1022 1022 1022 1022 1022 1022 
1022 1022 1022 1022 1022 1022 1022 1022 1022 
1022 1022 1022 1022 1022 1022 1022 1022 1022 
1022 1022 1022 1022 1022 1022 1022 1022 1022 
1022 1022 1022 1022 1022 1022 1022 1022 1022 
1022 1022 1022 1022 1022 1022 1022 1022 1022 
1022 1022 1022 1022 1022 1022 1022 1022 1022 
1022 1022 1022 1022 1022 1022 1022 1022 1022 
1022 1022 1022 1022 1022 1022 1022 1022 1022 
1022 1022 1022 1022 1022 1022 1022 1022 1022 
1022 1022 1022 1022 1022 1022 1022 1022 1022 
1022 1022 1022 1022 1022 1022 1022 1022 1022 
1022 1022 1022 1022 1022 1022 1022 1022 1022 
1022 1022 1022 1022 1022 1022 1022 1022 1022 
1022 1022 1022 1022 1022 1022 1022 1022 1022 
1022 1022 1022 1022 1022 1022 1022 1022 1022 
1022 1022 1022 1022 1022 1022 1022 1022 1022 
1022 1022 1022 1022 1022 1022 1022 1022 1022 
1022 1022 1022 1022 1022 1022 1022 1022 1022 
1022 1022 1022 1022 1022 1022 1022 1022 1022 
1022 1022 1022 1022 1022 1022 1022 1022 1022 
1022 1022 1022 1022 1022 1022 1022 1022 1022 
1022 1022 1022 1022 1022 1022 1022 1022 1022 
1022 1022 1022 1022 1022 1022 1022 1022 1022 
1022 1022 1022 1022 1022 1022 1022 1022 1022 
1022 1022 1022 1022 1022 1022 1022 1022 1022 
1022 1022 1022 1022 1022 1022 1022 1022 1022 
1022 1022 1022 1022 1022 1022 1022 1022 1022 
1022 1022 1022 1022 1022 1022 1022 1022 1022 
1022 1022 1022 1022 1022 1022 1022 1022 1022 
1022 1022 1022 1022 1022 1022 1022 1022 1022 
1022 1022 1022 1022 1022 1022 1022 1022 1022 
1022 1022 1022 1022 1022 1022 1022 1022 1022 
1022 1022 1022 1022 1022 1022 1022 1022 1022 
1022 1022 1022 1022 1022 1022 1022 1022 1022 
1022 1022 1022 1022 1022 1022 1022 1022 1022 
1022 1022 1022 1022 1022 1022 1022 1022 1022 
1022 1022 1022 1022 1022 1022 1022 1022 1022 
1022 1022 1022 1022 1022 1022 1022 1022 1022 
1022 1022 1022 1022 1022 1022 1022 1022 1022 
1022 1022 1022 1022 1022 1022 1022 1022 1022 
1022 1022 1022 1022 1022 1022 1022 1022 1022 
1022 1022 1022 1022 1022 1022 1022 1022 1022 
1022 1022 1022 1022 1022 1022 1022 1022 1022 
1022 1022 1022 1022 1022 1022 1022 1022 1022 
1022 1022 1022 1022 1022 1022 1022 1022 1022 
1022 1022 1022 1022 1022 1022 1022 1022 1022 
1022 1022 1022 1022 1022 1022 1022 1022 1022 
1022 1022 1022 1022 1022 1022 1022 1022 1022 
1022 1022 1022 1022 1022 1022 1022 1022 1022 
1022 1022 1022 1022 1022 1022 1022 1022 1022 
1022 1022 1022 1022 1022 1022 1022 1022 1022 
1022 1022 1022 1022 1022 1022 1022 1022 1022 
1022 1022 1022 1022 1022 1022 1022 1022 1022 
1022 1022 1022 1022 1022 1022 1022 1022 1022 
1022 1022 1022 1022 1022 1022 1022 1022 1022 
1022 1022 1022 1022 1022 1022 1022 1022 1022 
1022 1022 1022 1022 1022 1022 1022 1022 1022 
1022 1022 1022 1022 1022 1022 1022 1022 1022 
1022 1022 1022 1022 1022 1022 1022 1022 1022 
1022 1022 1022 1022 1022 1022 1022 1022 1022 
1022 1022 1022 1022 1022 1022 1022 1022 1022 
1022 1022 1022 1022 1022 1022 1022 1022 1022 
1022 1022 1022 1022 1022 1022 1022 1022 1022 
1022 1022 1022 1022 1022 1022 1022 1022 1022 
1022 1022 1022 1022 1022 1022 1022 1022 1022 
1022 1022 1022 1022 1022 1022 1022 1022 1022 
1022 1022 1022 1022 1022 1022 1022 1022 1022 
1022 1022 1022 1022 1022 1022 1022 1022 1022 
1022 1022 1022 1022 1022 1022 1022 1022 1022 
1022 1022 1022 1022 1022 1022 1022 1022 1022 
1022 1022 1022 1022 1022 1022 1022 1022 1022 
1022 1022 1022 1022 1022 1022 1022 1022 1022 
1022 1022 1022 1022 1022 1022 1022 1022 1022 
1022 1022 1022 1022 1022 1022 1022 1022 1022 
1022 1022 1022 1022 1022 1022 1022 1022 1022 
1022 1022 1022 1022 1022 1022 1022 1022 1022 
1022 1022 1022 1022 1022 1022 1022 1022 1022 
1022 1022 1022 1022 1022 1022 1022 1022 1022 
1022 1022 1022 1022 1022 1022 1022 1022 1022 
1022 1022 1022 1022 1022 1022 1022 1022 1022 
1022 1022 1022 1022 1022 1022 1022 1022 1022 
1022 1022 1022 1022 1022 1022 1022 1022 1022 
1022 1022 1022 1022 1022 1022 1022 1022 1022 
1022 1022 1022 1022 1022 1022 1022 1022 1022 
1022 1022 1022 1022 1022 1022 1022 1022 1022 
1022 1022 1022 1022 1022 1022 1022 1022 1022 
1022 1022 1022 1022 1022 1022 1022 1022 1022 
1022 1022 1022 1022 1022 1022 1022 1022 1022 
1022 1022 1022 1022 1022 1022 1022 1022 1022 
1022 1022 1022 1022 1022 1022 1022 1022 1022 
1022 1022 1022 1022 1022 1022 1022 1022 1022 
1022 1022 1022 1022 1022 1022 1022 1022 1022 
1022 1022 1022 1022 1022 1022 1022 1022 1022 
1022 1022 1022 1022 1022 1022 1022 1022 1022 
1022 1022 1022 1022 1022 1022 1022 1022 1022 
1022 1022 1022 1022 1022 1022 1022 1022 1022 
1022 1022 1022 1022 1022 1022 1022 1022 1022 
1022 1022 1022 1022 1022 1022 1022 1022 1022 
1022 1022 1022 1022 1022 1022 1022 1022 1022 
1022 1022 1022 1022 1022 1022 1022 1022 1022 
1022 1022 1022 1022 1022 1022 1022 1022 1022 
1022 1022 1022 1022 1022 1022 1022 1022 1022 