# vtk DataFile Version 4.2
vtk output
ASCII
DATASET POLYDATA
POINTS 2852 float
-3.85327 55.7582 18.5699 -3.52575 55.5076 18.827 -3.27308 55.3636 18.2982 
-4.6464 55.8104 18.5184 -4.38757 55.6053 18.9921 -5.68079 55.8114 18.4621 
-5.57602 55.4992 18.9824 -6.4953 55.7614 18.3751 -6.64799 55.4803 18.751 
-7.26738 55.2956 18.4536 -3.89696 55.5451 18.2495 -4.82811 55.281 18.0384 
-5.94319 55.3942 18.1203 -6.80151 55.3199 18.1495 -2.92344 54.7781 19.5133 
-2.79001 54.1769 19.7902 -2.38353 54.532 19.2528 -3.77073 55.0804 19.4059 
-3.66669 54.3689 19.8923 -4.96679 55.0541 19.4892 -4.71463 54.3787 19.8648 
-5.81343 54.8643 19.4392 -5.6716 54.3365 19.7922 -6.3411 54.3419 19.594 
-2.69556 55.0548 18.6279 -1.99614 54.4956 18.5351 -6.58136 54.8191 19.2021 
-7.81317 54.8183 18.4941 -7.67897 54.4707 18.9787 -8.18455 54.3455 18.547 
-1.93665 54.8953 17.4766 -1.5726 54.3809 18.0207 -1.32968 54.4481 17.3469 
-2.8234 54.8904 17.516 -3.74825 54.8334 17.7928 -3.30475 54.4679 17.4027 
-4.81078 54.8217 17.36 -4.13397 54.4982 17.1431 -5.29083 54.6359 17.6208 
-5.76453 54.6125 17.7992 -6.70859 54.6399 17.862 -7.63948 54.6942 18.1449 
-8.67768 54.6104 17.4999 -8.88188 54.249 17.9161 -8.45516 54.3792 17.4708 
-9.07615 54.3984 17.5689 -1.63026 54.8359 16.6026 -1.33636 54.2334 16.5202 
-2.33338 54.8057 16.5493 -3.10696 54.43 16.7924 -4.58374 54.8801 16.4745 
-4.03447 54.5885 16.3903 -5.56557 54.5661 17.0906 -5.37655 54.8059 16.3496 
-6.05926 54.2832 16.4123 -8.80751 54.475 17.2202 -9.7425 54.5709 16.7225 
-9.43759 54.476 16.6337 -9.70506 54.6213 16.4792 -10.0469 54.342 16.3919 
-1.98233 54.4037 16.0682 -2.75136 54.3176 16.1493 -3.7152 54.4933 15.9467 
-3.57613 54.2209 15.4999 -4.00832 54.7744 15.7173 -4.67088 54.8857 15.5688 
-5.23063 54.5776 15.5601 -5.66928 54.3252 15.9102 -9.4593 54.2475 16.2405 
-4.08437 54.4071 15.0836 -4.74592 54.3722 15.1016 -2.58298 53.5221 19.945 
-2.09557 53.8331 19.336 -3.4219 53.6341 20.1347 -4.58264 53.5147 20.1115 
-5.69626 53.4977 19.9951 -7.12002 54.068 19.5167 -6.56569 53.6544 19.85 
-7.70732 53.8641 19.469 -7.42967 53.3862 19.7072 -7.9821 53.4638 19.3447 
-1.69696 53.9238 18.6466 -1.59632 53.3291 19.0991 -1.31997 53.5643 18.3551 
-8.46137 54.1138 18.1885 -8.6017 53.4462 18.8803 -9.23796 53.515 18.4736 
-1.15213 53.5419 17.4488 -3.61836 54.2723 17.245 -5.97754 54.2401 17.2426 
-6.68977 54.0817 17.309 -7.73022 54.1653 17.451 -9.74923 54.207 17.1552 
-9.71966 53.6388 18.0178 -10.9563 53.8609 17.2157 -10.6827 53.3775 17.8179 
-11.3795 53.3667 17.6099 -1.23975 53.2151 16.3767 -3.48318 54.1384 16.3161 
-6.61895 54.0116 16.6095 -7.39627 53.8363 16.3929 -8.62463 54.0919 16.6507 
-10.6631 54.1443 16.5955 -11.6229 53.6301 17.1 -11.4131 53.8246 16.3704 
-11.9903 53.2816 16.7302 -1.7795 53.6494 15.859 -2.62744 53.7645 15.8194 
-3.18173 53.624 15.5555 -5.25129 53.5707 15.4074 -5.84515 53.6541 15.9361 
-6.63009 53.7992 15.7819 -6.22373 53.1789 15.6263 -7.26508 53.531 15.5384 
-8.02261 53.4616 15.8164 -8.98384 53.5693 15.8652 -9.8617 53.7809 15.786 
-10.6981 53.8631 15.774 -10.2446 53.2934 15.2451 -11.2593 53.526 15.6107 
-11.7363 53.2061 15.9918 -3.60715 53.4577 14.9091 -4.57838 53.6347 14.7812 
-6.92727 53.2309 15.1633 -10.8414 53.2843 15.2574 -11.8102 53.4992 14.6159 
-11.2945 53.4103 14.2492 -11.6997 53.7618 14.1548 -11.9963 53.4502 14.319 
-10.927 53.7877 13.6892 -10.5444 53.2728 13.7894 -10.4513 53.3108 13.3242 
-11.4826 53.8364 13.4392 -11.9171 53.588 13.7091 -10.9193 53.5691 13.1159 
-11.4491 53.28 13.181 -1.93872 52.7625 20.5171 -1.60115 52.197 20.8496 
-1.20156 52.5157 20.2456 -2.83219 53.018 20.4017 -2.66859 52.3833 20.8582 
-3.98435 52.9959 20.4658 -3.56817 52.5134 20.8036 -4.81446 52.8015 20.3895 
-4.61687 52.1908 20.9839 -5.32842 52.3204 20.5495 -1.84637 53.0575 19.8542 
-1.15308 52.4839 19.228 -5.56542 52.743 20.1834 -6.80121 52.4916 20.0174 
-7.58947 52.8593 19.5567 -7.50698 52.2998 19.5812 -1.16613 52.664 18.3092 
-8.04872 52.718 19.2658 -8.79112 52.379 19.1314 -9.91388 52.9164 18.444 
-9.49094 52.6774 18.7903 -10.2085 52.1409 18.4991 -1.16002 52.4963 17.4658 
-10.7005 52.5181 18.1578 -11.8779 53.1232 17.3893 -11.6598 52.5423 17.8513 
-12.3014 52.3977 17.2413 -1.16454 52.3204 16.5964 -5.74187 52.9633 16.3007 
-5.41668 52.7348 16.2095 -5.57714 52.2942 16.6926 -5.94781 52.4394 16.3686 
-12.1379 52.4981 16.366 -1.62971 52.9729 15.5472 -1.3225 52.3065 15.6658 
-2.48369 53.1104 15.3252 -5.23231 52.3618 15.6243 -6.34479 52.3213 15.707 
-7.61712 53.1283 15.2844 -8.58723 52.9597 15.2832 -9.50431 53.2277 15.3991 
-11.3344 52.857 15.4199 -11.8379 52.4395 15.7738 -1.88685 52.5044 15.1298 
-2.70494 52.5618 14.7606 -3.62009 52.8397 14.4346 -3.12022 52.3316 14.3206 
-4.39403 52.9598 14.3677 -5.06752 52.572 14.7366 -6.77924 52.5766 15.101 
-7.64399 52.6331 14.9919 -8.59077 52.3771 14.7442 -9.13256 52.2479 14.3187 
-9.65271 52.7309 14.7573 -10.6802 52.6583 14.9019 -10.2097 52.4423 14.4379 
-11.8029 53.2996 14.4744 -3.90291 52.2716 14.0651 -4.75889 52.2769 14.1537 
-9.70548 52.1661 14.1693 -10.4146 52.4213 13.4729 -10.8633 52.7559 13.8666 
-11.6387 53.1268 13.8589 -11.2133 52.5546 13.4713 -10.9327 52.5264 13.0392 
-4.76419 51.7609 21.4924 -4.60415 51.1792 21.7667 -4.31939 51.6563 21.4153 
-5.24706 51.5028 21.4865 -0.780787 52.0536 20.5528 -0.990269 51.4493 20.787 
-0.378765 51.4652 20.2153 -1.66499 51.5422 21.008 -2.39577 51.4657 21.1075 
-3.53998 51.7587 21.1522 -6.08132 52.0469 20.4844 -5.63216 51.746 20.9724 
-6.64197 51.8271 20.4514 -6.38845 51.3487 20.7399 -6.9092 51.4445 20.3232 
-0.611174 51.9476 19.8594 -0.316294 51.1867 19.3229 -8.10066 52.0257 19.4894 
-7.48316 51.5222 19.883 -8.84376 51.8135 19.4071 -8.39022 51.4003 19.6866 
-9.01396 51.3232 19.4325 -0.697582 51.5964 19.0906 -1.02533 51.5038 18.2724 
-9.51972 51.6379 18.9838 -10.2586 51.2079 18.4711 -1.17196 51.6323 17.2885 
-10.9236 51.434 18.1592 -11.6195 51.6395 18.0232 -12.7499 51.7178 17.3275 
-12.4636 51.5742 17.7433 -12.9244 51.4239 17.4986 -1.18344 51.4499 16.4547 
-5.24074 51.6555 16.4947 -5.73326 51.467 16.9164 -6.31246 51.605 16.4354 
-12.4232 51.5203 16.7772 -12.7549 51.2808 17.2495 -1.37553 51.297 15.7047 
-5.21394 51.4808 15.4805 -6.78997 51.3565 15.9734 -6.78162 51.9257 15.3453 
-7.21426 51.3177 15.5052 -11.7484 52.0645 15.0753 -12.3237 51.5024 15.8173 
-1.8287 51.8301 14.9919 -2.49204 51.9234 14.4946 -2.21841 51.1476 14.6295 
-5.28114 51.4595 14.578 -7.62128 51.8152 14.9338 -8.50198 51.8683 14.4338 
-8.22149 51.3843 14.5777 -10.6945 52.1093 14.1049 -11.7331 51.9584 14.381 
-12.6309 51.5698 15.0554 -12.46 51.7229 14.3304 -13.0657 51.1991 14.7187 
-3.02956 51.5535 14.0953 -3.73634 51.5418 13.9046 -4.59301 51.5254 13.9598 
-8.91545 51.6808 14.1704 -9.57492 51.5268 14.0469 -10.199 51.4991 13.6292 
-11.6249 51.9515 13.6001 -12.2857 51.4289 13.5054 -12.8301 51.1151 13.9593 
-10.7803 51.4797 13.0319 -11.5776 51.3872 13.0105 -3.00196 50.9473 21.4854 
-2.67334 50.3284 21.9575 -2.30348 50.4155 21.522 -3.80548 51.1938 21.5485 
-3.56699 50.6083 21.9887 -4.68454 50.3892 22.1353 -5.91196 51.0016 21.2928 
-5.45893 50.6858 21.7949 -6.00014 50.2466 21.5055 -0.556965 50.9634 20.3382 
-1.04161 50.4626 20.426 -1.68452 50.5308 20.9809 -6.43048 50.4039 20.8356 
-6.68342 50.9479 20.4824 -0.678578 50.3454 19.9089 -0.298579 50.5765 19.5248 
-7.00585 50.5863 20.1491 -7.77983 50.5613 19.7121 -8.55559 50.8622 19.5394 
-8.12541 50.287 19.3745 -0.576339 50.9619 18.629 -0.355255 50.3416 18.6127 
-8.84771 50.5521 19.1472 -9.59353 50.5926 18.7445 -10.0669 50.4126 18.3879 
-0.733088 50.4659 18.118 -1.06465 50.5377 17.4292 -4.94653 50.7593 17.2627 
-4.40456 50.2121 17.4756 -4.70361 50.1086 17.7839 -5.28399 50.311 17.64 
-10.774 50.3425 18.1124 -11.8436 50.7475 17.8777 -12.654 51.0281 17.5679 
-12.2862 50.4999 17.3226 -1.30134 50.3254 16.4494 -4.57164 50.3724 17.12 
-4.94662 50.5353 16.4887 -5.80435 50.5039 17.26 -6.44162 50.7251 16.8294 
-6.70141 51.011 16.4749 -7.08299 50.296 16.4296 -12.3671 50.3142 16.4987 
-1.60164 50.5817 15.8111 -1.73028 51.0721 15.3059 -1.9607 50.4143 15.3096 
-5.33865 50.3505 15.4536 -7.68268 50.4899 15.9533 -7.98867 50.9896 15.309 
-8.68043 50.3465 15.9021 -8.9514 50.8451 15.3666 -9.47284 50.4928 15.8203 
-9.89397 50.8173 15.2451 -10.1365 50.2219 15.5381 -12.7012 50.5542 15.79 
-12.8766 51.0685 15.3261 -13.1009 50.4226 15.298 -2.28026 50.1717 14.3995 
-5.72062 50.6055 14.7693 -5.61233 50.9757 14.0948 -6.05836 50.3012 14.4372 
-8.723 51.1521 14.5787 -9.69676 51.0729 14.3754 -10.7087 50.4069 14.9898 
-10.5487 50.7889 14.3661 -11.2084 50.3491 14.4249 -13.1169 50.4938 14.5611 
-2.78398 50.6184 13.9619 -3.72446 50.851 13.7531 -4.7998 50.88 13.6311 
-4.10852 50.2918 13.397 -5.54554 50.7813 13.4659 -6.13112 50.2958 13.6284 
-10.6307 50.9293 13.5044 -11.272 50.4418 13.7155 -12.2204 50.7713 13.3166 
-12.6811 50.4539 13.8721 -4.84088 50.3464 13.1825 -5.66033 50.2882 12.9543 
-11.4338 50.6939 13.0866 -2.96246 49.9438 22.4941 -2.81022 49.2558 23.0147 
-2.32393 49.5556 22.3657 -3.93434 50.0238 22.4994 -3.67486 49.3792 22.8653 
-4.82167 49.8385 22.4548 -4.64218 49.3773 22.7741 -5.32442 49.3468 22.5775 
-1.9761 49.5494 21.585 -5.72083 49.5737 22.0964 -6.3479 49.5496 21.4369 
-1.64152 49.4123 21.0913 -1.3375 49.5151 20.5691 -6.72959 49.6287 20.9629 
-6.98694 49.8828 20.4135 -7.56025 49.6148 20.2892 -7.36676 49.3564 20.6901 
-7.81102 49.468 20.4044 -0.581219 49.8673 19.3047 -1.03103 49.4127 19.6425 
-7.44548 49.5098 19.8367 -7.67884 49.9412 19.436 -7.74758 49.4756 20.1585 
-0.752708 49.2763 18.832 -0.432908 49.6885 18.6865 -7.95557 49.7124 19.1904 
-8.66477 49.5314 18.7546 -9.50647 49.9262 18.4864 -9.06157 49.3305 18.3324 
-0.677523 49.7328 18.004 -1.05576 49.3639 17.4571 -4.44329 49.6727 17.6243 
-4.86624 49.4421 17.8092 -5.402 49.6845 17.7897 -5.88532 49.8993 17.494 
-5.95875 49.2986 17.4638 -9.8852 49.4095 18.1112 -10.8799 49.2741 18.0119 
-11.6063 49.7076 17.8546 -12.0746 49.3898 17.354 -1.3072 49.1551 16.4027 
-4.57289 49.8009 17.1048 -5.08432 49.3828 16.4769 -6.47919 49.6196 16.9995 
-7.21082 49.1784 16.4539 -12.3874 49.1231 16.6605 -1.67117 49.8109 15.8708 
[...]
CELL_DATA 5704
SCALARS scalars float
LOOKUP_TABLE default
1002 1002 1002 1002 1002 1002 1002 1002 1002 
1002 1002 1002 1002 1002 1002 1002 1002 1002 
1002 1002 1002 1002 1002 1002 1002 1002 1002 
1002 1002 1002 1002 1002 1002 1002 1002 1002 
1002 1002 1002 1002 1002 1002 1002 1002 1002 
1002 1002 1002 1002 1002 1002 1002 1002 1002 
1002 1002 1002 1002 1002 1002 1002 1002 1002 
1002 1002 1002 1002 1002 1002 1002 1002 1002 
1002 1002 1002 1002 1002 1002 1002 1002 1002 
1002 1002 1002 1002 1002 1002 1002 1002 1002 
1002 1002 1002 1002 1002 1002 1002 1002 1002 
1002 1002 1002 1002 1002 1002 1002 1002 1002 
1002 1002 1002 1002 1002 1002 1002 1002 1002 
1002 1002 1002 1002 1002 1002 1002 1002 1002 
1002 1002 1002 1002 1002 1002 1002 1002 1002 
1002 1002 1002 1002 1002 1002 1002 1002 1002 
1002 1002 1002 1002 1002 1002 1002 1002 1002 
1002 1002 1002 1002 1002 1002 1002 1002 1002 
1002 1002 1002 1002 1002 1002 1002 1002 1002 
1002 1002 1002 1002 1002 1002 1002 1002 1002 
1002 1002 1002 1002 1002 1002 1002 1002 1002 
1002 1002 1002 1002 1002 1002 1002 1002 1002 
1002 1002 1002 1002 1002 1002 1002 1002 1002 
1002 1002 1002 1002 1002 1002 1002 1002 1002 
1002 1002 1002 1002 1002 1002 1002 1002 1002 
1002 1002 1002 1002 1002 1002 1002 1002 1002 
1002 1002 1002 1002 1002 1002 1002 1002 1002 
1002 1002 1002 1002 1002 1002 1002 1002 1002 
1002 1002 1002 1002 1002 1002 1002 1002 1002 
1002 1002 1002 1002 1002 1002 1002 1002 1002 
1002 1002 1002 1002 1002 1002 1002 1002 1002 
1002 1002 1002 1002 1002 1002 1002 1002 1002 
1002 1002 1002 1002 1002 1002 1002 1002 1002 
1002 1002 1002 1002 1002 1002 1002 1002 1002 
1002 1002 1002 1002 1002 1002 1002 1002 1002 
1002 1002 1002 1002 1002 1002 1002 1002 1002 
1002 1002 1002 1002 1002 1002 1002 1002 1002 
1002 1002 1002 1002 1002 1002 1002 1002 1002 
1002 1002 1002 1002 1002 1002 1002 1002 1002 
1002 1002 1002 1002 1002 1002 1002 1002 1002 
1002 1002 1002 1002 1002 1002 1002 1002 1002 
1002 1002 1002 1002 1002 1002 1002 1002 1002 
1002 1002 1002 1002 1002 1002 1002 1002 1002 
1002 1002 1002 1002 1002 1002 1002 1002 1002 
1002 1002 1002 1002 1002 1002 1002 1002 1002 
1002 1002 1002 1002 1002 1002 1002 1002 1002 
1002 1002 1002 1002 1002 1002 1002 1002 1002 
1002 1002 1002 1002 1002 1002 1002 1002 1002 
1002 1002 1002 1002 1002 1002 1002 1002 1002 
1002 1002 1002 1002 1002 1002 1002 1002 1002 
1002 1002 1002 1002 1002 1002 1002 1002 1002 
1002 1002 1002 1002 1002 1002 1002 1002 1002 
1002 1002 1002 1002 1002 1002 1002 1002 1002 
1002 1002 1002 1002 1002 1002 1002 1002 1002 
1002 1002 1002 1002 1002 1002 1002 1002 1002 
1002 1002 1002 1002 1002 1002 1002 1002 1002 
1002 1002 1002 1002 1002 1002 1002 1002 1002 
1002 1002 1002 1002 1002 1002 1002 1002 1002 
1002 1002 1002 1002 1002 1002 1002 1002 1002 
1002 1002 1002 1002 1002 1002 1002 1002 1002 
1002 1002 1002 1002 1002 1002 1002 1002 1002 
1002 1002 1002 1002 1002 1002 1002 1002 1002 
1002 1002 1002 1002 1002 1002 1002 1002 1002 
1002 1002 1002 1002 1002 1002 1002 1002 1002 
1002 1002 1002 1002 1002 1002 1002 1002 1002 
1002 1002 1002 1002 1002 1002 1002 1002 1002 
1002 1002 1002 1002 1002 1002 1002 1002 1002 
1002 1002 1002 1002 1002 1002 1002 1002 1002 
1002 1002 1002 1002 1002 1002 1002 1002 1002 
1002 1002 1002 1002 1002 1002 1002 1002 1002 
1002 1002 1002 1002 1002 1002 1002 1002 1002 
1002 1002 1002 1002 1002 1002 1002 1002 1002 
1002 1002 1002 1002 1002 1002 1002 1002 1002 
1002 1002 1002 1002 1002 1002 1002 1002 1002 
1002 1002 1002 1002 1002 1002 1002 1002 1002 
1002 1002 1002 1002 1002 1002 1002 1002 1002 
1002 1002 1002 1002 1002 1002 1002 1002 1002 
1002 1002 1002 1002 1002 1002 1002 1002 1002 
1002 1002 1002 1002 1002 1002 1002 1002 1002 
1002 1002 1002 1002 1002 1002 1002 1002 1002 
1002 1002 1002 1002 1002 1002 1002 1002 1002 
1002 1002 1002 1002 1002 1002 1002 1002 1002 
1002 1002 1002 1002 1002 1002 1002 1002 1002 
1002 1002 1002 1002 1002 1002 1002 1002 1002 
1002 1002 1002 1002 1002 1002 1002 1002 1002 
1002 1002 1002 1002 1002 1002 1002 1002 1002 
1002 1002 1002 1002 1002 1002 1002 1002 1002 
1002 1002 1002 1002 1002 1002 1002 1002 1002 
1002 1002 1002 1002 1002 1002 1002 1002 1002 
1002 1002 1002 1002 1002 1002 1002 1002 1002 
1002 1002 1002 1002 1002 1002 1002 1002 1002 
1002 1002 1002 1002 1002 1002 1002 1002 1002 
1002 1002 1002 1002 1002 1002 1002 1002 1002 
1002 1002 1002 1002 1002 1002 1002 1002 1002 
1002 1002 1002 1002 1002 1002 1002 1002 1002 
1002 1002 1002 1002 1002 1002 1002 1002 1002 
1002 1002 1002 1002 1002 1002 1002 1002 1002 
1002 1002 1002 1002 1002 1002 1002 1002 1002 
1002 1002 1002 1002 1002 1002 1002 1002 1002 
1002 1002 1002 1002 1002 1002 1002 1002 1002 
1002 1002 1002 1002 1002 1002 1002 1002 1002 
1002 1002 1002 1002 1002 1002 1002 1002 1002 
1002 1002 1002 1002 1002 1002 1002 1002 1002 
1002 1002 1002 1002 1002 1002 1002 1002 1002 
1002 1002 1002 1002 1002 1002 1002 1002 1002 
1002 1002 1002 1002 1002 1002 1002 1002 1002 
1002 1002 1002 1002 1002 1002 1002 1002 1002 
1002 1002 1002 1002 1002 1002 1002 1002 1002 
1002 1002 1002 1002 1002 1002 1002 1002 1002 
1002 1002 1002 1002 1002 1002 1002 1002 1002 
1002 1002 1002 1002 1002 1002 1002 1002 1002 
1002 1002 1002 1002 1002 1002 1002 1002 1002 
1002 1002 1002 1002 1002 1002 1002 1002 1002 
1002 1002 1002 1002 1002 1002 1002 1002 1002 
1002 1002 1002 1002 1002 1002 1002 1002 1002 
1002 1002 1002 1002 1002 1002 1002 1002 1002 
1002 1002 1002 1002 1002 1002 1002 1002 1002 
1002 1002 1002 1002 1002 1002 1002 1002 1002 
1002 1002 1002 1002 1002 1002 1002 1002 1002 
1002 1002 1002 1002 1002 1002 1002 1002 1002 
1002 1002 1002 1002 1002 1002 1002 1002 1002 
1002 1002 1002 1002 1002 1002 1002 1002 1002 
1002 1002 1002 1002 1002 1002 1002 1002 1002 
1002 1002 1002 1002 1002 1002 1002 1002 1002 
1002 1002 1002 1002 1002 1002 1002 1002 1002 
1002 1002 1002 1002 1002 1002 1002 1002 1002 
1002 1002 1002 1002 1002 1002 1002 1002 1002 
1002 1002 1002 1002 1002 1002 1002 1002 1002 
1002 1002 1002 1002 1002 1002 1002 1002 1002 
1002 1002 1002 1002 1002 1002 1002 1002 1002 
1002 1002 1002 1002 1002 1002 1002 1002 1002 
1002 1002 1002 1002 1002 1002 1002 1002 1002 
1002 1002 1002 1002 1002 1002 1002 1002 1002 
1002 1002 1002 1002 1002 1002 1002 1002 1002 
1002 1002 1002 1002 1002 1002 1002 1002 1002 
1002 1002 1002 1002 1002 1002 1002 1002 1002 
1002 1002 1002 1002 1002 1002 1002 1002 1002 
1002 1002 1002 1002 1002 1002 1002 1002 1002 
1002 1002 1002 1002 1002 1002 1002 1002 1002 
1002 1002 1002 1002 1002 1002 1002 1002 1002 
1002 1002 1002 1002 1002 1002 1002 1002 1002 
1002 1002 1002 1002 1002 1002 1002 1002 1002 
1002 1002 1002 1002 1002 1002 1002 1002 1002 
1002 1002 1002 1002 1002 1002 1002 1002 1002 
1002 1002 1002 1002 1002 1002 1002 1002 1002 
1002 1002 1002 1002 1002 1002 1002 1002 1002 
1002 1002 1002 1002 1002 1002 1002 1002 1002 
1002 1002 1002 1002 1002 1002 1002 1002 1002 
1002 1002 1002 1002 1002 1002 1002 1002 1002 
1002 1002 1002 1002 1002 1002 1002 1002 1002 
1002 1002 1002 1002 1002 1002 1002 1002 1002 
1002 1002 1002 1002 1002 1002 1002 1002 1002 
1002 1002 1002 1002 1002 1002 1002 1002 1002 
1002 1002 1002 1002 1002 1002 1002 1002 1002 
1002 1002 1002 1002 1002 1002 1002 1002 1002 
1002 1002 1002 1002 1002 1002 1002 1002 1002 
1002 1002 1002 1002 1002 1002 1002 1002 1002 
1002 1002 1002 1002 1002 1002 1002 1002 1002 
1002 1002 1002 1002 1002 1002 1002 1002 1002 
1002 1002 1002 1002 1002 1002 1002 1002 1002 
1002 1002 1002 1002 1002 1002 1002 1002 1002 
1002 1002 1002 1002 1002 1002 1002 1002 1002 
1002 1002 1002 1002 1002 1002 1002 1002 1002 
1002 1002 1002 1002 1002 1002 1002 1002 1002 
1002 1002 1002 1002 1002 1002 1002 1002 1002 
1002 1002 1002 1002 1002 1002 1002 1002 1002 
1002 1002 1002 1002 1002 1002 1002 1002 1002 
1002 1002 1002 1002 1002 1002 1002 1002 1002 
1002 1002 1002 1002 1002 1002 1002 1002 1002 
1002 1002 1002 1002 1002 1002 1002 1002 1002 
1002 1002 1002 1002 1002 1002 1002 1002 1002 
1002 1002 1002 1002 1002 1002 1002 1002 1002 
1002 1002 1002 1002 1002 1002 1002 1002 1002 
1002 1002 1002 1002 1002 1002 1002 1002 1002 
1002 1002 1002 1002 1002 1002 1002 1002 1002 
1002 1002 1002 1002 1002 1002 1002 1002 1002 
1002 1002 1002 1002 1002 1002 1002 1002 1002 
1002 1002 1002 1002 1002 1002 1002 1002 1002 
1002 1002 1002 1002 1002 1002 1002 1002 1002 
1002 1002 1002 1002 1002 1002 1002 1002 1002 
1002 1002 1002 1002 1002 1002 1002 1002 1002 
1002 1002 1002 1002 1002 1002 1002 1002 1002 
1002 1002 1002 1002 1002 1002 1002 1002 1002 
1002 1002 1002 1002 1002 1002 1002 1002 1002 
1002 1002 1002 1002 1002 1002 1002 1002 1002 
1002 1002 1002 1002 1002 1002 1002 1002 1002 
1002 1002 1002 1002 1002 1002 1002 1002 1002 
1002 1002 1002 1002 1002 1002 1002 1002 1002 
1002 1002 1002 1002 1002 1002 1002 1002 1002 
1002 1002 1002 1002 1002 1002 1002 1002 1002 
1002 1002 1002 1002 1002 1002 1002 1002 1002 
1002 1002 1002 1002 1002 1002 1002 1002 1002 
1002 1002 1002 1002 1002 1002 1002 1002 1002 
1002 1002 1002 1002 1002 1002 1002 1002 1002 
1002 1002 1002 1002 1002 1002 1002 1002 1002 
1002 1002 1002 1002 1002 1002 1002 1002 1002 
1002 1002 1002 1002 1002 1002 1002 1002 1002 
1002 1002 1002 1002 1002 1002 1002 1002 1002 
1002 1002 1002 1002 1002 1002 1002 1002 1002 
1002 1002 1002 1002 1002 1002 1002 1002 1002 
1002 1002 1002 1002 1002 1002 1002 1002 1002 
1002 1002 1002 1002 1002 1002 1002 1002 1002 
1002 1002 1002 1002 1002 1002 1002 1002 1002 
1002 1002 1002 1002 1002 1002 1002 1002 1002 
1002 1002 1002 1002 1002 1002 1002 1002 1002 
1002 1002 1002 1002 1002 1002 1002 1002 1002 
1002 1002 1002 1002 1002 1002 1002 1002 1002 
1002 1002 1002 1002 1002 1002 1002 1002 1002 
1002 1002 1002 1002 1002 1002 1002 1002 1002 
1002 1002 1002 1002 1002 1002 1002 1002 1002 
1002 1002 1002 1002 1002 1002 1002 1002 1002 
1002 1002 1002 1002 1002 1002 1002 1002 1002 
1002 1002 1002 1002 1002 1002 1002 1002 1002 
1002 1002 1002 1002 1002 1002 1002 1002 1002 
1002 1002 1002 1002 1002 1002 1002 1002 1002 
1002 1002 1002 1002 1002 1002 1002 1002 1002 
1002 1002 1002 1002 1002 1002 1002 1002 1002 
1002 1002 1002 1002 1002 1002 1002 1002 1002 
1002 1002 1002 1002 1002 1002 1002 1002 1002 
1002 1002 1002 1002 1002 1002 1002 1002 1002 
1002 1002 1002 1002 1002 1002 1002 1002 1002 
1002 1002 1002 1002 1002 1002 1002 1002 1002 
1002 1002 1002 1002 1002 1002 1002 1002 1002 
1002 1002 1002 1002 1002 1002 1002 1002 1002 
1002 1002 1002 1002 1002 1002 1002 1002 1002 
1002 1002 1002 1002 1002 1002 1002 1002 1002 
1002 1002 1002 1002 1002 1002 1002 1002 1002 
1002 1002 1002 1002 1002 1002 1002 1002 1002 
1002 1002 1002 1002 1002 1002 1002 1002 1002 
1002 1002 1002 1002 1002 1002 1002 1002 1002 
1002 1002 1002 1002 1002 1002 1002 1002 1002 
1002 1002 1002 1002 1002 1002 1002 1002 1002 
1002 1002 1002 1002 1002 1002 1002 1002 1002 
1002 1002 1002 1002 1002 1002 1002 1002 1002 
1002 1002 1002 1002 1002 1002 1002 1002 1002 
1002 1002 1002 1002 1002 1002 1002 1002 1002 
1002 1002 1002 1002 1002 1002 1002 1002 1002 
1002 1002 1002 1002 1002 1002 1002 1002 1002 
1002 1002 1002 1002 1002 1002 1002 1002 1002 
1002 1002 1002 1002 1002 1002 1002 1002 1002 
1002 1002 1002 1002 1002 1002 1002 1002 1002 
1002 1002 1002 1002 1002 1002 1002 1002 1002 
1002 1002 1002 1002 1002 1002 1002 1002 1002 
1002 1002 1002 1002 1002 1002 1002 1002 1002 
1002 1002 1002 1002 1002 1002 1002 1002 1002 
1002 1002 1002 1002 1002 1002 1002 1002 1002 
1002 1002 1002 1002 1002 1002 1002 1002 1002 
1002 1002 1002 1002 1002 1002 1002 1002 1002 
1002 1002 1002 1002 1002 1002 1002 1002 1002 
1002 1002 1002 1002 1002 1002 1002 1002 1002 
1002 1002 1002 1002 1002 1002 1002 1002 1002 
1002 1002 1002 1002 1002 1002 1002 1002 1002 
1002 1002 1002 1002 1002 1002 1002 1002 1002 
1002 1002 1002 1002 1002 1002 1002 1002 1002 
1002 1002 1002 1002 1002 1002 1002 1002 1002 
1002 1002 1002 1002 1002 1002 1002 1002 1002 
1002 1002 1002 1002 1002 1002 1002 1002 1002 
1002 1002 1002 1002 1002 1002 1002 1002 1002 
1002 1002 1002 1002 1002 1002 1002 1002 1002 
1002 1002 1002 1002 1002 1002 1002 1002 1002 
1002 1002 1002 1002 1002 1002 1002 1002 1002 
1002 1002 1002 1002 1002 1002 1002 1002 1002 
1002 1002 1002 1002 1002 1002 1002 1002 1002 
1002 1002 1002 1002 1002 1002 1002 1002 1002 
1002 1002 1002 1002 1002 1002 1002 1002 1002 
1002 1002 1002 1002 1002 1002 1002 1002 1002 
1002 1002 1002 1002 1002 1002 1002 1002 1002 
1002 1002 1002 1002 1002 1002 1002 1002 1002 
1002 1002 1002 1002 1002 1002 1002 1002 1002 
1002 1002 1002 1002 1002 1002 1002 1002 1002 
1002 1002 1002 1002 1002 1002 1002 1002 1002 
1002 1002 1002 1002 1002 1002 1002 1002 1002 
1002 1002 1002 1002 1002 1002 1002 1002 1002 
1002 1002 1002 1002 1002 1002 1002 1002 1002 
1002 1002 1002 1002 1002 1002 1002 1002 1002 
1002 1002 1002 1002 1002 1002 1002 1002 1002 
1002 1002 1002 1002 1002 1002 1002 1002 1002 
1002 1002 1002 1002 1002 1002 1002 1002 1002 
1002 1002 1002 1002 1002 1002 1002 1002 1002 
1002 1002 1002 1002 1002 1002 1002 1002 1002 
1002 1002 1002 1002 1002 1002 1002 1002 1002 
1002 1002 1002 1002 1002 1002 1002 1002 1002 
1002 1002 1002 1002 1002 1002 1002 1002 1002 
1002 1002 1002 1002 1002 1002 1002 1002 1002 
1002 1002 1002 1002 1002 1002 1002 1002 1002 
1002 1002 1002 1002 1002 1002 1002 1002 1002 
1002 1002 1002 1002 1002 1002 1002 1002 1002 
1002 1002 1002 1002 1002 1002 1002 1002 1002 
1002 1002 1002 1002 1002 1002 1002 1002 1002 
1002 1002 1002 1002 1002 1002 1002 1002 1002 
1002 1002 1002 1002 1002 1002 1002 1002 1002 
1002 1002 1002 1002 1002 1002 1002 1002 1002 
1002 1002 1002 1002 1002 1002 1002 1002 1002 
1002 1002 1002 1002 1002 1002 1002 1002 1002 
1002 1002 1002 1002 1002 1002 1002 1002 1002 
1002 1002 1002 1002 1002 1002 1002 1002 1002 
1002 1002 1002 1002 1002 1002 1002 1002 1002 
1002 1002 1002 1002 1002 1002 1002 1002 1002 
1002 1002 1002 1002 1002 1002 1002 1002 1002 
1002 1002 1002 1002 1002 1002 1002 1002 1002 
1002 1002 1002 1002 1002 1002 1002 1002 1002 
1002 1002 1002 1002 1002 1002 1002 1002 1002 
1002 1002 1002 1002 1002 1002 1002 1002 1002 
1002 1002 1002 1002 1002 1002 1002 1002 1002 
1002 1002 1002 1002 1002 1002 1002 1002 1002 
1002 1002 1002 1002 1002 1002 1002 1002 1002 
1002 1002 1002 1002 1002 1002 1002 1002 1002 
1002 1002 1002 1002 1002 1002 1002 1002 1002 
1002 1002 1002 1002 1002 1002 1002 1002 1002 
1002 1002 1002 1002 1002 1002 1002 1002 1002 
1002 1002 1002 1002 1002 1002 1002 1002 1002 
1002 1002 1002 1002 1002 1002 1002 1002 1002 
1002 1002 1002 1002 1002 1002 1002 1002 1002 
1002 1002 1002 1002 1002 1002 1002 1002 1002 
1002 1002 1002 1002 1002 1002 1002 1002 1002 
1002 1002 1002 1002 1002 1002 1002 1002 1002 
1002 1002 1002 1002 1002 1002 1002 1002 1002 
1002 1002 1002 1002 1002 1002 1002 1002 1002 
1002 1002 1002 1002 1002 1002 1002 1002 1002 
1002 1002 1002 1002 1002 1002 1002 1002 1002 
1002 1002 1002 1002 1002 1002 1002 1002 1002 
1002 1002 1002 1002 1002 1002 1002 1002 1002 
1002 1002 1002 1002 1002 1002 1002 1002 1002 
1002 1002 1002 1002 1002 1002 1002 1002 1002 
1002 1002 1002 1002 1002 1002 1002 1002 1002 
1002 1002 1002 1002 1002 1002 1002 1002 1002 
1002 1002 1002 1002 1002 1002 1002 1002 1002 
1002 1002 1002 1002 1002 1002 1002 1002 1002 
1002 1002 1002 1002 1002 1002 1002 1002 1002 
1002 1002 1002 1002 1002 1002 1002 1002 1002 
1002 1002 1002 1002 1002 1002 1002 1002 1002 
1002 1002 1002 1002 1002 1002 1002 1002 1002 
1002 1002 1002 1002 1002 1002 1002 1002 1002 
1002 1002 1002 1002 1002 1002 1002 1002 1002 
1002 1002 1002 1002 1002 1002 1002 1002 1002 
1002 1002 1002 1002 1002 1002 1002 1002 1002 
1002 1002 1002 1002 1002 1002 1002 1002 1002 
1002 1002 1002 1002 1002 1002 1002 1002 1002 
1002 1002 1002 1002 1002 1002 1002 1002 1002 
1002 1002 1002 1002 1002 1002 1002 1002 1002 
1002 1002 1002 1002 1002 1002 1002 1002 1002 
1002 1002 1002 1002 1002 1002 1002 1002 1002 
1002 1002 1002 1002 1002 1002 1002 1002 1002 
1002 1002 1002 1002 1002 1002 1002 1002 1002 
1002 1002 1002 1002 1002 1002 1002 1002 1002 
1002 1002 1002 1002 1002 1002 1002 1002 1002 
1002 1002 1002 1002 1002 1002 1002 1002 1002 
1002 1002 1002 1002 1002 1002 1002 1002 1002 
1002 1002 1002 1002 1002 1002 1002 1002 1002 
1002 1002 1002 1002 1002 1002 1002 1002 1002 
1002 1002 1002 1002 1002 1002 1002 1002 1002 
1002 1002 1002 1002 1002 1002 1002 1002 1002 
1002 1002 1002 1002 1002 1002 1002 1002 1002 
1002 1002 1002 1002 1002 1002 1002 1002 1002 
1002 1002 1002 1002 1002 1002 1002 1002 1002 
1002 1002 1002 1002 1002 1002 1002 1002 1002 
1002 1002 1002 1002 1002 1002 1002 1002 1002 
1002 1002 1002 1002 1002 1002 1002 1002 1002 
1002 1002 1002 1002 1002 1002 1002 1002 1002 
1002 1002 1002 1002 1002 1002 1002 1002 1002 
1002 1002 1002 1002 1002 1002 1002 1002 1002 
1002 1002 1002 1002 1002 1002 1002 1002 1002 
1002 1002 1002 1002 1002 1002 1002 1002 1002 
1002 1002 1002 1002 1002 1002 1002 1002 1002 
1002 1002 1002 1002 1002 1002 1002 1002 1002 
1002 1002 1002 1002 1002 1002 1002 1002 1002 
1002 1002 1002 1002 1002 1002 1002 1002 1002 
1002 1002 1002 1002 1002 1002 1002 1002 1002 
1002 1002 1002 1002 1002 1002 1002 1002 1002 
1002 1002 1002 1002 1002 1002 1002 1002 1002 
1002 1002 1002 1002 1002 1002 1002 1002 1002 
1002 1002 1002 1002 1002 1002 1002 1002 1002 
1002 1002 1002 1002 1002 1002 1002 1002 1002 
1002 1002 1002 1002 1002 1002 1002 1002 1002 
1002 1002 1002 1002 1002 1002 1002 1002 1002 
1002 1002 1002 1002 1002 1002 1002 1002 1002 
1002 1002 1002 1002 1002 1002 1002 1002 1002 
1002 1002 1002 1002 1002 1002 1002 1002 1002 
1002 1002 1002 1002 1002 1002 1002 1002 1002 
1002 1002 1002 1002 1002 1002 1002 1002 1002 
1002 1002 1002 1002 1002 1002 1002 1002 1002 
1002 1002 1002 1002 1002 1002 1002 1002 1002 
1002 1002 1002 1002 1002 1002 1002 1002 1002 
1002 1002 1002 1002 1002 1002 1002 1002 1002 
1002 1002 1002 1002 1002 1002 1002 1002 1002 
1002 1002 1002 1002 1002 1002 1002 1002 1002 
1002 1002 1002 1002 1002 1002 1002 1002 1002 
1002 1002 1002 1002 1002 1002 1002 1002 1002 
1002 1002 1002 1002 1002 1002 1002 1002 1002 
1002 1002 1002 1002 1002 1002 1002 1002 1002 
1002 1002 1002 1002 1002 1002 1002 1002 1002 
1002 1002 1002 1002 1002 1002 1002 1002 1002 
1002 1002 1002 1002 1002 1002 1002 1002 1002 
1002 1002 1002 1002 1002 1002 1002 1002 1002 
1002 1002 1002 1002 1002 1002 1002 1002 1002 
1002 1002 1002 1002 1002 1002 1002 1002 1002 
1002 1002 1002 1002 1002 1002 1002 1002 1002 
1002 1002 1002 1002 1002 1002 1002 1002 1002 
1002 1002 1002 1002 1002 1002 1002 1002 1002 
1002 1002 1002 1002 1002 1002 1002 1002 1002 
1002 1002 1002 1002 1002 1002 1002 1002 1002 
1002 1002 1002 1002 1002 1002 1002 1002 1002 
1002 1002 1002 1002 1002 1002 1002 1002 1002 
1002 1002 1002 1002 1002 1002 1002 1002 1002 
1002 1002 1002 1002 1002 1002 1002 1002 1002 
1002 1002 1002 1002 1002 1002 1002 1002 1002 
1002 1002 1002 1002 1002 1002 1002 1002 1002 
1002 1002 1002 1002 1002 1002 1002 1002 1002 
1002 1002 1002 1002 1002 1002 1002 1002 1002 
1002 1002 1002 1002 1002 1002 1002 1002 1002 
1002 1002 1002 1002 1002 1002 1002 1002 1002 
1002 1002 1002 1002 1002 1002 1002 1002 1002 
1002 1002 1002 1002 1002 1002 1002 1002 1002 
1002 1002 1002 1002 1002 1002 1002 1002 1002 
1002 1002 1002 1002 1002 1002 1002 1002 1002 
1002 1002 1002 1002 1002 1002 1002 1002 1002 
1002 1002 1002 1002 1002 1002 1002 1002 1002 
1002 1002 1002 1002 1002 1002 1002 1002 1002 
1002 1002 1002 1002 1002 1002 1002 1002 1002 
1002 1002 1002 1002 1002 1002 1002 1002 1002 
1002 1002 1002 1002 1002 1002 1002 1002 1002 
1002 1002 1002 1002 1002 1002 1002 1002 1002 
1002 1002 1002 1002 1002 1002 1002 1002 1002 
1002 1002 1002 1002 1002 1002 1002 1002 1002 
1002 1002 1002 1002 1002 1002 1002 1002 1002 
1002 1002 1002 1002 1002 1002 1002 1002 1002 
1002 1002 1002 1002 1002 1002 1002 1002 1002 
1002 1002 1002 1002 1002 1002 1002 1002 1002 
1002 1002 1002 1002 1002 1002 1002 1002 1002 
1002 1002 1002 1002 1002 1002 1002 1002 1002 
1002 1002 1002 1002 1002 1002 1002 1002 1002 
1002 1002 1002 1002 1002 1002 1002 1002 1002 
1002 1002 1002 1002 1002 1002 1002 1002 1002 