# vtk DataFile Version 4.2
vtk output
ASCII
DATASET POLYDATA
POINTS 3328 float
18.1239 -37.5998 -4.30533 18.3416 -37.3158 -4.57055 18.4557 -37.6916 -4.50493 
17.9961 -37.4442 -4.5748 18.2026 -37.9664 -4.29733 18.3732 -38.2388 -4.5807 
17.8591 -37.9942 -4.60087 18.1524 -38.3713 -4.50384 19.3198 -37.4196 -4.95569 
19.3315 -37.3269 -5.17012 19.5327 -37.4848 -5.07656 18.865 -37.4585 -4.77968 
18.7726 -37.2217 -5.05192 18.1827 -37.2281 -4.93547 17.8605 -37.5193 -5.111 
19.2641 -37.6074 -5.0832 18.8303 -37.7218 -4.9637 18.5836 -38.0449 -5.03153 
17.5965 -37.8805 -5.00826 17.5544 -38.0916 -4.8745 17.3971 -38.1749 -5.25524 
18.2464 -38.6467 -4.79108 18.3905 -38.5928 -5.17987 17.9325 -38.6072 -4.85795 
17.6136 -38.3607 -4.94163 18.1093 -38.8362 -5.13575 17.5983 -39.1463 -5.01626 
17.6914 -39.287 -5.17613 17.6069 -39.29 -4.9564 17.415 -39.2078 -5.17011 
17.548 -39.4109 -5.17013 19.8274 -36.8641 -5.50026 19.8362 -36.6844 -5.75197 
20.1938 -36.8774 -5.74255 19.5103 -36.9353 -5.50375 19.5282 -36.7399 -5.61738 
19.2584 -36.8301 -5.7616 19.7629 -37.1795 -5.72897 19.333 -37.0329 -5.78516 
19.3073 -37.4802 -5.37599 18.8593 -37.2279 -5.65351 19.0301 -37.4202 -5.83894 
18.2704 -37.2271 -5.51351 17.8634 -37.455 -5.85295 18.9949 -37.8144 -5.59151 
18.6051 -38.326 -5.72249 17.5609 -37.7788 -5.53236 17.251 -38.0779 -5.83439 
18.3763 -38.721 -5.78483 17.5571 -38.8429 -5.27526 17.0681 -38.4506 -5.60741 
16.9988 -38.7295 -5.54004 16.8006 -38.7248 -5.86515 18.1393 -38.9415 -5.55261 
17.8614 -39.3592 -5.76617 17.0186 -39.0532 -5.61955 17.2468 -39.4557 -5.66823 
17.5921 -39.5844 -5.59386 21.0301 -36.336 -6.09879 21.3612 -36.1012 -6.43109 
21.5007 -36.3063 -6.34871 20.52 -36.446 -6.00353 20.6716 -35.9654 -6.41882 
20.2543 -36.2467 -6.33369 21.2359 -36.5939 -6.3128 20.9377 -37.0146 -6.32516 
20.6927 -36.8916 -5.94515 19.9755 -36.5303 -6.17773 19.372 -36.656 -6.16013 
19.0775 -36.8778 -6.21726 20.608 -37.3965 -6.06908 20.7285 -37.4037 -6.42829 
20.2042 -37.4499 -5.96909 19.7644 -37.5111 -6.21476 19.3628 -37.2089 -6.30746 
18.7008 -37.198 -6.27611 19.0757 -37.5686 -6.31061 18.1929 -37.2241 -6.23682 
17.7795 -37.4244 -6.37091 20.3938 -37.7003 -6.30965 20.0009 -37.7262 -6.4065 
19.3751 -37.9551 -6.39974 19.4662 -38.1179 -6.32185 19.2654 -37.9896 -6.1234 
18.9581 -38.1607 -5.98875 17.4786 -37.7127 -6.29072 17.1567 -38.0488 -6.33185 
19.2092 -38.2487 -6.33477 18.7998 -38.3758 -6.25258 18.4835 -38.6573 -6.37073 
16.9392 -38.3578 -6.09289 16.7369 -38.5721 -6.41195 18.1845 -39.0041 -6.12784 
17.99 -39.3198 -6.37148 16.9486 -39.3153 -5.94295 16.7543 -39.0803 -6.24984 
17.6422 -39.8534 -6.00217 17.8032 -39.922 -6.40269 17.3579 -39.9215 -6.21645 
16.9935 -39.5622 -6.37853 17.5534 -40.2246 -6.34739 20.563 -35.6484 -6.67042 
20.6299 -35.4995 -7.05697 20.8307 -35.7064 -6.74162 20.2759 -35.6645 -6.84931 
21.7714 -36.2288 -6.62965 21.706 -36.16 -6.89016 21.9086 -36.292 -6.88933 
21.2315 -35.9385 -6.79949 19.9047 -36.3334 -6.62912 20.1036 -36.0168 -6.71358 
19.7255 -36.1907 -7.10668 21.7061 -36.4227 -6.7178 21.3541 -36.7272 -6.88754 
21.0055 -37.0602 -6.84367 19.4225 -36.5334 -6.8521 18.8619 -37.0705 -6.64059 
18.9173 -36.725 -6.7721 18.5036 -36.8974 -7.11983 20.6468 -37.2987 -6.99704 
20.4845 -37.5979 -6.64564 20.2518 -37.4951 -6.99586 19.7009 -37.5322 -6.69943 
19.4536 -37.3317 -6.99846 19.1572 -37.5051 -6.87204 18.2006 -37.1111 -6.87899 
17.5809 -37.484 -6.62256 17.7415 -37.3075 -6.79958 17.3447 -37.5331 -7.02676 
20.1151 -37.6911 -6.73654 19.3411 -38.1676 -6.54429 19.2081 -37.9369 -6.73667 
16.9245 -38.2046 -6.54143 17.0994 -37.8835 -6.80111 16.7933 -38.1802 -6.95837 
18.9948 -38.4043 -6.81468 18.5925 -38.7562 -6.96166 16.6105 -38.6526 -6.92927 
18.2425 -38.9988 -6.82537 17.98 -39.3873 -6.88755 16.644 -39.3216 -6.93458 
17.8979 -39.8269 -6.98732 17.1745 -40.0313 -6.85513 16.9304 -39.7246 -6.94643 
17.6331 -40.5045 -6.63433 17.7947 -40.4317 -7.00373 17.4132 -40.4253 -6.75937 
17.5745 -40.699 -7.03013 10.433 -35.1048 -7.35483 10.5355 -34.9333 -7.44908 
10.5544 -35.1954 -7.4467 10.2568 -35.0051 -7.62858 21.6893 -35.7306 -7.40118 
21.8317 -35.5218 -7.6461 21.9606 -35.7511 -7.65708 21.2046 -35.7096 -7.10638 
21.2356 -35.3806 -7.55388 20.4965 -35.3623 -7.5653 19.9362 -35.775 -7.11902 
20.0339 -35.4846 -7.45082 19.6787 -35.7832 -7.51918 10.3413 -35.3526 -7.52557 
21.7331 -36.421 -7.12354 21.8586 -35.94 -7.56459 21.6252 -36.1444 -7.41659 
19.5404 -36.1681 -7.5202 21.4025 -36.7177 -7.55649 21.2316 -36.9149 -7.20145 
19.3897 -36.4544 -7.37209 18.818 -36.5941 -7.50951 18.3677 -36.886 -7.58413 
21.0465 -37.0478 -7.34308 20.6932 -37.1317 -7.48489 20.1329 -37.3278 -7.42968 
19.8823 -37.4692 -7.05781 19.3728 -37.5426 -7.16897 19.6965 -37.6572 -7.5486 
18.0896 -37.0784 -7.4781 17.5951 -37.2627 -7.44701 17.1721 -37.455 -7.60583 
19.5453 -38.1142 -7.65067 19.3283 -37.9537 -7.19525 16.8932 -37.7287 -7.51338 
16.5834 -38.1193 -7.46523 19.2607 -38.4301 -7.43419 18.9112 -38.6942 -7.25943 
19.0613 -38.7265 -7.71449 16.4156 -38.4305 -7.38993 16.391 -38.8843 -7.22227 
16.1804 -38.6518 -7.51753 18.5833 -38.9118 -7.48382 18.1793 -39.0981 -7.39712 
17.9786 -39.3793 -7.49832 16.3751 -39.2542 -7.24283 16.0798 -39.2524 -7.58732 
17.8326 -39.8884 -7.53819 17.0143 -40.0267 -7.26282 16.7155 -39.8013 -7.33747 
16.3797 -39.6041 -7.4662 17.7691 -40.4425 -7.50506 17.3287 -40.4135 -7.42662 
16.8374 -40.1444 -7.66475 17.662 -40.6901 -7.3673 10.3608 -33.9107 -7.87509 
10.4079 -33.6642 -8.21062 10.7197 -33.9163 -8.07861 9.72469 -34.0195 -7.88432 
9.83639 -33.6708 -8.15201 9.12374 -34.0461 -7.9403 9.25548 -33.759 -8.04029 
8.9996 -34.0217 -8.12414 10.8622 -34.3278 -7.87106 11.0273 -34.195 -8.28053 
11.1688 -34.6173 -8.09059 10.4246 -34.4798 -7.68799 9.98076 -34.373 -8.11045 
9.58657 -34.292 -8.0819 9.31133 -34.5446 -8.09167 9.27941 -34.3846 -7.95748 
9.01496 -34.3651 -8.05513 21.1119 -35.136 -7.9138 21.2975 -34.934 -8.26447 
21.5607 -35.2775 -8.16051 20.8384 -35.0467 -8.14227 10.8599 -35.0042 -7.71568 
11.2454 -35.1268 -8.12942 9.97754 -35.0165 -8.04586 9.14196 -34.5899 -8.08808 
21.7476 -35.4281 -7.93462 21.9547 -35.6403 -7.94063 20.6785 -35.2444 -7.89904 
20.0411 -35.3184 -8.07557 19.2833 -35.9049 -7.85773 19.4684 -35.4903 -8.07182 
19.0196 -35.6499 -8.21452 11.0281 -35.7761 -7.81197 11.4048 -35.6814 -8.09943 
10.374 -35.7167 -7.73172 9.99119 -35.7106 -8.09532 21.8575 -35.9605 -7.90597 
21.5418 -36.2973 -8.21906 19.2461 -36.3189 -7.66413 18.8654 -35.949 -8.08028 
18.9439 -36.2252 -7.85825 18.57 -36.2632 -8.06981 11.4633 -36.1725 -7.91163 
11.6411 -35.97 -8.16958 11.742 -36.3033 -8.2289 11.1057 -36.3301 -7.82918 
10.5455 -36.2572 -7.83435 9.84133 -36.1032 -8.01224 9.92999 -36.2846 -7.93413 
9.66722 -36.3436 -8.07435 21.2166 -36.6997 -8.07943 20.9981 -36.9285 -7.76671 
20.8152 -36.6758 -8.18459 20.5419 -37.035 -7.83848 20.4311 -36.7844 -8.23524 
18.089 -36.9772 -7.87431 18.1927 -36.6279 -8.12599 17.8446 -36.8917 -8.2352 
12.1985 -36.9047 -7.9967 12.1625 -36.7894 -8.19164 12.3267 -36.8941 -8.07929 
11.407 -36.5766 -8.04798 11.9485 -36.9955 -8.22296 10.8197 -36.6571 -8.04064 
10.1584 -36.604 -8.13671 9.76577 -36.4625 -8.0864 20.1876 -37.3004 -8.11979 
20.0075 -37.509 -7.79182 17.7091 -37.1003 -7.96727 16.9792 -37.4849 -7.85773 
17.183 -37.2434 -8.03595 16.7634 -37.4439 -8.08558 12.2916 -37.1499 -8.20387 
19.8917 -37.6764 -8.1674 19.6419 -37.999 -8.08164 16.1716 -38.2006 -7.74803 
16.4486 -37.7683 -7.94573 15.7683 -38.2502 -7.93434 15.9729 -37.8244 -8.08671 
15.6089 -37.967 -8.2377 19.337 -38.3678 -8.09415 19.0268 -38.7008 -8.18078 
15.838 -38.7681 -7.78334 15.5572 -38.5224 -8.16416 18.7116 -38.9062 -8.0931 
18.1835 -39.0617 -8.03903 17.8153 -39.3267 -8.0592 15.7731 -39.2458 -7.82558 
15.5225 -39.1087 -8.17467 17.6494 -39.6414 -8.01246 17.5551 -40.1408 -7.80666 
17.3457 -39.8097 -8.30962 16.4696 -39.9728 -7.74565 16.0691 -39.9384 -8.07172 
15.7134 -39.5476 -8.02739 17.623 -40.53 -7.62301 17.0735 -40.1915 -8.00438 
16.5292 -40.2528 -8.1706 10.3952 -33.6665 -8.70496 10.7698 -33.8405 -8.49066 
9.76523 -33.9534 -8.35537 10.0493 -33.9136 -8.80662 9.28396 -33.8509 -8.23515 
11.0377 -34.1036 -8.63306 11.2934 -34.5546 -8.61024 9.83468 -34.2726 -8.63188 
9.76551 -34.7036 -8.40305 9.60559 -34.4849 -8.82623 9.22449 -34.3134 -8.21047 
21.743 -35.0563 -8.4099 21.762 -34.7966 -8.65415 21.986 -35.046 -8.85062 
21.326 -34.6991 -8.64567 20.3849 -35.0993 -8.33014 20.7602 -34.7986 -8.56206 
19.9219 -35.1563 -8.51954 20.0371 -34.8113 -8.81923 19.6321 -35.065 -8.82031 
11.4377 -35.2217 -8.52429 9.74964 -35.3002 -8.35634 9.53628 -34.9692 -8.76535 
21.7692 -35.713 -8.2331 21.8011 -35.3097 -8.62245 21.6427 -35.7359 -8.69169 
19.5055 -35.2768 -8.55978 18.5749 -35.7915 -8.38069 18.9414 -35.3773 -8.60674 
18.1819 -35.8283 -8.56558 18.37 -35.4327 -8.71288 17.9933 -35.6388 -8.75761 
11.5676 -35.6317 -8.42159 11.6381 -35.3672 -8.78547 11.7902 -35.802 -8.65836 
9.7706 -35.6986 -8.42217 9.6239 -35.5453 -8.7077 21.3996 -36.1741 -8.86484 
20.5625 -36.3884 -8.42807 20.8147 -36.2633 -8.63137 20.4539 -36.0191 -8.81531 
20.2896 -36.3718 -8.66985 18.2536 -36.1717 -8.37134 17.8923 -36.1635 -8.64508 
11.9467 -36.2724 -8.67638 9.84715 -36.3731 -8.26853 9.97518 -36.2188 -8.72428 
9.83823 -35.8812 -8.68381 21.1701 -36.4749 -8.52057 20.1923 -36.8594 -8.60198 
17.4076 -36.9193 -8.40115 17.6657 -36.6185 -8.58279 16.8092 -37.0142 -8.43213 
17.1386 -36.6131 -8.72325 16.2442 -37.0538 -8.50803 16.4568 -36.6066 -8.80902 
16.0428 -36.8536 -8.76758 12.1257 -36.5967 -8.55694 12.4804 -36.8885 -8.48709 
11.7475 -36.7205 -8.34272 11.0443 -36.9885 -8.35744 10.4294 -37.0191 -8.37735 
10.0692 -36.775 -8.69195 19.955 -37.2052 -8.76004 20.0167 -37.5137 -8.42037 
19.7305 -37.5322 -8.7124 16.3417 -37.4117 -8.27553 15.7532 -37.1238 -8.75921 
15.8658 -37.4795 -8.37629 15.4949 -37.5627 -8.66599 12.6851 -37.3886 -8.4927 
12.8712 -37.1483 -8.75288 12.9636 -37.5951 -8.8926 12.365 -37.5339 -8.46801 
11.9416 -37.3869 -8.51738 11.4433 -37.1972 -8.59162 10.9007 -37.317 -8.64344 
10.6228 -37.644 -8.81587 10.5001 -37.3842 -8.56481 10.1584 -37.3399 -8.77405 
[...]
CELL_DATA 6660
SCALARS scalars float
LOOKUP_TABLE default
2016 2016 2016 2016 2016 2016 2016 2016 2016 
2016 2016 2016 2016 2016 2016 2016 2016 2016 
2016 2016 2016 2016 2016 2016 2016 2016 2016 
2016 2016 2016 2016 2016 2016 2016 2016 2016 
2016 2016 2016 2016 2016 2016 2016 2016 2016 
2016 2016 2016 2016 2016 2016 2016 2016 2016 
2016 2016 2016 2016 2016 2016 2016 2016 2016 
2016 2016 2016 2016 2016 2016 2016 2016 2016 
2016 2016 2016 2016 2016 2016 2016 2016 2016 
2016 2016 2016 2016 2016 2016 2016 2016 2016 
2016 2016 2016 2016 2016 2016 2016 2016 2016 
2016 2016 2016 2016 2016 2016 2016 2016 2016 
2016 2016 2016 2016 2016 2016 2016 2016 2016 
2016 2016 2016 2016 2016 2016 2016 2016 2016 
2016 2016 2016 2016 2016 2016 2016 2016 2016 
2016 2016 2016 2016 2016 2016 2016 2016 2016 
2016 2016 2016 2016 2016 2016 2016 2016 2016 
2016 2016 2016 2016 2016 2016 2016 2016 2016 
2016 2016 2016 2016 2016 2016 2016 2016 2016 
2016 2016 2016 2016 2016 2016 2016 2016 2016 
2016 2016 2016 2016 2016 2016 2016 2016 2016 
2016 2016 2016 2016 2016 2016 2016 2016 2016 
2016 2016 2016 2016 2016 2016 2016 2016 2016 
2016 2016 2016 2016 2016 2016 2016 2016 2016 
2016 2016 2016 2016 2016 2016 2016 2016 2016 
2016 2016 2016 2016 2016 2016 2016 2016 2016 
2016 2016 2016 2016 2016 2016 2016 2016 2016 
2016 2016 2016 2016 2016 2016 2016 2016 2016 
2016 2016 2016 2016 2016 2016 2016 2016 2016 
2016 2016 2016 2016 2016 2016 2016 2016 2016 
2016 2016 2016 2016 2016 2016 2016 2016 2016 
2016 2016 2016 2016 2016 2016 2016 2016 2016 
2016 2016 2016 2016 2016 2016 2016 2016 2016 
2016 2016 2016 2016 2016 2016 2016 2016 2016 
2016 2016 2016 2016 2016 2016 2016 2016 2016 
2016 2016 2016 2016 2016 2016 2016 2016 2016 
2016 2016 2016 2016 2016 2016 2016 2016 2016 
2016 2016 2016 2016 2016 2016 2016 2016 2016 
2016 2016 2016 2016 2016 2016 2016 2016 2016 
2016 2016 2016 2016 2016 2016 2016 2016 2016 
2016 2016 2016 2016 2016 2016 2016 2016 2016 
2016 2016 2016 2016 2016 2016 2016 2016 2016 
2016 2016 2016 2016 2016 2016 2016 2016 2016 
2016 2016 2016 2016 2016 2016 2016 2016 2016 
2016 2016 2016 2016 2016 2016 2016 2016 2016 
2016 2016 2016 2016 2016 2016 2016 2016 2016 
2016 2016 2016 2016 2016 2016 2016 2016 2016 
2016 2016 2016 2016 2016 2016 2016 2016 2016 
2016 2016 2016 2016 2016 2016 2016 2016 2016 
2016 2016 2016 2016 2016 2016 2016 2016 2016 
2016 2016 2016 2016 2016 2016 2016 2016 2016 
2016 2016 2016 2016 2016 2016 2016 2016 2016 
2016 2016 2016 2016 2016 2016 2016 2016 2016 
2016 2016 2016 2016 2016 2016 2016 2016 2016 
2016 2016 2016 2016 2016 2016 2016 2016 2016 
2016 2016 2016 2016 2016 2016 2016 2016 2016 
2016 2016 2016 2016 2016 2016 2016 2016 2016 
2016 2016 2016 2016 2016 2016 2016 2016 2016 
2016 2016 2016 2016 2016 2016 2016 2016 2016 
2016 2016 2016 2016 2016 2016 2016 2016 2016 
2016 2016 2016 2016 2016 2016 2016 2016 2016 
2016 2016 2016 2016 2016 2016 2016 2016 2016 
2016 2016 2016 2016 2016 2016 2016 2016 2016 
2016 2016 2016 2016 2016 2016 2016 2016 2016 
2016 2016 2016 2016 2016 2016 2016 2016 2016 
2016 2016 2016 2016 2016 2016 2016 2016 2016 
2016 2016 2016 2016 2016 2016 2016 2016 2016 
2016 2016 2016 2016 2016 2016 2016 2016 2016 
2016 2016 2016 2016 2016 2016 2016 2016 2016 
2016 2016 2016 2016 2016 2016 2016 2016 2016 
2016 2016 2016 2016 2016 2016 2016 2016 2016 
2016 2016 2016 2016 2016 2016 2016 2016 2016 
2016 2016 2016 2016 2016 2016 2016 2016 2016 
2016 2016 2016 2016 2016 2016 2016 2016 2016 
2016 2016 2016 2016 2016 2016 2016 2016 2016 
2016 2016 2016 2016 2016 2016 2016 2016 2016 
2016 2016 2016 2016 2016 2016 2016 2016 2016 
2016 2016 2016 2016 2016 2016 2016 2016 2016 
2016 2016 2016 2016 2016 2016 2016 2016 2016 
2016 2016 2016 2016 2016 2016 2016 2016 2016 
2016 2016 2016 2016 2016 2016 2016 2016 2016 
2016 2016 2016 2016 2016 2016 2016 2016 2016 
2016 2016 2016 2016 2016 2016 2016 2016 2016 
2016 2016 2016 2016 2016 2016 2016 2016 2016 
2016 2016 2016 2016 2016 2016 2016 2016 2016 
2016 2016 2016 2016 2016 2016 2016 2016 2016 
2016 2016 2016 2016 2016 2016 2016 2016 2016 
2016 2016 2016 2016 2016 2016 2016 2016 2016 
2016 2016 2016 2016 2016 2016 2016 2016 2016 
2016 2016 2016 2016 2016 2016 2016 2016 2016 
2016 2016 2016 2016 2016 2016 2016 2016 2016 
2016 2016 2016 2016 2016 2016 2016 2016 2016 
2016 2016 2016 2016 2016 2016 2016 2016 2016 
2016 2016 2016 2016 2016 2016 2016 2016 2016 
2016 2016 2016 2016 2016 2016 2016 2016 2016 
2016 2016 2016 2016 2016 2016 2016 2016 2016 
2016 2016 2016 2016 2016 2016 2016 2016 2016 
2016 2016 2016 2016 2016 2016 2016 2016 2016 
2016 2016 2016 2016 2016 2016 2016 2016 2016 
2016 2016 2016 2016 2016 2016 2016 2016 2016 
2016 2016 2016 2016 2016 2016 2016 2016 2016 
2016 2016 2016 2016 2016 2016 2016 2016 2016 
2016 2016 2016 2016 2016 2016 2016 2016 2016 
2016 2016 2016 2016 2016 2016 2016 2016 2016 
2016 2016 2016 2016 2016 2016 2016 2016 2016 
2016 2016 2016 2016 2016 2016 2016 2016 2016 
2016 2016 2016 2016 2016 2016 2016 2016 2016 
2016 2016 2016 2016 2016 2016 2016 2016 2016 
2016 2016 2016 2016 2016 2016 2016 2016 2016 
2016 2016 2016 2016 2016 2016 2016 2016 2016 
2016 2016 2016 2016 2016 2016 2016 2016 2016 
2016 2016 2016 2016 2016 2016 2016 2016 2016 
2016 2016 2016 2016 2016 2016 2016 2016 2016 
2016 2016 2016 2016 2016 2016 2016 2016 2016 
2016 2016 2016 2016 2016 2016 2016 2016 2016 
2016 2016 2016 2016 2016 2016 2016 2016 2016 
2016 2016 2016 2016 2016 2016 2016 2016 2016 
2016 2016 2016 2016 2016 2016 2016 2016 2016 
2016 2016 2016 2016 2016 2016 2016 2016 2016 
2016 2016 2016 2016 2016 2016 2016 2016 2016 
2016 2016 2016 2016 2016 2016 2016 2016 2016 
2016 2016 2016 2016 2016 2016 2016 2016 2016 
2016 2016 2016 2016 2016 2016 2016 2016 2016 
2016 2016 2016 2016 2016 2016 2016 2016 2016 
2016 2016 2016 2016 2016 2016 2016 2016 2016 
2016 2016 2016 2016 2016 2016 2016 2016 2016 
2016 2016 2016 2016 2016 2016 2016 2016 2016 
2016 2016 2016 2016 2016 2016 2016 2016 2016 
2016 2016 2016 2016 2016 2016 2016 2016 2016 
2016 2016 2016 2016 2016 2016 2016 2016 2016 
2016 2016 2016 2016 2016 2016 2016 2016 2016 
2016 2016 2016 2016 2016 2016 2016 2016 2016 
2016 2016 2016 2016 2016 2016 2016 2016 2016 
2016 2016 2016 2016 2016 2016 2016 2016 2016 
2016 2016 2016 2016 2016 2016 2016 2016 2016 
2016 2016 2016 2016 2016 2016 2016 2016 2016 
2016 2016 2016 2016 2016 2016 2016 2016 2016 
2016 2016 2016 2016 2016 2016 2016 2016 2016 
2016 2016 2016 2016 2016 2016 2016 2016 2016 
2016 2016 2016 2016 2016 2016 2016 2016 2016 
2016 2016 2016 2016 2016 2016 2016 2016 2016 
2016 2016 2016 2016 2016 2016 2016 2016 2016 
2016 2016 2016 2016 2016 2016 2016 2016 2016 
2016 2016 2016 2016 2016 2016 2016 2016 2016 
2016 2016 2016 2016 2016 2016 2016 2016 2016 
2016 2016 2016 2016 2016 2016 2016 2016 2016 
2016 2016 2016 2016 2016 2016 2016 2016 2016 
2016 2016 2016 2016 2016 2016 2016 2016 2016 
2016 2016 2016 2016 2016 2016 2016 2016 2016 
2016 2016 2016 2016 2016 2016 2016 2016 2016 
2016 2016 2016 2016 2016 2016 2016 2016 2016 
2016 2016 2016 2016 2016 2016 2016 2016 2016 
2016 2016 2016 2016 2016 2016 2016 2016 2016 
2016 2016 2016 2016 2016 2016 2016 2016 2016 
2016 2016 2016 2016 2016 2016 2016 2016 2016 
2016 2016 2016 2016 2016 2016 2016 2016 2016 
2016 2016 2016 2016 2016 2016 2016 2016 2016 
2016 2016 2016 2016 2016 2016 2016 2016 2016 
2016 2016 2016 2016 2016 2016 2016 2016 2016 
2016 2016 2016 2016 2016 2016 2016 2016 2016 
2016 2016 2016 2016 2016 2016 2016 2016 2016 
2016 2016 2016 2016 2016 2016 2016 2016 2016 
2016 2016 2016 2016 2016 2016 2016 2016 2016 
2016 2016 2016 2016 2016 2016 2016 2016 2016 
2016 2016 2016 2016 2016 2016 2016 2016 2016 
2016 2016 2016 2016 2016 2016 2016 2016 2016 
2016 2016 2016 2016 2016 2016 2016 2016 2016 
2016 2016 2016 2016 2016 2016 2016 2016 2016 
2016 2016 2016 2016 2016 2016 2016 2016 2016 
2016 2016 2016 2016 2016 2016 2016 2016 2016 
2016 2016 2016 2016 2016 2016 2016 2016 2016 
2016 2016 2016 2016 2016 2016 2016 2016 2016 
2016 2016 2016 2016 2016 2016 2016 2016 2016 
2016 2016 2016 2016 2016 2016 2016 2016 2016 
2016 2016 2016 2016 2016 2016 2016 2016 2016 
2016 2016 2016 2016 2016 2016 2016 2016 2016 
2016 2016 2016 2016 2016 2016 2016 2016 2016 
2016 2016 2016 2016 2016 2016 2016 2016 2016 
2016 2016 2016 2016 2016 2016 2016 2016 2016 
2016 2016 2016 2016 2016 2016 2016 2016 2016 
2016 2016 2016 2016 2016 2016 2016 2016 2016 
2016 2016 2016 2016 2016 2016 2016 2016 2016 
2016 2016 2016 2016 2016 2016 2016 2016 2016 
2016 2016 2016 2016 2016 2016 2016 2016 2016 
2016 2016 2016 2016 2016 2016 2016 2016 2016 
2016 2016 2016 2016 2016 2016 2016 2016 2016 
2016 2016 2016 2016 2016 2016 2016 2016 2016 
2016 2016 2016 2016 2016 2016 2016 2016 2016 
2016 2016 2016 2016 2016 2016 2016 2016 2016 
2016 2016 2016 2016 2016 2016 2016 2016 2016 
2016 2016 2016 2016 2016 2016 2016 2016 2016 
2016 2016 2016 2016 2016 2016 2016 2016 2016 
2016 2016 2016 2016 2016 2016 2016 2016 2016 
2016 2016 2016 2016 2016 2016 2016 2016 2016 
2016 2016 2016 2016 2016 2016 2016 2016 2016 
2016 2016 2016 2016 2016 2016 2016 2016 2016 
2016 2016 2016 2016 2016 2016 2016 2016 2016 
2016 2016 2016 2016 2016 2016 2016 2016 2016 
2016 2016 2016 2016 2016 2016 2016 2016 2016 
2016 2016 2016 2016 2016 2016 2016 2016 2016 
2016 2016 2016 2016 2016 2016 2016 2016 2016 
2016 2016 2016 2016 2016 2016 2016 2016 2016 
2016 2016 2016 2016 2016 2016 2016 2016 2016 
2016 2016 2016 2016 2016 2016 2016 2016 2016 
2016 2016 2016 2016 2016 2016 2016 2016 2016 
2016 2016 2016 2016 2016 2016 2016 2016 2016 
2016 2016 2016 2016 2016 2016 2016 2016 2016 
2016 2016 2016 2016 2016 2016 2016 2016 2016 
2016 2016 2016 2016 2016 2016 2016 2016 2016 
2016 2016 2016 2016 2016 2016 2016 2016 2016 
2016 2016 2016 2016 2016 2016 2016 2016 2016 
2016 2016 2016 2016 2016 2016 2016 2016 2016 
2016 2016 2016 2016 2016 2016 2016 2016 2016 
2016 2016 2016 2016 2016 2016 2016 2016 2016 
2016 2016 2016 2016 2016 2016 2016 2016 2016 
2016 2016 2016 2016 2016 2016 2016 2016 2016 
2016 2016 2016 2016 2016 2016 2016 2016 2016 
2016 2016 2016 2016 2016 2016 2016 2016 2016 
2016 2016 2016 2016 2016 2016 2016 2016 2016 
2016 2016 2016 2016 2016 2016 2016 2016 2016 
2016 2016 2016 2016 2016 2016 2016 2016 2016 
2016 2016 2016 2016 2016 2016 2016 2016 2016 
2016 2016 2016 2016 2016 2016 2016 2016 2016 
2016 2016 2016 2016 2016 2016 2016 2016 2016 
2016 2016 2016 2016 2016 2016 2016 2016 2016 
2016 2016 2016 2016 2016 2016 2016 2016 2016 
2016 2016 2016 2016 2016 2016 2016 2016 2016 
2016 2016 2016 2016 2016 2016 2016 2016 2016 
2016 2016 2016 2016 2016 2016 2016 2016 2016 
2016 2016 2016 2016 2016 2016 2016 2016 2016 
2016 2016 2016 2016 2016 2016 2016 2016 2016 
2016 2016 2016 2016 2016 2016 2016 2016 2016 
2016 2016 2016 2016 2016 2016 2016 2016 2016 
2016 2016 2016 2016 2016 2016 2016 2016 2016 
2016 2016 2016 2016 2016 2016 2016 2016 2016 
2016 2016 2016 2016 2016 2016 2016 2016 2016 
2016 2016 2016 2016 2016 2016 2016 2016 2016 
2016 2016 2016 2016 2016 2016 2016 2016 2016 
2016 2016 2016 2016 2016 2016 2016 2016 2016 
2016 2016 2016 2016 2016 2016 2016 2016 2016 
2016 2016 2016 2016 2016 2016 2016 2016 2016 
2016 2016 2016 2016 2016 2016 2016 2016 2016 
2016 2016 2016 2016 2016 2016 2016 2016 2016 
2016 2016 2016 2016 2016 2016 2016 2016 2016 
2016 2016 2016 2016 2016 2016 2016 2016 2016 
2016 2016 2016 2016 2016 2016 2016 2016 2016 
2016 2016 2016 2016 2016 2016 2016 2016 2016 
2016 2016 2016 2016 2016 2016 2016 2016 2016 
2016 2016 2016 2016 2016 2016 2016 2016 2016 
2016 2016 2016 2016 2016 2016 2016 2016 2016 
2016 2016 2016 2016 2016 2016 2016 2016 2016 
2016 2016 2016 2016 2016 2016 2016 2016 2016 
2016 2016 2016 2016 2016 2016 2016 2016 2016 
2016 2016 2016 2016 2016 2016 2016 2016 2016 
2016 2016 2016 2016 2016 2016 2016 2016 2016 
2016 2016 2016 2016 2016 2016 2016 2016 2016 
2016 2016 2016 2016 2016 2016 2016 2016 2016 
2016 2016 2016 2016 2016 2016 2016 2016 2016 
2016 2016 2016 2016 2016 2016 2016 2016 2016 
2016 2016 2016 2016 2016 2016 2016 2016 2016 
2016 2016 2016 2016 2016 2016 2016 2016 2016 
2016 2016 2016 2016 2016 2016 2016 2016 2016 
2016 2016 2016 2016 2016 2016 2016 2016 2016 
2016 2016 2016 2016 2016 2016 2016 2016 2016 
2016 2016 2016 2016 2016 2016 2016 2016 2016 
2016 2016 2016 2016 2016 2016 2016 2016 2016 
2016 2016 2016 2016 2016 2016 2016 2016 2016 
2016 2016 2016 2016 2016 2016 2016 2016 2016 
2016 2016 2016 2016 2016 2016 2016 2016 2016 
2016 2016 2016 2016 2016 2016 2016 2016 2016 
2016 2016 2016 2016 2016 2016 2016 2016 2016 
2016 2016 2016 2016 2016 2016 2016 2016 2016 
2016 2016 2016 2016 2016 2016 2016 2016 2016 
2016 2016 2016 2016 2016 2016 2016 2016 2016 
2016 2016 2016 2016 2016 2016 2016 2016 2016 
2016 2016 2016 2016 2016 2016 2016 2016 2016 
2016 2016 2016 2016 2016 2016 2016 2016 2016 
2016 2016 2016 2016 2016 2016 2016 2016 2016 
2016 2016 2016 2016 2016 2016 2016 2016 2016 
2016 2016 2016 2016 2016 2016 2016 2016 2016 
2016 2016 2016 2016 2016 2016 2016 2016 2016 
2016 2016 2016 2016 2016 2016 2016 2016 2016 
2016 2016 2016 2016 2016 2016 2016 2016 2016 
2016 2016 2016 2016 2016 2016 2016 2016 2016 
2016 2016 2016 2016 2016 2016 2016 2016 2016 
2016 2016 2016 2016 2016 2016 2016 2016 2016 
2016 2016 2016 2016 2016 2016 2016 2016 2016 
2016 2016 2016 2016 2016 2016 2016 2016 2016 
2016 2016 2016 2016 2016 2016 2016 2016 2016 
2016 2016 2016 2016 2016 2016 2016 2016 2016 
2016 2016 2016 2016 2016 2016 2016 2016 2016 
2016 2016 2016 2016 2016 2016 2016 2016 2016 
2016 2016 2016 2016 2016 2016 2016 2016 2016 
2016 2016 2016 2016 2016 2016 2016 2016 2016 
2016 2016 2016 2016 2016 2016 2016 2016 2016 
2016 2016 2016 2016 2016 2016 2016 2016 2016 
2016 2016 2016 2016 2016 2016 2016 2016 2016 
2016 2016 2016 2016 2016 2016 2016 2016 2016 
2016 2016 2016 2016 2016 2016 2016 2016 2016 
2016 2016 2016 2016 2016 2016 2016 2016 2016 
2016 2016 2016 2016 2016 2016 2016 2016 2016 
2016 2016 2016 2016 2016 2016 2016 2016 2016 
2016 2016 2016 2016 2016 2016 2016 2016 2016 
2016 2016 2016 2016 2016 2016 2016 2016 2016 
2016 2016 2016 2016 2016 2016 2016 2016 2016 
2016 2016 2016 2016 2016 2016 2016 2016 2016 
2016 2016 2016 2016 2016 2016 2016 2016 2016 
2016 2016 2016 2016 2016 2016 2016 2016 2016 
2016 2016 2016 2016 2016 2016 2016 2016 2016 
2016 2016 2016 2016 2016 2016 2016 2016 2016 
2016 2016 2016 2016 2016 2016 2016 2016 2016 
2016 2016 2016 2016 2016 2016 2016 2016 2016 
2016 2016 2016 2016 2016 2016 2016 2016 2016 
2016 2016 2016 2016 2016 2016 2016 2016 2016 
2016 2016 2016 2016 2016 2016 2016 2016 2016 
2016 2016 2016 2016 2016 2016 2016 2016 2016 
2016 2016 2016 2016 2016 2016 2016 2016 2016 
2016 2016 2016 2016 2016 2016 2016 2016 2016 
2016 2016 2016 2016 2016 2016 2016 2016 2016 
2016 2016 2016 2016 2016 2016 2016 2016 2016 
2016 2016 2016 2016 2016 2016 2016 2016 2016 
2016 2016 2016 2016 2016 2016 2016 2016 2016 
2016 2016 2016 2016 2016 2016 2016 2016 2016 
2016 2016 2016 2016 2016 2016 2016 2016 2016 
2016 2016 2016 2016 2016 2016 2016 2016 2016 
2016 2016 2016 2016 2016 2016 2016 2016 2016 
2016 2016 2016 2016 2016 2016 2016 2016 2016 
2016 2016 2016 2016 2016 2016 2016 2016 2016 
2016 2016 2016 2016 2016 2016 2016 2016 2016 
2016 2016 2016 2016 2016 2016 2016 2016 2016 
2016 2016 2016 2016 2016 2016 2016 2016 2016 
2016 2016 2016 2016 2016 2016 2016 2016 2016 
2016 2016 2016 2016 2016 2016 2016 2016 2016 
2016 2016 2016 2016 2016 2016 2016 2016 2016 
2016 2016 2016 2016 2016 2016 2016 2016 2016 
2016 2016 2016 2016 2016 2016 2016 2016 2016 
2016 2016 2016 2016 2016 2016 2016 2016 2016 
2016 2016 2016 2016 2016 2016 2016 2016 2016 
2016 2016 2016 2016 2016 2016 2016 2016 2016 
2016 2016 2016 2016 2016 2016 2016 2016 2016 
2016 2016 2016 2016 2016 2016 2016 2016 2016 
2016 2016 2016 2016 2016 2016 2016 2016 2016 
2016 2016 2016 2016 2016 2016 2016 2016 2016 
2016 2016 2016 2016 2016 2016 2016 2016 2016 
2016 2016 2016 2016 2016 2016 2016 2016 2016 
2016 2016 2016 2016 2016 2016 2016 2016 2016 
2016 2016 2016 2016 2016 2016 2016 2016 2016 
2016 2016 2016 2016 2016 2016 2016 2016 2016 
2016 2016 2016 2016 2016 2016 2016 2016 2016 
2016 2016 2016 2016 2016 2016 2016 2016 2016 
2016 2016 2016 2016 2016 2016 2016 2016 2016 
2016 2016 2016 2016 2016 2016 2016 2016 2016 
2016 2016 2016 2016 2016 2016 2016 2016 2016 
2016 2016 2016 2016 2016 2016 2016 2016 2016 
2016 2016 2016 2016 2016 2016 2016 2016 2016 
2016 2016 2016 2016 2016 2016 2016 2016 2016 
2016 2016 2016 2016 2016 2016 2016 2016 2016 
2016 2016 2016 2016 2016 2016 2016 2016 2016 
2016 2016 2016 2016 2016 2016 2016 2016 2016 
2016 2016 2016 2016 2016 2016 2016 2016 2016 
2016 2016 2016 2016 2016 2016 2016 2016 2016 
2016 2016 2016 2016 2016 2016 2016 2016 2016 
2016 2016 2016 2016 2016 2016 2016 2016 2016 
2016 2016 2016 2016 2016 2016 2016 2016 2016 
2016 2016 2016 2016 2016 2016 2016 2016 2016 
2016 2016 2016 2016 2016 2016 2016 2016 2016 
2016 2016 2016 2016 2016 2016 2016 2016 2016 
2016 2016 2016 2016 2016 2016 2016 2016 2016 
2016 2016 2016 2016 2016 2016 2016 2016 2016 
2016 2016 2016 2016 2016 2016 2016 2016 2016 
2016 2016 2016 2016 2016 2016 2016 2016 2016 
2016 2016 2016 2016 2016 2016 2016 2016 2016 
2016 2016 2016 2016 2016 2016 2016 2016 2016 
2016 2016 2016 2016 2016 2016 2016 2016 2016 
2016 2016 2016 2016 2016 2016 2016 2016 2016 
2016 2016 2016 2016 2016 2016 2016 2016 2016 
2016 2016 2016 2016 2016 2016 2016 2016 2016 
2016 2016 2016 2016 2016 2016 2016 2016 2016 
2016 2016 2016 2016 2016 2016 2016 2016 2016 
2016 2016 2016 2016 2016 2016 2016 2016 2016 
2016 2016 2016 2016 2016 2016 2016 2016 2016 
2016 2016 2016 2016 2016 2016 2016 2016 2016 
2016 2016 2016 2016 2016 2016 2016 2016 2016 
2016 2016 2016 2016 2016 2016 2016 2016 2016 
2016 2016 2016 2016 2016 2016 2016 2016 2016 
2016 2016 2016 2016 2016 2016 2016 2016 2016 
2016 2016 2016 2016 2016 2016 2016 2016 2016 
2016 2016 2016 2016 2016 2016 2016 2016 2016 
2016 2016 2016 2016 2016 2016 2016 2016 2016 
2016 2016 2016 2016 2016 2016 2016 2016 2016 
2016 2016 2016 2016 2016 2016 2016 2016 2016 
2016 2016 2016 2016 2016 2016 2016 2016 2016 
2016 2016 2016 2016 2016 2016 2016 2016 2016 
2016 2016 2016 2016 2016 2016 2016 2016 2016 
2016 2016 2016 2016 2016 2016 2016 2016 2016 
2016 2016 2016 2016 2016 2016 2016 2016 2016 
2016 2016 2016 2016 2016 2016 2016 2016 2016 
2016 2016 2016 2016 2016 2016 2016 2016 2016 
2016 2016 2016 2016 2016 2016 2016 2016 2016 
2016 2016 2016 2016 2016 2016 2016 2016 2016 
2016 2016 2016 2016 2016 2016 2016 2016 2016 
2016 2016 2016 2016 2016 2016 2016 2016 2016 
2016 2016 2016 2016 2016 2016 2016 2016 2016 
2016 2016 2016 2016 2016 2016 2016 2016 2016 
2016 2016 2016 2016 2016 2016 2016 2016 2016 
2016 2016 2016 2016 2016 2016 2016 2016 2016 
2016 2016 2016 2016 2016 2016 2016 2016 2016 
2016 2016 2016 2016 2016 2016 2016 2016 2016 
2016 2016 2016 2016 2016 2016 2016 2016 2016 
2016 2016 2016 2016 2016 2016 2016 2016 2016 
2016 2016 2016 2016 2016 2016 2016 2016 2016 
2016 2016 2016 2016 2016 2016 2016 2016 2016 
2016 2016 2016 2016 2016 2016 2016 2016 2016 
2016 2016 2016 2016 2016 2016 2016 2016 2016 
2016 2016 2016 2016 2016 2016 2016 2016 2016 
2016 2016 2016 2016 2016 2016 2016 2016 2016 
2016 2016 2016 2016 2016 2016 2016 2016 2016 
2016 2016 2016 2016 2016 2016 2016 2016 2016 
2016 2016 2016 2016 2016 2016 2016 2016 2016 
2016 2016 2016 2016 2016 2016 2016 2016 2016 
2016 2016 2016 2016 2016 2016 2016 2016 2016 
2016 2016 2016 2016 2016 2016 2016 2016 2016 
2016 2016 2016 2016 2016 2016 2016 2016 2016 
2016 2016 2016 2016 2016 2016 2016 2016 2016 
2016 2016 2016 2016 2016 2016 2016 2016 2016 
2016 2016 2016 2016 2016 2016 2016 2016 2016 
2016 2016 2016 2016 2016 2016 2016 2016 2016 
2016 2016 2016 2016 2016 2016 2016 2016 2016 
2016 2016 2016 2016 2016 2016 2016 2016 2016 
2016 2016 2016 2016 2016 2016 2016 2016 2016 
2016 2016 2016 2016 2016 2016 2016 2016 2016 
2016 2016 2016 2016 2016 2016 2016 2016 2016 
2016 2016 2016 2016 2016 2016 2016 2016 2016 