# vtk DataFile Version 4.2
vtk output
ASCII
DATASET POLYDATA
POINTS 12586 float
28.7192 -38.1917 17.2737 28.4243 -38.7341 17.5307 28.6573 -38.5476 17.6807 
29.0924 -38.4455 17.4159 28.8135 -38.8033 17.5299 26.983 -35.5493 16.7912 
26.7725 -34.9602 16.3375 26.3473 -35.3084 16.3566 27.6962 -35.7077 16.8266 
27.5881 -35.1711 16.4435 28.1817 -35.4858 16.383 26.6122 -36.058 16.4265 
27.1026 -36.8702 16.547 27.6818 -36.5178 16.8509 28.28 -36.1747 16.546 
27.5916 -37.5601 16.9197 27.026 -37.6575 16.6024 28.5176 -36.9384 16.6186 
28.3354 -37.5574 16.9767 29.0756 -37.4531 16.2936 27.005 -38.5001 16.7953 
26.4795 -38.1786 16.423 26.2069 -38.7247 16.3341 27.964 -38.5222 17.1956 
29.6414 -38.7048 17.0747 29.7008 -38.1129 16.5738 30.464 -38.7772 16.7366 
30.4628 -38.2833 16.489 31.0032 -38.5985 16.1388 26.5953 -39.1577 16.3591 
27.1726 -39.6335 16.1627 27.4649 -39.3323 16.8339 28.6352 -39.4524 17.0842 
29.8449 -39.5459 16.8995 30.4492 -39.4191 16.629 30.7635 -38.9794 16.5005 
27.8775 -39.8938 16.5431 28.6076 -40.2763 16.4925 29.1548 -40.6477 16.486 
29.4173 -40.338 16.7433 30.1776 -40.2263 16.5485 29.5686 -40.878 16.3044 
26.7587 -34.5808 15.8219 26.5342 -34.3423 15.2991 26.283 -34.7547 15.7908 
27.0795 -34.4862 15.1775 26.0256 -35.472 15.5876 27.5743 -34.8458 15.602 
28.7272 -35.784 15.9261 28.567 -35.1362 15.5572 29.2551 -35.4725 15.3013 
25.9235 -36.531 15.8823 25.5719 -36.085 15.1291 25.2963 -36.8079 15.4339 
26.5743 -36.6339 16.2375 28.7796 -36.5966 16.1752 29.229 -36.4121 15.5689 
25.5772 -37.3874 15.7991 25.2733 -37.5107 15.2647 26.4033 -37.3843 16.1884 
29.4258 -37.3055 15.4392 25.7281 -38.2366 15.9026 25.4161 -38.3484 15.3675 
29.8225 -37.8689 15.5001 30.6741 -38.1533 15.5573 31.3699 -38.4139 15.3826 
25.8392 -38.8714 15.7664 26.4486 -39.1379 15.6268 27.1414 -39.389 15.2214 
30.9921 -39.6132 16.2059 31.5738 -38.9886 15.691 31.7158 -39.7575 15.7819 
32.1026 -39.5852 15.3242 27.8324 -40.121 15.7891 28.685 -40.6461 16.0133 
28.2167 -40.5789 15.1833 30.5025 -40.7749 16.1928 31.4109 -40.6486 15.8598 
32.0306 -40.4757 15.3673 28.93 -41.0946 15.6002 29.7738 -41.3998 15.8918 
29.2391 -41.5888 15.1937 30.6494 -41.4725 15.8532 31.3604 -41.6676 15.3476 
31.8194 -41.1492 15.3612 29.9419 -41.8492 15.5098 30.5957 -42.1067 15.3033 
26.7712 -34.01 14.347 26.2198 -34.4716 14.6522 27.3456 -34.4781 14.4214 
26.099 -35.3021 14.3965 27.6806 -34.7823 14.7331 28.5651 -35.1242 14.4544 
29.8926 -35.8338 14.8937 29.5059 -35.2266 14.7368 30.079 -35.4905 14.4967 
25.7759 -36.0039 14.4375 25.3352 -36.5929 14.7845 29.7026 -36.7262 15.1082 
30.3454 -35.9906 14.2482 30.338 -36.7264 14.6956 30.9725 -36.5394 14.1139 
25.5837 -37.0264 14.6243 25.8153 -37.8175 14.9302 26.342 -37.0894 14.445 
26.6552 -37.7893 14.7199 27.0429 -37.2898 14.2018 29.9256 -37.4619 14.9285 
30.4294 -37.4709 14.5157 30.7047 -37.1366 14.421 32.6969 -37.8368 14.7896 
32.7366 -37.2129 14.5189 32.2357 -37.5324 14.4909 33.0668 -37.2727 14.2809 
25.8267 -38.6165 15.2447 26.4985 -38.5439 15.0509 27.1205 -38.3866 14.4451 
30.4837 -37.9041 14.7005 32.0638 -38.5285 15.0646 31.3769 -37.9748 14.6159 
32.7312 -38.716 14.9004 33.1149 -38.2576 14.4305 27.4162 -39.2355 14.2855 
32.5526 -39.5181 14.9037 33.0549 -39.3922 14.322 27.6765 -39.9532 14.7869 
28.1391 -40.5485 14.1524 32.3917 -40.5283 14.6502 32.8032 -40.1961 14.3795 
28.6325 -41.1316 14.7651 29.0117 -41.5825 14.5993 31.7728 -41.5989 14.9985 
32.0485 -41.294 14.7312 29.6085 -42.1106 14.6454 30.5155 -42.559 14.7969 
30.092 -42.7142 14.3608 31.0912 -42.4309 14.7249 31.6723 -41.9944 14.3525 
30.6517 -42.8757 14.1987 26.5976 -33.4583 13.7755 26.5415 -33.0431 13.3468 
26.2974 -33.5851 13.5226 26.9914 -33.4164 13.5798 26.3457 -34.3383 13.4067 
27.8728 -34.7545 13.9452 27.4509 -34.1317 13.7395 27.9668 -34.3492 13.1755 
30.9309 -34.3839 13.8144 30.9518 -34.1695 13.2764 30.5226 -34.6576 13.6017 
31.4146 -34.6907 13.7729 31.4701 -34.1248 13.5322 32.0003 -34.5344 13.1582 
26.6326 -35.0257 13.5755 26.5492 -35.8166 13.8838 27.0522 -35.3192 13.1689 
28.3831 -35.2553 13.3895 28.9596 -35.7373 13.9075 29.6568 -35.5964 14.2465 
30.802 -35.3105 13.9687 30.3891 -35.5984 13.4847 31.1259 -35.665 13.5364 
31.3795 -34.9911 13.173 25.9728 -36.4465 14.2448 26.7247 -36.5681 14.0334 
27.1633 -36.399 13.4481 28.8531 -36.0641 13.5725 29.5836 -36.3501 13.83 
29.2123 -36.5196 13.1636 30.0816 -36.4632 13.5759 31.284 -36.4305 13.3804 
32.64 -36.8354 13.9686 32.6081 -36.2777 13.3892 32.1453 -36.7116 13.5245 
33.1218 -36.4284 13.3777 27.272 -37.524 13.4879 29.7336 -36.8629 13.2765 
31.0203 -37.4844 14.1615 31.5297 -36.9332 13.6276 31.8347 -37.2992 13.9441 
33.2757 -37.4893 13.5403 27.3451 -38.6855 13.3376 33.2657 -38.5719 13.5383 
27.6445 -39.2443 13.6456 27.7559 -39.6768 14.0659 27.9032 -39.8496 13.5423 
33.2644 -39.4101 13.3618 28.0325 -40.7209 13.2514 32.6781 -40.7941 13.9349 
33.0764 -40.2628 13.5321 28.7143 -41.4774 14.1285 28.3535 -41.4115 13.4003 
32.2245 -41.4438 13.7667 32.7305 -41.0524 13.1355 28.8954 -42.0769 13.6497 
29.5004 -42.5597 13.9418 29.2039 -42.6285 13.1493 31.2051 -42.641 13.742 
31.7087 -42.1476 13.1819 30.0138 -42.9752 13.511 30.712 -42.997 13.3342 
27.6342 -31.7889 12.7635 27.7865 -30.9334 12.1784 27.1655 -31.594 12.2887 
28.2082 -31.4861 12.4013 26.9907 -32.5068 12.9661 26.709 -32.2337 12.3649 
26.3504 -32.8431 12.6098 27.6878 -32.6411 12.8821 28.2196 -32.2811 12.5619 
26.2575 -33.7493 12.3915 27.5705 -33.4466 13.1337 28.1877 -33.4283 12.5897 
26.6104 -34.2311 12.5761 26.8104 -34.6185 13.0035 26.9612 -34.8221 12.4914 
28.378 -34.4855 12.5614 30.7224 -34.7473 13.1652 31.2281 -34.6204 12.576 
31.6672 -34.174 12.8143 32.1094 -34.4845 12.3685 27.1226 -35.7744 12.5733 
28.5796 -35.1699 12.6462 28.7123 -35.7939 13.0858 28.9758 -35.5906 12.3896 
30.7247 -35.5771 13.0638 31.2856 -35.3359 12.5107 31.8857 -35.425 12.8896 
32.5264 -34.9941 12.4343 32.6771 -35.737 12.9727 33.1027 -35.6094 12.4268 
27.1355 -36.8083 12.6306 29.2768 -36.5632 12.2431 30.9321 -36.0329 12.4945 
30.1633 -36.4941 12.7863 31.8711 -36.2803 13.1251 33.1615 -36.6119 12.5089 
27.111 -37.8206 12.6162 29.6366 -36.9448 12.5069 33.1456 -37.8471 12.4616 
27.0648 -38.7239 12.4669 33.2789 -38.7667 12.6396 27.6334 -39.437 13.1604 
27.2089 -39.6991 12.4194 33.2759 -39.5633 12.4748 27.713 -40.2027 12.9254 
27.4423 -40.5614 12.2678 33.1258 -40.4562 12.4296 27.7688 -40.8829 12.5664 
28.1404 -41.4519 12.3877 32.2273 -41.6232 12.6584 32.7499 -41.1053 12.1732 
28.635 -42.0847 12.7417 29.1262 -42.6216 12.1843 31.1874 -42.6745 12.6796 
31.7048 -42.1371 12.1482 29.7588 -43.0135 12.4403 30.5357 -43.0298 12.4724 
27.7013 -30.4087 11.7976 27.6906 -30.343 11.508 27.4285 -30.8101 11.5984 
27.925 -30.4874 11.6503 27.1469 -31.4772 11.5331 28.7345 -31.8475 11.9894 
28.3599 -30.94 11.4803 29.039 -31.3158 11.2496 26.527 -32.6583 11.9149 
26.9432 -32.1633 11.5441 28.7421 -32.8184 12.019 29.1252 -32.2837 11.3649 
26.6515 -32.9574 11.1423 26.2703 -33.3249 11.6613 28.7253 -33.8374 11.9697 
29.1003 -33.2855 11.3261 26.5787 -34.4132 12.066 26.29 -34.3605 11.4215 
28.7503 -34.6756 12.1292 29.082 -34.4514 11.4671 31.6449 -34.5871 12.0348 
26.7127 -35.2368 11.9213 26.3575 -35.4942 11.2469 29.1636 -35.6308 11.4981 
31.7242 -34.9206 11.3684 31.1103 -35.3145 11.7205 32.6517 -35.1093 11.4994 
33.0177 -35.7072 11.7239 26.7562 -36.2627 11.9373 26.3556 -36.5408 11.3057 
29.2871 -36.5324 11.2573 30.5227 -35.9256 11.2887 30.0911 -36.5612 11.552 
32.8311 -36.3974 11.8214 32.43 -36.595 11.3069 32.6742 -35.8894 11.2947 
26.7336 -37.2674 11.961 26.2019 -37.6484 11.3666 29.6143 -36.9271 11.4988 
32.7523 -37.1911 11.8905 32.4177 -37.4232 11.1293 26.6969 -38.298 11.9762 
26.1788 -38.8233 11.4982 32.8018 -37.8749 11.524 33.1344 -38.596 11.5834 
26.6794 -39.2697 11.9144 26.2497 -39.5084 11.4988 33.1498 -39.6752 11.4482 
26.4609 -39.9864 11.4524 27.0135 -40.5479 11.553 33.0142 -40.5857 11.6667 
27.554 -41.0807 11.6144 28.139 -41.5845 11.1778 32.2295 -41.4873 11.6405 
32.7382 -40.9814 11.5453 28.7497 -42.1027 11.5639 29.3329 -42.5667 11.3611 
31.1756 -42.5287 11.6331 31.7125 -42.0209 11.4934 29.6586 -42.903 11.6594 
30.3421 -42.9446 11.5785 27.7371 -30.6859 11.1429 28.8143 -30.6492 10.9368 
28.756 -30.2343 10.5279 28.3592 -30.4357 10.5692 29.0752 -30.4417 10.3919 
27.7557 -30.7777 10.4665 27.2705 -31.3708 10.6355 29.2381 -31.5046 10.4862 
27.0534 -32.4073 10.4516 29.2338 -32.5241 10.4562 26.7339 -33.1001 10.1798 
26.3383 -33.6614 10.7099 29.2107 -33.5242 10.4339 26.2112 -34.5475 10.4389 
29.1695 -34.5875 10.503 26.096 -35.6547 10.4399 29.1603 -35.6117 10.5131 
30.7682 -35.4175 10.8976 30.8162 -35.1892 10.2655 30.2861 -35.854 10.531 
31.7735 -35.105 10.4656 32.597 -35.3536 11.0161 32.1456 -35.8287 10.595 
25.9939 -36.7452 10.7496 29.3679 -36.3554 10.3072 30.1164 -36.568 10.381 
32.0884 -36.8367 10.5889 25.7548 -37.469 10.832 25.5323 -37.1014 10.4299 
25.2227 -37.8812 10.3269 29.6937 -36.8908 10.5666 32.2004 -37.4812 10.5341 
25.6758 -38.3115 11.0031 25.3107 -38.7205 10.515 32.5357 -38.019 10.5336 
32.9907 -38.7707 10.6786 25.7633 -39.3592 11.0247 25.3634 -39.4434 10.2005 
32.8765 -39.4231 10.7281 32.4816 -39.5465 10.2666 32.7249 -38.8982 10.2357 
25.8675 -40.0909 10.6215 26.4471 -40.5342 10.9041 26.1989 -40.5745 10.1568 
32.6142 -40.4873 11.0212 32.0996 -40.4734 10.3626 26.9561 -40.9209 10.5549 
27.6365 -41.259 10.6192 28.1473 -41.5839 10.1453 31.7267 -41.583 10.9322 
31.2139 -41.5975 10.4082 31.7137 -41.0841 10.4246 28.7651 -41.9601 10.4412 
29.4558 -42.2785 10.6327 29.9887 -42.6481 10.9805 30.3406 -42.084 10.2512 
30.8263 -42.3803 10.9008 28.5664 -29.8247 9.99315 28.4059 -29.2079 9.24197 
28.0218 -29.6097 9.52996 29.1618 -29.4857 9.4618 27.8559 -30.2141 9.88552 
27.5455 -29.8828 9.28764 27.3107 -30.6272 9.46553 29.352 -30.6331 9.51859 
27.1835 -31.5709 9.43419 29.2411 -31.7023 9.64801 27.1057 -32.4579 9.42417 
29.1934 -32.546 9.4639 26.569 -33.0733 9.19272 26.2352 -33.7718 9.69954 
29.0443 -33.6368 9.47032 26.013 -34.7119 9.68748 29.0636 -34.7111 9.75261 
25.666 -35.5889 9.79286 25.5528 -35.0914 9.37128 25.1341 -35.704 9.50188 
[...]
CELL_DATA 25204
SCALARS scalars float
LOOKUP_TABLE default
1007 1007 1007 1007 1007 1007 1007 1007 1007 
1007 1007 1007 1007 1007 1007 1007 1007 1007 
1007 1007 1007 1007 1007 1007 1007 1007 1007 
1007 1007 1007 1007 1007 1007 1007 1007 1007 
1007 1007 1007 1007 1007 1007 1007 1007 1007 
1007 1007 1007 1007 1007 1007 1007 1007 1007 
1007 1007 1007 1007 1007 1007 1007 1007 1007 
1007 1007 1007 1007 1007 1007 1007 1007 1007 
1007 1007 1007 1007 1007 1007 1007 1007 1007 
1007 1007 1007 1007 1007 1007 1007 1007 1007 
1007 1007 1007 1007 1007 1007 1007 1007 1007 
1007 1007 1007 1007 1007 1007 1007 1007 1007 
1007 1007 1007 1007 1007 1007 1007 1007 1007 
1007 1007 1007 1007 1007 1007 1007 1007 1007 
1007 1007 1007 1007 1007 1007 1007 1007 1007 
1007 1007 1007 1007 1007 1007 1007 1007 1007 
1007 1007 1007 1007 1007 1007 1007 1007 1007 
1007 1007 1007 1007 1007 1007 1007 1007 1007 
1007 1007 1007 1007 1007 1007 1007 1007 1007 
1007 1007 1007 1007 1007 1007 1007 1007 1007 
1007 1007 1007 1007 1007 1007 1007 1007 1007 
1007 1007 1007 1007 1007 1007 1007 1007 1007 
1007 1007 1007 1007 1007 1007 1007 1007 1007 
1007 1007 1007 1007 1007 1007 1007 1007 1007 
1007 1007 1007 1007 1007 1007 1007 1007 1007 
1007 1007 1007 1007 1007 1007 1007 1007 1007 
1007 1007 1007 1007 1007 1007 1007 1007 1007 
1007 1007 1007 1007 1007 1007 1007 1007 1007 
1007 1007 1007 1007 1007 1007 1007 1007 1007 
1007 1007 1007 1007 1007 1007 1007 1007 1007 
1007 1007 1007 1007 1007 1007 1007 1007 1007 
1007 1007 1007 1007 1007 1007 1007 1007 1007 
1007 1007 1007 1007 1007 1007 1007 1007 1007 
1007 1007 1007 1007 1007 1007 1007 1007 1007 
1007 1007 1007 1007 1007 1007 1007 1007 1007 
1007 1007 1007 1007 1007 1007 1007 1007 1007 
1007 1007 1007 1007 1007 1007 1007 1007 1007 
1007 1007 1007 1007 1007 1007 1007 1007 1007 
1007 1007 1007 1007 1007 1007 1007 1007 1007 
1007 1007 1007 1007 1007 1007 1007 1007 1007 
1007 1007 1007 1007 1007 1007 1007 1007 1007 
1007 1007 1007 1007 1007 1007 1007 1007 1007 
1007 1007 1007 1007 1007 1007 1007 1007 1007 
1007 1007 1007 1007 1007 1007 1007 1007 1007 
1007 1007 1007 1007 1007 1007 1007 1007 1007 
1007 1007 1007 1007 1007 1007 1007 1007 1007 
1007 1007 1007 1007 1007 1007 1007 1007 1007 
1007 1007 1007 1007 1007 1007 1007 1007 1007 
1007 1007 1007 1007 1007 1007 1007 1007 1007 
1007 1007 1007 1007 1007 1007 1007 1007 1007 
1007 1007 1007 1007 1007 1007 1007 1007 1007 
1007 1007 1007 1007 1007 1007 1007 1007 1007 
1007 1007 1007 1007 1007 1007 1007 1007 1007 
1007 1007 1007 1007 1007 1007 1007 1007 1007 
1007 1007 1007 1007 1007 1007 1007 1007 1007 
1007 1007 1007 1007 1007 1007 1007 1007 1007 
1007 1007 1007 1007 1007 1007 1007 1007 1007 
1007 1007 1007 1007 1007 1007 1007 1007 1007 
1007 1007 1007 1007 1007 1007 1007 1007 1007 
1007 1007 1007 1007 1007 1007 1007 1007 1007 
1007 1007 1007 1007 1007 1007 1007 1007 1007 
1007 1007 1007 1007 1007 1007 1007 1007 1007 
1007 1007 1007 1007 1007 1007 1007 1007 1007 
1007 1007 1007 1007 1007 1007 1007 1007 1007 
1007 1007 1007 1007 1007 1007 1007 1007 1007 
1007 1007 1007 1007 1007 1007 1007 1007 1007 
1007 1007 1007 1007 1007 1007 1007 1007 1007 
1007 1007 1007 1007 1007 1007 1007 1007 1007 
1007 1007 1007 1007 1007 1007 1007 1007 1007 
1007 1007 1007 1007 1007 1007 1007 1007 1007 
1007 1007 1007 1007 1007 1007 1007 1007 1007 
1007 1007 1007 1007 1007 1007 1007 1007 1007 
1007 1007 1007 1007 1007 1007 1007 1007 1007 
1007 1007 1007 1007 1007 1007 1007 1007 1007 
1007 1007 1007 1007 1007 1007 1007 1007 1007 
1007 1007 1007 1007 1007 1007 1007 1007 1007 
1007 1007 1007 1007 1007 1007 1007 1007 1007 
1007 1007 1007 1007 1007 1007 1007 1007 1007 
1007 1007 1007 1007 1007 1007 1007 1007 1007 
1007 1007 1007 1007 1007 1007 1007 1007 1007 
1007 1007 1007 1007 1007 1007 1007 1007 1007 
1007 1007 1007 1007 1007 1007 1007 1007 1007 
1007 1007 1007 1007 1007 1007 1007 1007 1007 
1007 1007 1007 1007 1007 1007 1007 1007 1007 
1007 1007 1007 1007 1007 1007 1007 1007 1007 
1007 1007 1007 1007 1007 1007 1007 1007 1007 
1007 1007 1007 1007 1007 1007 1007 1007 1007 
1007 1007 1007 1007 1007 1007 1007 1007 1007 
1007 1007 1007 1007 1007 1007 1007 1007 1007 
1007 1007 1007 1007 1007 1007 1007 1007 1007 
1007 1007 1007 1007 1007 1007 1007 1007 1007 
1007 1007 1007 1007 1007 1007 1007 1007 1007 
1007 1007 1007 1007 1007 1007 1007 1007 1007 
1007 1007 1007 1007 1007 1007 1007 1007 1007 
1007 1007 1007 1007 1007 1007 1007 1007 1007 
1007 1007 1007 1007 1007 1007 1007 1007 1007 
1007 1007 1007 1007 1007 1007 1007 1007 1007 
1007 1007 1007 1007 1007 1007 1007 1007 1007 
1007 1007 1007 1007 1007 1007 1007 1007 1007 
1007 1007 1007 1007 1007 1007 1007 1007 1007 
1007 1007 1007 1007 1007 1007 1007 1007 1007 
1007 1007 1007 1007 1007 1007 1007 1007 1007 
1007 1007 1007 1007 1007 1007 1007 1007 1007 
1007 1007 1007 1007 1007 1007 1007 1007 1007 
1007 1007 1007 1007 1007 1007 1007 1007 1007 
1007 1007 1007 1007 1007 1007 1007 1007 1007 
1007 1007 1007 1007 1007 1007 1007 1007 1007 
1007 1007 1007 1007 1007 1007 1007 1007 1007 
1007 1007 1007 1007 1007 1007 1007 1007 1007 
1007 1007 1007 1007 1007 1007 1007 1007 1007 
1007 1007 1007 1007 1007 1007 1007 1007 1007 
1007 1007 1007 1007 1007 1007 1007 1007 1007 
1007 1007 1007 1007 1007 1007 1007 1007 1007 
1007 1007 1007 1007 1007 1007 1007 1007 1007 
1007 1007 1007 1007 1007 1007 1007 1007 1007 
1007 1007 1007 1007 1007 1007 1007 1007 1007 
1007 1007 1007 1007 1007 1007 1007 1007 1007 
1007 1007 1007 1007 1007 1007 1007 1007 1007 
1007 1007 1007 1007 1007 1007 1007 1007 1007 
1007 1007 1007 1007 1007 1007 1007 1007 1007 
1007 1007 1007 1007 1007 1007 1007 1007 1007 
1007 1007 1007 1007 1007 1007 1007 1007 1007 
1007 1007 1007 1007 1007 1007 1007 1007 1007 
1007 1007 1007 1007 1007 1007 1007 1007 1007 
1007 1007 1007 1007 1007 1007 1007 1007 1007 
1007 1007 1007 1007 1007 1007 1007 1007 1007 
1007 1007 1007 1007 1007 1007 1007 1007 1007 
1007 1007 1007 1007 1007 1007 1007 1007 1007 
1007 1007 1007 1007 1007 1007 1007 1007 1007 
1007 1007 1007 1007 1007 1007 1007 1007 1007 
1007 1007 1007 1007 1007 1007 1007 1007 1007 
1007 1007 1007 1007 1007 1007 1007 1007 1007 
1007 1007 1007 1007 1007 1007 1007 1007 1007 
1007 1007 1007 1007 1007 1007 1007 1007 1007 
1007 1007 1007 1007 1007 1007 1007 1007 1007 
1007 1007 1007 1007 1007 1007 1007 1007 1007 
1007 1007 1007 1007 1007 1007 1007 1007 1007 
1007 1007 1007 1007 1007 1007 1007 1007 1007 
1007 1007 1007 1007 1007 1007 1007 1007 1007 
1007 1007 1007 1007 1007 1007 1007 1007 1007 
1007 1007 1007 1007 1007 1007 1007 1007 1007 
1007 1007 1007 1007 1007 1007 1007 1007 1007 
1007 1007 1007 1007 1007 1007 1007 1007 1007 
1007 1007 1007 1007 1007 1007 1007 1007 1007 
1007 1007 1007 1007 1007 1007 1007 1007 1007 
1007 1007 1007 1007 1007 1007 1007 1007 1007 
1007 1007 1007 1007 1007 1007 1007 1007 1007 
1007 1007 1007 1007 1007 1007 1007 1007 1007 
1007 1007 1007 1007 1007 1007 1007 1007 1007 
1007 1007 1007 1007 1007 1007 1007 1007 1007 
1007 1007 1007 1007 1007 1007 1007 1007 1007 
1007 1007 1007 1007 1007 1007 1007 1007 1007 
1007 1007 1007 1007 1007 1007 1007 1007 1007 
1007 1007 1007 1007 1007 1007 1007 1007 1007 
1007 1007 1007 1007 1007 1007 1007 1007 1007 
1007 1007 1007 1007 1007 1007 1007 1007 1007 
1007 1007 1007 1007 1007 1007 1007 1007 1007 
1007 1007 1007 1007 1007 1007 1007 1007 1007 
1007 1007 1007 1007 1007 1007 1007 1007 1007 
1007 1007 1007 1007 1007 1007 1007 1007 1007 
1007 1007 1007 1007 1007 1007 1007 1007 1007 
1007 1007 1007 1007 1007 1007 1007 1007 1007 
1007 1007 1007 1007 1007 1007 1007 1007 1007 
1007 1007 1007 1007 1007 1007 1007 1007 1007 
1007 1007 1007 1007 1007 1007 1007 1007 1007 
1007 1007 1007 1007 1007 1007 1007 1007 1007 
1007 1007 1007 1007 1007 1007 1007 1007 1007 
1007 1007 1007 1007 1007 1007 1007 1007 1007 
1007 1007 1007 1007 1007 1007 1007 1007 1007 
1007 1007 1007 1007 1007 1007 1007 1007 1007 
1007 1007 1007 1007 1007 1007 1007 1007 1007 
1007 1007 1007 1007 1007 1007 1007 1007 1007 
1007 1007 1007 1007 1007 1007 1007 1007 1007 
1007 1007 1007 1007 1007 1007 1007 1007 1007 
1007 1007 1007 1007 1007 1007 1007 1007 1007 
1007 1007 1007 1007 1007 1007 1007 1007 1007 
1007 1007 1007 1007 1007 1007 1007 1007 1007 
1007 1007 1007 1007 1007 1007 1007 1007 1007 
1007 1007 1007 1007 1007 1007 1007 1007 1007 
1007 1007 1007 1007 1007 1007 1007 1007 1007 
1007 1007 1007 1007 1007 1007 1007 1007 1007 
1007 1007 1007 1007 1007 1007 1007 1007 1007 
1007 1007 1007 1007 1007 1007 1007 1007 1007 
1007 1007 1007 1007 1007 1007 1007 1007 1007 
1007 1007 1007 1007 1007 1007 1007 1007 1007 
1007 1007 1007 1007 1007 1007 1007 1007 1007 
1007 1007 1007 1007 1007 1007 1007 1007 1007 
1007 1007 1007 1007 1007 1007 1007 1007 1007 
1007 1007 1007 1007 1007 1007 1007 1007 1007 
1007 1007 1007 1007 1007 1007 1007 1007 1007 
1007 1007 1007 1007 1007 1007 1007 1007 1007 
1007 1007 1007 1007 1007 1007 1007 1007 1007 
1007 1007 1007 1007 1007 1007 1007 1007 1007 
1007 1007 1007 1007 1007 1007 1007 1007 1007 
1007 1007 1007 1007 1007 1007 1007 1007 1007 
1007 1007 1007 1007 1007 1007 1007 1007 1007 
1007 1007 1007 1007 1007 1007 1007 1007 1007 
1007 1007 1007 1007 1007 1007 1007 1007 1007 
1007 1007 1007 1007 1007 1007 1007 1007 1007 
1007 1007 1007 1007 1007 1007 1007 1007 1007 
1007 1007 1007 1007 1007 1007 1007 1007 1007 
1007 1007 1007 1007 1007 1007 1007 1007 1007 
1007 1007 1007 1007 1007 1007 1007 1007 1007 
1007 1007 1007 1007 1007 1007 1007 1007 1007 
1007 1007 1007 1007 1007 1007 1007 1007 1007 
1007 1007 1007 1007 1007 1007 1007 1007 1007 
1007 1007 1007 1007 1007 1007 1007 1007 1007 
1007 1007 1007 1007 1007 1007 1007 1007 1007 
1007 1007 1007 1007 1007 1007 1007 1007 1007 
1007 1007 1007 1007 1007 1007 1007 1007 1007 
1007 1007 1007 1007 1007 1007 1007 1007 1007 
1007 1007 1007 1007 1007 1007 1007 1007 1007 
1007 1007 1007 1007 1007 1007 1007 1007 1007 
1007 1007 1007 1007 1007 1007 1007 1007 1007 
1007 1007 1007 1007 1007 1007 1007 1007 1007 
1007 1007 1007 1007 1007 1007 1007 1007 1007 
1007 1007 1007 1007 1007 1007 1007 1007 1007 
1007 1007 1007 1007 1007 1007 1007 1007 1007 
1007 1007 1007 1007 1007 1007 1007 1007 1007 
1007 1007 1007 1007 1007 1007 1007 1007 1007 
1007 1007 1007 1007 1007 1007 1007 1007 1007 
1007 1007 1007 1007 1007 1007 1007 1007 1007 
1007 1007 1007 1007 1007 1007 1007 1007 1007 
1007 1007 1007 1007 1007 1007 1007 1007 1007 
1007 1007 1007 1007 1007 1007 1007 1007 1007 
1007 1007 1007 1007 1007 1007 1007 1007 1007 
1007 1007 1007 1007 1007 1007 1007 1007 1007 
1007 1007 1007 1007 1007 1007 1007 1007 1007 
1007 1007 1007 1007 1007 1007 1007 1007 1007 
1007 1007 1007 1007 1007 1007 1007 1007 1007 
1007 1007 1007 1007 1007 1007 1007 1007 1007 
1007 1007 1007 1007 1007 1007 1007 1007 1007 
1007 1007 1007 1007 1007 1007 1007 1007 1007 
1007 1007 1007 1007 1007 1007 1007 1007 1007 
1007 1007 1007 1007 1007 1007 1007 1007 1007 
1007 1007 1007 1007 1007 1007 1007 1007 1007 
1007 1007 1007 1007 1007 1007 1007 1007 1007 
1007 1007 1007 1007 1007 1007 1007 1007 1007 
1007 1007 1007 1007 1007 1007 1007 1007 1007 
1007 1007 1007 1007 1007 1007 1007 1007 1007 
1007 1007 1007 1007 1007 1007 1007 1007 1007 
1007 1007 1007 1007 1007 1007 1007 1007 1007 
1007 1007 1007 1007 1007 1007 1007 1007 1007 
1007 1007 1007 1007 1007 1007 1007 1007 1007 
1007 1007 1007 1007 1007 1007 1007 1007 1007 
1007 1007 1007 1007 1007 1007 1007 1007 1007 
1007 1007 1007 1007 1007 1007 1007 1007 1007 
1007 1007 1007 1007 1007 1007 1007 1007 1007 
1007 1007 1007 1007 1007 1007 1007 1007 1007 
1007 1007 1007 1007 1007 1007 1007 1007 1007 
1007 1007 1007 1007 1007 1007 1007 1007 1007 
1007 1007 1007 1007 1007 1007 1007 1007 1007 
1007 1007 1007 1007 1007 1007 1007 1007 1007 
1007 1007 1007 1007 1007 1007 1007 1007 1007 
1007 1007 1007 1007 1007 1007 1007 1007 1007 
1007 1007 1007 1007 1007 1007 1007 1007 1007 
1007 1007 1007 1007 1007 1007 1007 1007 1007 
1007 1007 1007 1007 1007 1007 1007 1007 1007 
1007 1007 1007 1007 1007 1007 1007 1007 1007 
1007 1007 1007 1007 1007 1007 1007 1007 1007 
1007 1007 1007 1007 1007 1007 1007 1007 1007 
1007 1007 1007 1007 1007 1007 1007 1007 1007 
1007 1007 1007 1007 1007 1007 1007 1007 1007 
1007 1007 1007 1007 1007 1007 1007 1007 1007 
1007 1007 1007 1007 1007 1007 1007 1007 1007 
1007 1007 1007 1007 1007 1007 1007 1007 1007 
1007 1007 1007 1007 1007 1007 1007 1007 1007 
1007 1007 1007 1007 1007 1007 1007 1007 1007 
1007 1007 1007 1007 1007 1007 1007 1007 1007 
1007 1007 1007 1007 1007 1007 1007 1007 1007 
1007 1007 1007 1007 1007 1007 1007 1007 1007 
1007 1007 1007 1007 1007 1007 1007 1007 1007 
1007 1007 1007 1007 1007 1007 1007 1007 1007 
1007 1007 1007 1007 1007 1007 1007 1007 1007 
1007 1007 1007 1007 1007 1007 1007 1007 1007 
1007 1007 1007 1007 1007 1007 1007 1007 1007 
1007 1007 1007 1007 1007 1007 1007 1007 1007 
1007 1007 1007 1007 1007 1007 1007 1007 1007 
1007 1007 1007 1007 1007 1007 1007 1007 1007 
1007 1007 1007 1007 1007 1007 1007 1007 1007 
1007 1007 1007 1007 1007 1007 1007 1007 1007 
1007 1007 1007 1007 1007 1007 1007 1007 1007 
1007 1007 1007 1007 1007 1007 1007 1007 1007 
1007 1007 1007 1007 1007 1007 1007 1007 1007 
1007 1007 1007 1007 1007 1007 1007 1007 1007 
1007 1007 1007 1007 1007 1007 1007 1007 1007 
1007 1007 1007 1007 1007 1007 1007 1007 1007 
1007 1007 1007 1007 1007 1007 1007 1007 1007 
1007 1007 1007 1007 1007 1007 1007 1007 1007 
1007 1007 1007 1007 1007 1007 1007 1007 1007 
1007 1007 1007 1007 1007 1007 1007 1007 1007 
1007 1007 1007 1007 1007 1007 1007 1007 1007 
1007 1007 1007 1007 1007 1007 1007 1007 1007 
1007 1007 1007 1007 1007 1007 1007 1007 1007 
1007 1007 1007 1007 1007 1007 1007 1007 1007 
1007 1007 1007 1007 1007 1007 1007 1007 1007 
1007 1007 1007 1007 1007 1007 1007 1007 1007 
1007 1007 1007 1007 1007 1007 1007 1007 1007 
1007 1007 1007 1007 1007 1007 1007 1007 1007 
1007 1007 1007 1007 1007 1007 1007 1007 1007 
1007 1007 1007 1007 1007 1007 1007 1007 1007 
1007 1007 1007 1007 1007 1007 1007 1007 1007 
1007 1007 1007 1007 1007 1007 1007 1007 1007 
1007 1007 1007 1007 1007 1007 1007 1007 1007 
1007 1007 1007 1007 1007 1007 1007 1007 1007 
1007 1007 1007 1007 1007 1007 1007 1007 1007 
1007 1007 1007 1007 1007 1007 1007 1007 1007 
1007 1007 1007 1007 1007 1007 1007 1007 1007 
1007 1007 1007 1007 1007 1007 1007 1007 1007 
1007 1007 1007 1007 1007 1007 1007 1007 1007 
1007 1007 1007 1007 1007 1007 1007 1007 1007 
1007 1007 1007 1007 1007 1007 1007 1007 1007 
1007 1007 1007 1007 1007 1007 1007 1007 1007 
1007 1007 1007 1007 1007 1007 1007 1007 1007 
1007 1007 1007 1007 1007 1007 1007 1007 1007 
1007 1007 1007 1007 1007 1007 1007 1007 1007 
1007 1007 1007 1007 1007 1007 1007 1007 1007 
1007 1007 1007 1007 1007 1007 1007 1007 1007 
1007 1007 1007 1007 1007 1007 1007 1007 1007 
1007 1007 1007 1007 1007 1007 1007 1007 1007 
1007 1007 1007 1007 1007 1007 1007 1007 1007 
1007 1007 1007 1007 1007 1007 1007 1007 1007 
1007 1007 1007 1007 1007 1007 1007 1007 1007 
1007 1007 1007 1007 1007 1007 1007 1007 1007 
1007 1007 1007 1007 1007 1007 1007 1007 1007 
1007 1007 1007 1007 1007 1007 1007 1007 1007 
1007 1007 1007 1007 1007 1007 1007 1007 1007 
1007 1007 1007 1007 1007 1007 1007 1007 1007 
1007 1007 1007 1007 1007 1007 1007 1007 1007 
1007 1007 1007 1007 1007 1007 1007 1007 1007 
1007 1007 1007 1007 1007 1007 1007 1007 1007 
1007 1007 1007 1007 1007 1007 1007 1007 1007 
1007 1007 1007 1007 1007 1007 1007 1007 1007 
1007 1007 1007 1007 1007 1007 1007 1007 1007 
1007 1007 1007 1007 1007 1007 1007 1007 1007 
1007 1007 1007 1007 1007 1007 1007 1007 1007 
1007 1007 1007 1007 1007 1007 1007 1007 1007 
1007 1007 1007 1007 1007 1007 1007 1007 1007 
1007 1007 1007 1007 1007 1007 1007 1007 1007 
1007 1007 1007 1007 1007 1007 1007 1007 1007 
1007 1007 1007 1007 1007 1007 1007 1007 1007 
1007 1007 1007 1007 1007 1007 1007 1007 1007 
1007 1007 1007 1007 1007 1007 1007 1007 1007 
1007 1007 1007 1007 1007 1007 1007 1007 1007 
1007 1007 1007 1007 1007 1007 1007 1007 1007 
1007 1007 1007 1007 1007 1007 1007 1007 1007 
1007 1007 1007 1007 1007 1007 1007 1007 1007 
1007 1007 1007 1007 1007 1007 1007 1007 1007 
1007 1007 1007 1007 1007 1007 1007 1007 1007 
1007 1007 1007 1007 1007 1007 1007 1007 1007 
1007 1007 1007 1007 1007 1007 1007 1007 1007 
1007 1007 1007 1007 1007 1007 1007 1007 1007 
1007 1007 1007 1007 1007 1007 1007 1007 1007 
1007 1007 1007 1007 1007 1007 1007 1007 1007 
1007 1007 1007 1007 1007 1007 1007 1007 1007 
1007 1007 1007 1007 1007 1007 1007 1007 1007 
1007 1007 1007 1007 1007 1007 1007 1007 1007 
1007 1007 1007 1007 1007 1007 1007 1007 1007 
1007 1007 1007 1007 1007 1007 1007 1007 1007 
1007 1007 1007 1007 1007 1007 1007 1007 1007 
1007 1007 1007 1007 1007 1007 1007 1007 1007 
1007 1007 1007 1007 1007 1007 1007 1007 1007 
1007 1007 1007 1007 1007 1007 1007 1007 1007 
1007 1007 1007 1007 1007 1007 1007 1007 1007 
1007 1007 1007 1007 1007 1007 1007 1007 1007 
1007 1007 1007 1007 1007 1007 1007 1007 1007 
1007 1007 1007 1007 1007 1007 1007 1007 1007 
1007 1007 1007 1007 1007 1007 1007 1007 1007 
1007 1007 1007 1007 1007 1007 1007 1007 1007 
1007 1007 1007 1007 1007 1007 1007 1007 1007 
1007 1007 1007 1007 1007 1007 1007 1007 1007 
1007 1007 1007 1007 1007 1007 1007 1007 1007 
1007 1007 1007 1007 1007 1007 1007 1007 1007 
1007 1007 1007 1007 1007 1007 1007 1007 1007 
1007 1007 1007 1007 1007 1007 1007 1007 1007 
1007 1007 1007 1007 1007 1007 1007 1007 1007 
1007 1007 1007 1007 1007 1007 1007 1007 1007 
1007 1007 1007 1007 1007 1007 1007 1007 1007 
1007 1007 1007 1007 1007 1007 1007 1007 1007 
1007 1007 1007 1007 1007 1007 1007 1007 1007 
1007 1007 1007 1007 1007 1007 1007 1007 1007 
1007 1007 1007 1007 1007 1007 1007 1007 1007 
1007 1007 1007 1007 1007 1007 1007 1007 1007 
1007 1007 1007 1007 1007 1007 1007 1007 1007 
1007 1007 1007 1007 1007 1007 1007 1007 1007 
1007 1007 1007 1007 1007 1007 1007 1007 1007 
1007 1007 1007 1007 1007 1007 1007 1007 1007 
1007 1007 1007 1007 1007 1007 1007 1007 1007 
1007 1007 1007 1007 1007 1007 1007 1007 1007 
1007 1007 1007 1007 1007 1007 1007 1007 1007 
1007 1007 1007 1007 1007 1007 1007 1007 1007 
1007 1007 1007 1007 1007 1007 1007 1007 1007 
1007 1007 1007 1007 1007 1007 1007 1007 1007 
1007 1007 1007 1007 1007 1007 1007 1007 1007 
1007 1007 1007 1007 1007 1007 1007 1007 1007 
1007 1007 1007 1007 1007 1007 1007 1007 1007 
1007 1007 1007 1007 1007 1007 1007 1007 1007 
1007 1007 1007 1007 1007 1007 1007 1007 1007 
1007 1007 1007 1007 1007 1007 1007 1007 1007 
1007 1007 1007 1007 1007 1007 1007 1007 1007 
1007 1007 1007 1007 1007 1007 1007 1007 1007 
1007 1007 1007 1007 1007 1007 1007 1007 1007 
1007 1007 1007 1007 1007 1007 1007 1007 1007 
1007 1007 1007 1007 1007 1007 1007 1007 1007 
1007 1007 1007 1007 1007 1007 1007 1007 1007 
1007 1007 1007 1007 1007 1007 1007 1007 1007 
1007 1007 1007 1007 1007 1007 1007 1007 1007 
1007 1007 1007 1007 1007 1007 1007 1007 1007 
1007 1007 1007 1007 1007 1007 1007 1007 1007 
1007 1007 1007 1007 1007 1007 1007 1007 1007 
1007 1007 1007 1007 1007 1007 1007 1007 1007 
1007 1007 1007 1007 1007 1007 1007 1007 1007 
1007 1007 1007 1007 1007 1007 1007 1007 1007 
1007 1007 1007 1007 1007 1007 1007 1007 1007 
1007 1007 1007 1007 1007 1007 1007 1007 1007 
1007 1007 1007 1007 1007 1007 1007 1007 1007 
1007 1007 1007 1007 1007 1007 1007 1007 1007 
1007 1007 1007 1007 1007 1007 1007 1007 1007 
1007 1007 1007 1007 1007 1007 1007 1007 1007 
1007 1007 1007 1007 1007 1007 1007 1007 1007 
1007 1007 1007 1007 1007 1007 1007 1007 1007 
1007 1007 1007 1007 1007 1007 1007 1007 1007 
1007 1007 1007 1007 1007 1007 1007 1007 1007 
1007 1007 1007 1007 1007 1007 1007 1007 1007 
1007 1007 1007 1007 1007 1007 1007 1007 1007 
1007 1007 1007 1007 1007 1007 1007 1007 1007 
1007 1007 1007 1007 1007 1007 1007 1007 1007 
1007 1007 1007 1007 1007 1007 1007 1007 1007 
1007 1007 1007 1007 1007 1007 1007 1007 1007 
1007 1007 1007 1007 1007 1007 1007 1007 1007 
1007 1007 1007 1007 1007 1007 1007 1007 1007 
1007 1007 1007 1007 1007 1007 1007 1007 1007 
1007 1007 1007 1007 1007 1007 1007 1007 1007 