# vtk DataFile Version 4.2
vtk output
ASCII
DATASET POLYDATA
POINTS 4080 float
-3.39354 -26.0777 30.4837 -3.34608 -25.9626 30.2682 -3.29759 -26.115 30.2812 
-3.49135 -26.0361 30.2483 -3.44288 -26.1885 30.2612 -4.5834 -25.4479 29.8299 
-4.6387 -25.3159 29.5861 -4.46313 -25.4587 29.7276 -4.91049 -25.5147 29.5781 
-3.45199 -25.9066 29.6863 -3.24023 -26.0234 29.8914 -3.70568 -26.1524 29.6568 
-4.53235 -25.7311 29.5946 -3.30369 -26.3472 29.7196 -2.9527 -20.8366 29.2605 
-2.68852 -20.5232 29.0705 -2.53093 -20.8605 29.1267 -3.0424 -20.5926 29.0696 
-2.89245 -21.2824 29.3615 -2.49575 -21.4167 29.1359 -3.35967 -20.8833 29.1574 
-3.49031 -21.2873 29.3663 -4.20562 -21.3914 29.3563 -3.8602 -20.9955 29.1115 
-4.81277 -21.4019 29.35 -4.47634 -21.0025 29.1057 -5.24473 -21.4339 29.278 
-5.0398 -21.0371 29.1142 -5.44185 -21.24 29.0807 -2.87196 -21.8778 29.368 
-2.50997 -22.0297 29.1354 -3.38878 -21.8707 29.4508 -4.01415 -21.8959 29.4543 
-4.6355 -21.9196 29.4459 -5.16541 -21.8974 29.3552 -5.55504 -21.7332 29.1361 
-2.8056 -22.4104 29.3425 -2.51551 -22.6655 29.1504 -3.23577 -22.515 29.3664 
-3.83996 -22.4134 29.3565 -4.45263 -22.4289 29.3563 -5.02238 -22.428 29.3079 
-5.50393 -22.3122 29.1332 -2.86632 -23.0564 29.314 -2.49023 -23.3025 29.1585 
-3.20786 -23.0687 29.1941 -3.60669 -22.8594 29.127 -4.18956 -22.8182 29.12 
-4.80114 -22.821 29.1272 -5.29736 -22.724 29.0803 -2.74772 -23.6098 29.2506 
-2.48797 -23.7499 29.0669 -3.06623 -23.5128 29.137 -2.86332 -23.9019 28.9353 
-4.74686 -25.2666 29.042 -4.3856 -25.5972 29.1997 -5.43051 -25.5054 29.4042 
-5.08727 -25.2234 29.2865 -5.81935 -25.6183 29.2976 -5.6074 -25.1773 29.0833 
-5.97757 -25.3702 28.9849 -6.99603 -25.463 29.2224 -7.03827 -25.3509 28.9534 
-6.85907 -25.4938 29.1063 -7.25061 -25.4251 29.0732 -3.52875 -25.9077 29.0964 
-3.17921 -26.1863 29.1881 -4.17251 -25.9839 29.3874 -3.89851 -25.8878 29.191 
-4.48974 -26.1219 29.3104 -4.86657 -25.9639 29.2906 -5.28484 -25.859 29.2904 
-5.5105 -26.304 29.1561 -5.73678 -26.0675 29.3133 -6.09088 -26.0281 28.9785 
-6.95034 -25.6811 29.0385 -2.8244 -26.7029 29.3703 -2.82198 -26.4984 29.0357 
-2.52621 -26.8488 29.0221 -3.22645 -26.8716 29.3629 -3.68209 -26.4711 29.0512 
-4.13011 -26.2476 29.1297 -4.62775 -26.2772 28.9814 -5.789 -26.5808 29.255 
-5.65388 -26.7668 29.0993 -5.99389 -26.6761 29.0588 -2.31606 -27.1442 29.2543 
-2.17159 -27.1692 29.0366 -2.06664 -27.3077 29.1135 -2.72837 -27.2295 29.3046 
-3.14014 -27.2517 29.1761 -3.50901 -26.9779 29.08 -5.87447 -26.9843 29.0428 
-2.29898 -27.401 29.0877 -2.78503 -27.4919 29.0182 -2.31618 -28.4718 29.2734 
-2.16218 -28.1929 29.0589 -1.9786 -28.5641 28.9589 -2.66353 -28.5558 29.278 
-2.58676 -28.2274 29.1433 -2.95704 -28.4206 29.1099 -2.38452 -28.7761 29.1801 
-2.84886 -28.7214 29.1299 -3.47205 -18.3812 28.7374 -3.43605 -18.0032 28.5527 
-3.09076 -18.2487 28.5336 -4.13251 -18.3323 28.7654 -3.91275 -17.9506 28.4822 
-4.76494 -18.3522 28.7743 -4.5738 -18.032 28.4666 -5.32702 -18.4233 28.7288 
-5.15428 -18.0777 28.4509 -5.55486 -18.1975 28.4492 -2.89424 -18.897 28.7278 
-2.6783 -18.6088 28.4906 -2.41639 -18.978 28.5706 -3.45882 -18.9582 28.8206 
-3.97353 -18.8708 28.8374 -4.59445 -18.8633 28.86 -5.20254 -18.8961 28.8476 
-5.72397 -18.5087 28.5847 -5.71414 -18.9201 28.7156 -6.02014 -18.8037 28.4977 
-2.37486 -19.4614 28.7108 -2.07177 -19.2523 28.4932 -1.90043 -19.703 28.52 
-2.88478 -19.5756 28.8002 -3.37941 -19.4853 28.7969 -3.97535 -19.4873 28.8079 
-4.58957 -19.4853 28.8222 -5.09519 -19.4034 28.8354 -5.60218 -19.5278 28.7079 
-6.0534 -19.2931 28.5063 -2.1873 -19.9945 28.7204 -1.86957 -20.2679 28.5263 
-2.75925 -20.1554 28.8672 -3.40258 -20.1056 28.7971 -4.01058 -20.0953 28.7796 
-4.63234 -20.1063 28.7945 -5.29926 -20.0847 28.7406 -5.64685 -20.0198 28.5406 
-5.90532 -19.7602 28.4519 -2.27588 -20.5098 28.8228 -1.88774 -20.8619 28.522 
-3.43769 -20.6097 28.9268 -4.01847 -20.622 28.8653 -4.62542 -20.6192 28.8771 
-5.27657 -20.7385 28.8767 -5.71221 -20.3552 28.5336 -5.84759 -20.7788 28.6933 
-6.04157 -20.6079 28.4526 -2.19421 -21.1159 28.8216 -1.89186 -21.4675 28.5129 
-5.85364 -21.3807 28.8864 -6.30501 -20.9553 28.5351 -6.34456 -21.3436 28.6816 
-6.62305 -21.2563 28.4633 -2.19859 -21.7248 28.8159 -1.89928 -22.0723 28.5205 
-5.93927 -22.0819 28.9145 -6.3731 -21.9099 28.7317 -6.74529 -21.7478 28.5064 
-2.20882 -22.3425 28.8311 -1.88968 -22.6817 28.5308 -5.80341 -22.7101 28.889 
-6.36071 -22.5173 28.7293 -6.76038 -22.3392 28.5213 -2.19087 -22.9737 28.8475 
-1.87125 -23.298 28.4243 -3.40823 -23.2616 28.9852 -3.92492 -23.2674 28.8107 
-4.61479 -23.1872 28.9074 -5.23555 -23.0656 28.9133 -5.69182 -23.2563 28.7495 
-6.23206 -23.0479 28.6846 -6.69406 -22.8998 28.5058 -2.18295 -23.5459 28.8145 
-2.02021 -23.7304 28.409 -3.39196 -23.6429 28.8106 -3.77634 -23.7376 28.4133 
-4.07264 -23.5347 28.533 -4.25301 -23.7282 28.4161 -4.4566 -23.5408 28.6837 
-5.09208 -23.5619 28.7178 -5.54802 -23.6393 28.5838 -6.00829 -23.474 28.5341 
-6.48121 -23.3135 28.4626 -2.35508 -23.9227 28.6802 -2.77632 -24.1372 28.4827 
-3.30868 -24.035 28.5108 -4.71444 -23.8981 28.3684 -5.32028 -23.8851 28.3783 
-6.98934 -24.313 28.5951 -6.99096 -24.0286 28.3449 -6.86849 -24.2927 28.5056 
-7.29928 -24.3799 28.3381 -5.83439 -24.9452 28.8045 -5.84149 -24.7199 28.3443 
-5.59184 -24.8842 28.6052 -6.0931 -24.9602 28.5325 -6.91195 -24.5731 28.3805 
-4.59319 -25.4424 28.8128 -4.7998 -25.3869 28.5491 -5.19113 -25.1403 28.5541 
-6.20738 -25.4563 28.5968 -7.0262 -25.2489 28.4174 -6.67635 -25.5754 28.7338 
-7.58652 -25.5905 28.8694 -7.60521 -25.2485 28.5507 -8.10148 -25.6477 28.7053 
-8.24744 -25.3082 28.4693 -8.54672 -25.4419 28.4562 -3.50082 -26.1463 28.8812 
-3.84051 -26.0981 28.917 -4.26023 -26.1588 28.7037 -4.5647 -25.7076 28.3948 
-5.08949 -26.2506 28.9899 -6.32921 -25.7737 28.6178 -6.4777 -26.0878 28.7627 
-7.01335 -26.0736 28.7887 -7.57991 -26.0295 28.7472 -7.85659 -26.0087 28.6131 
-8.24875 -25.7604 28.3479 -2.7753 -26.6463 28.808 -3.09438 -26.656 28.5011 
-3.5223 -26.4298 28.4805 -3.93725 -26.7658 28.7848 -3.97194 -26.3905 28.4397 
-4.61504 -26.7357 28.7213 -5.31158 -26.7067 28.8978 -6.22136 -26.6351 28.6858 
-6.58662 -26.4981 28.5138 -7.15465 -26.3753 28.4516 -7.5497 -26.2276 28.5644 
-2.11884 -27.3296 28.9617 -2.43838 -27.3616 28.7451 -2.7751 -26.965 28.5161 
-3.38831 -27.3875 28.9041 -3.91952 -27.3125 28.6588 -4.33093 -27.189 28.5185 
-4.69806 -27.1222 28.5343 -4.9222 -27.3005 28.4987 -5.11306 -27.1187 28.6645 
-5.64594 -27.2175 28.7758 -6.1208 -27.2688 28.4913 -2.28811 -27.5917 28.2865 
-1.96664 -28.0169 28.629 -2.33288 -27.8381 28.7951 -2.92424 -27.9059 28.8989 
-3.57529 -27.9443 28.7335 -3.83069 -27.7806 28.5241 -4.0728 -27.5251 28.4478 
-4.57468 -27.7039 28.5101 -4.43498 -27.7874 28.4832 -4.57321 -27.8489 28.543 
-5.30808 -27.5406 28.4563 -4.82096 -27.9182 28.3397 -5.82106 -27.6451 28.3961 
-1.82145 -28.374 28.4447 -3.33917 -28.6084 28.9028 -3.91207 -28.1458 28.543 
-3.94877 -28.5414 28.6904 -4.55942 -28.0922 28.3854 -4.22135 -28.4555 28.4686 
-2.15189 -29.0197 28.8808 -1.92092 -29.0717 28.4273 -2.72264 -29.0383 28.8829 
-3.40995 -29.192 28.7661 -3.96346 -29.1179 28.7485 -4.34674 -28.9485 28.5035 
-2.35259 -29.3704 28.4461 -2.94369 -29.3023 28.445 -3.53439 -29.4383 28.4465 
-3.85293 -29.8379 28.4696 -3.9199 -29.7096 28.6808 -4.21921 -29.6504 28.4448 
-3.97345 -30.2321 28.6169 -3.92847 -30.2461 28.4683 -4.12122 -30.2244 28.571 
-4.02948 -30.4453 28.5239 -3.47444 -17.7844 28.2322 -3.40758 -17.4935 27.7069 
-3.09379 -17.7648 27.9647 -4.05287 -17.7049 28.1468 -3.99524 -17.5156 27.8309 
-4.37531 -17.6449 27.8318 -2.2401 -18.3821 28.1023 -2.15688 -18.0958 27.8736 
-1.84226 -18.3902 27.9676 -2.8028 -18.2026 28.2317 -2.63357 -17.9492 27.9131 
-4.56141 -17.8603 28.0045 -5.1815 -17.9679 27.9343 -6.01481 -18.3473 28.2751 
-5.76758 -18.0226 27.9577 -6.54583 -18.4116 28.1082 -6.27496 -18.0968 27.9085 
-6.67863 -18.2379 27.7216 -1.74879 -18.7804 28.1067 -1.52856 -18.544 27.8323 
-1.3968 -18.9389 27.8339 -2.21535 -18.8189 28.3305 -6.44523 -18.9329 28.3043 
-6.9338 -18.5625 27.934 -7.08776 -18.9367 28.1552 -7.2901 -18.9822 27.7655 
-1.67596 -19.3268 28.2299 -1.36064 -19.486 27.8367 -6.38828 -19.6586 28.2802 
-7.03018 -19.4695 28.2398 -7.55294 -19.2459 28.0175 -7.56773 -19.5131 28.1388 
-7.79502 -19.6445 27.8096 -1.5679 -19.9575 28.2301 -1.36277 -20.0936 27.8283 
-6.00873 -20.1825 28.3305 -6.50623 -20.207 28.1966 -6.9048 -19.9905 28.1993 
-7.42302 -20.0919 28.1232 -7.81327 -20.0466 27.8407 -1.57538 -20.5671 28.2247 
-1.37079 -20.7128 27.8364 -6.47757 -20.7428 28.2974 -7.00807 -20.6092 28.1305 
-7.41813 -20.6275 27.9566 -7.67768 -20.4391 27.8289 -1.58856 -21.1733 28.2199 
-1.3701 -21.3215 27.8441 -7.05499 -21.3902 28.2036 -7.37393 -21.0862 27.9191 
-1.59307 -21.7756 28.2229 -1.36218 -21.9279 27.8568 -7.12743 -22.0887 28.2917 
-7.53417 -21.5404 27.9534 -7.5444 -21.9438 28.0807 -7.85444 -21.8294 27.8735 
-1.58773 -22.3791 28.2369 -1.34853 -22.5302 27.8569 -7.03928 -22.6251 28.3153 
-7.43259 -22.548 28.0968 -7.89062 -22.2848 27.8951 -1.57896 -22.9506 28.1954 
-1.37948 -23.0593 27.7414 -6.98073 -23.1961 28.2087 -7.42022 -23.051 27.934 
-7.73255 -22.7426 27.8494 -1.60743 -23.3474 27.9917 -1.8565 -23.6738 27.8687 
-4.01772 -23.7007 28.3204 -5.76801 -23.7663 28.3517 -6.43534 -23.7388 28.236 
-6.92569 -23.6498 28.2041 -7.31882 -23.564 27.9871 -2.27432 -24.0408 28.1162 
-2.71814 -24.3128 28.1521 -2.52122 -24.3289 27.7439 -3.18134 -24.3472 28.1892 
-3.65603 -24.2082 28.0741 -4.15302 -24.0107 28.0646 -4.70414 -24.1271 27.9261 
-5.24524 -24.0806 27.898 -5.86955 -23.9347 27.9294 -6.47076 -23.9755 27.794 
-6.70548 -24.2597 28.0797 -7.76131 -24.298 28.1502 -7.53805 -24.0095 28.0981 
-8.08724 -24.3756 28.0203 -8.02314 -24.0605 27.9344 -8.34532 -24.1431 27.7515 
-2.98423 -24.5213 27.8284 -3.51443 -24.5185 27.7562 -5.93643 -24.6873 27.8001 
-5.55028 -24.9407 27.9471 -6.48546 -24.8984 28.2654 -6.40189 -24.5779 27.9288 
-6.93711 -25.0155 28.1866 -7.32214 -24.8069 28.0572 -7.76603 -24.6346 27.8705 
-8.20877 -24.4724 27.7554 -5.24625 -25.2643 27.8491 -4.95654 -25.5487 27.9093 
[...]
CELL_DATA 8172
SCALARS scalars float
LOOKUP_TABLE default
1026 1026 1026 1026 1026 1026 1026 1026 1026 
1026 1026 1026 1026 1026 1026 1026 1026 1026 
1026 1026 1026 1026 1026 1026 1026 1026 1026 
1026 1026 1026 1026 1026 1026 1026 1026 1026 
1026 1026 1026 1026 1026 1026 1026 1026 1026 
1026 1026 1026 1026 1026 1026 1026 1026 1026 
1026 1026 1026 1026 1026 1026 1026 1026 1026 
1026 1026 1026 1026 1026 1026 1026 1026 1026 
1026 1026 1026 1026 1026 1026 1026 1026 1026 
1026 1026 1026 1026 1026 1026 1026 1026 1026 
1026 1026 1026 1026 1026 1026 1026 1026 1026 
1026 1026 1026 1026 1026 1026 1026 1026 1026 
1026 1026 1026 1026 1026 1026 1026 1026 1026 
1026 1026 1026 1026 1026 1026 1026 1026 1026 
1026 1026 1026 1026 1026 1026 1026 1026 1026 
1026 1026 1026 1026 1026 1026 1026 1026 1026 
1026 1026 1026 1026 1026 1026 1026 1026 1026 
1026 1026 1026 1026 1026 1026 1026 1026 1026 
1026 1026 1026 1026 1026 1026 1026 1026 1026 
1026 1026 1026 1026 1026 1026 1026 1026 1026 
1026 1026 1026 1026 1026 1026 1026 1026 1026 
1026 1026 1026 1026 1026 1026 1026 1026 1026 
1026 1026 1026 1026 1026 1026 1026 1026 1026 
1026 1026 1026 1026 1026 1026 1026 1026 1026 
1026 1026 1026 1026 1026 1026 1026 1026 1026 
1026 1026 1026 1026 1026 1026 1026 1026 1026 
1026 1026 1026 1026 1026 1026 1026 1026 1026 
1026 1026 1026 1026 1026 1026 1026 1026 1026 
1026 1026 1026 1026 1026 1026 1026 1026 1026 
1026 1026 1026 1026 1026 1026 1026 1026 1026 
1026 1026 1026 1026 1026 1026 1026 1026 1026 
1026 1026 1026 1026 1026 1026 1026 1026 1026 
1026 1026 1026 1026 1026 1026 1026 1026 1026 
1026 1026 1026 1026 1026 1026 1026 1026 1026 
1026 1026 1026 1026 1026 1026 1026 1026 1026 
1026 1026 1026 1026 1026 1026 1026 1026 1026 
1026 1026 1026 1026 1026 1026 1026 1026 1026 
1026 1026 1026 1026 1026 1026 1026 1026 1026 
1026 1026 1026 1026 1026 1026 1026 1026 1026 
1026 1026 1026 1026 1026 1026 1026 1026 1026 
1026 1026 1026 1026 1026 1026 1026 1026 1026 
1026 1026 1026 1026 1026 1026 1026 1026 1026 
1026 1026 1026 1026 1026 1026 1026 1026 1026 
1026 1026 1026 1026 1026 1026 1026 1026 1026 
1026 1026 1026 1026 1026 1026 1026 1026 1026 
1026 1026 1026 1026 1026 1026 1026 1026 1026 
1026 1026 1026 1026 1026 1026 1026 1026 1026 
1026 1026 1026 1026 1026 1026 1026 1026 1026 
1026 1026 1026 1026 1026 1026 1026 1026 1026 
1026 1026 1026 1026 1026 1026 1026 1026 1026 
1026 1026 1026 1026 1026 1026 1026 1026 1026 
1026 1026 1026 1026 1026 1026 1026 1026 1026 
1026 1026 1026 1026 1026 1026 1026 1026 1026 
1026 1026 1026 1026 1026 1026 1026 1026 1026 
1026 1026 1026 1026 1026 1026 1026 1026 1026 
1026 1026 1026 1026 1026 1026 1026 1026 1026 
1026 1026 1026 1026 1026 1026 1026 1026 1026 
1026 1026 1026 1026 1026 1026 1026 1026 1026 
1026 1026 1026 1026 1026 1026 1026 1026 1026 
1026 1026 1026 1026 1026 1026 1026 1026 1026 
1026 1026 1026 1026 1026 1026 1026 1026 1026 
1026 1026 1026 1026 1026 1026 1026 1026 1026 
1026 1026 1026 1026 1026 1026 1026 1026 1026 
1026 1026 1026 1026 1026 1026 1026 1026 1026 
1026 1026 1026 1026 1026 1026 1026 1026 1026 
1026 1026 1026 1026 1026 1026 1026 1026 1026 
1026 1026 1026 1026 1026 1026 1026 1026 1026 
1026 1026 1026 1026 1026 1026 1026 1026 1026 
1026 1026 1026 1026 1026 1026 1026 1026 1026 
1026 1026 1026 1026 1026 1026 1026 1026 1026 
1026 1026 1026 1026 1026 1026 1026 1026 1026 
1026 1026 1026 1026 1026 1026 1026 1026 1026 
1026 1026 1026 1026 1026 1026 1026 1026 1026 
1026 1026 1026 1026 1026 1026 1026 1026 1026 
1026 1026 1026 1026 1026 1026 1026 1026 1026 
1026 1026 1026 1026 1026 1026 1026 1026 1026 
1026 1026 1026 1026 1026 1026 1026 1026 1026 
1026 1026 1026 1026 1026 1026 1026 1026 1026 
1026 1026 1026 1026 1026 1026 1026 1026 1026 
1026 1026 1026 1026 1026 1026 1026 1026 1026 
1026 1026 1026 1026 1026 1026 1026 1026 1026 
1026 1026 1026 1026 1026 1026 1026 1026 1026 
1026 1026 1026 1026 1026 1026 1026 1026 1026 
1026 1026 1026 1026 1026 1026 1026 1026 1026 
1026 1026 1026 1026 1026 1026 1026 1026 1026 
1026 1026 1026 1026 1026 1026 1026 1026 1026 
1026 1026 1026 1026 1026 1026 1026 1026 1026 
1026 1026 1026 1026 1026 1026 1026 1026 1026 
1026 1026 1026 1026 1026 1026 1026 1026 1026 
1026 1026 1026 1026 1026 1026 1026 1026 1026 
1026 1026 1026 1026 1026 1026 1026 1026 1026 
1026 1026 1026 1026 1026 1026 1026 1026 1026 
1026 1026 1026 1026 1026 1026 1026 1026 1026 
1026 1026 1026 1026 1026 1026 1026 1026 1026 
1026 1026 1026 1026 1026 1026 1026 1026 1026 
1026 1026 1026 1026 1026 1026 1026 1026 1026 
1026 1026 1026 1026 1026 1026 1026 1026 1026 
1026 1026 1026 1026 1026 1026 1026 1026 1026 
1026 1026 1026 1026 1026 1026 1026 1026 1026 
1026 1026 1026 1026 1026 1026 1026 1026 1026 
1026 1026 1026 1026 1026 1026 1026 1026 1026 
1026 1026 1026 1026 1026 1026 1026 1026 1026 
1026 1026 1026 1026 1026 1026 1026 1026 1026 
1026 1026 1026 1026 1026 1026 1026 1026 1026 
1026 1026 1026 1026 1026 1026 1026 1026 1026 
1026 1026 1026 1026 1026 1026 1026 1026 1026 
1026 1026 1026 1026 1026 1026 1026 1026 1026 
1026 1026 1026 1026 1026 1026 1026 1026 1026 
1026 1026 1026 1026 1026 1026 1026 1026 1026 
1026 1026 1026 1026 1026 1026 1026 1026 1026 
1026 1026 1026 1026 1026 1026 1026 1026 1026 
1026 1026 1026 1026 1026 1026 1026 1026 1026 
1026 1026 1026 1026 1026 1026 1026 1026 1026 
1026 1026 1026 1026 1026 1026 1026 1026 1026 
1026 1026 1026 1026 1026 1026 1026 1026 1026 
1026 1026 1026 1026 1026 1026 1026 1026 1026 
1026 1026 1026 1026 1026 1026 1026 1026 1026 
1026 1026 1026 1026 1026 1026 1026 1026 1026 
1026 1026 1026 1026 1026 1026 1026 1026 1026 
1026 1026 1026 1026 1026 1026 1026 1026 1026 
1026 1026 1026 1026 1026 1026 1026 1026 1026 
1026 1026 1026 1026 1026 1026 1026 1026 1026 
1026 1026 1026 1026 1026 1026 1026 1026 1026 
1026 1026 1026 1026 1026 1026 1026 1026 1026 
1026 1026 1026 1026 1026 1026 1026 1026 1026 
1026 1026 1026 1026 1026 1026 1026 1026 1026 
1026 1026 1026 1026 1026 1026 1026 1026 1026 
1026 1026 1026 1026 1026 1026 1026 1026 1026 
1026 1026 1026 1026 1026 1026 1026 1026 1026 
1026 1026 1026 1026 1026 1026 1026 1026 1026 
1026 1026 1026 1026 1026 1026 1026 1026 1026 
1026 1026 1026 1026 1026 1026 1026 1026 1026 
1026 1026 1026 1026 1026 1026 1026 1026 1026 
1026 1026 1026 1026 1026 1026 1026 1026 1026 
1026 1026 1026 1026 1026 1026 1026 1026 1026 
1026 1026 1026 1026 1026 1026 1026 1026 1026 
1026 1026 1026 1026 1026 1026 1026 1026 1026 
1026 1026 1026 1026 1026 1026 1026 1026 1026 
1026 1026 1026 1026 1026 1026 1026 1026 1026 
1026 1026 1026 1026 1026 1026 1026 1026 1026 
1026 1026 1026 1026 1026 1026 1026 1026 1026 
1026 1026 1026 1026 1026 1026 1026 1026 1026 
1026 1026 1026 1026 1026 1026 1026 1026 1026 
1026 1026 1026 1026 1026 1026 1026 1026 1026 
1026 1026 1026 1026 1026 1026 1026 1026 1026 
1026 1026 1026 1026 1026 1026 1026 1026 1026 
1026 1026 1026 1026 1026 1026 1026 1026 1026 
1026 1026 1026 1026 1026 1026 1026 1026 1026 
1026 1026 1026 1026 1026 1026 1026 1026 1026 
1026 1026 1026 1026 1026 1026 1026 1026 1026 
1026 1026 1026 1026 1026 1026 1026 1026 1026 
1026 1026 1026 1026 1026 1026 1026 1026 1026 
1026 1026 1026 1026 1026 1026 1026 1026 1026 
1026 1026 1026 1026 1026 1026 1026 1026 1026 
1026 1026 1026 1026 1026 1026 1026 1026 1026 
1026 1026 1026 1026 1026 1026 1026 1026 1026 
1026 1026 1026 1026 1026 1026 1026 1026 1026 
1026 1026 1026 1026 1026 1026 1026 1026 1026 
1026 1026 1026 1026 1026 1026 1026 1026 1026 
1026 1026 1026 1026 1026 1026 1026 1026 1026 
1026 1026 1026 1026 1026 1026 1026 1026 1026 
1026 1026 1026 1026 1026 1026 1026 1026 1026 
1026 1026 1026 1026 1026 1026 1026 1026 1026 
1026 1026 1026 1026 1026 1026 1026 1026 1026 
1026 1026 1026 1026 1026 1026 1026 1026 1026 
1026 1026 1026 1026 1026 1026 1026 1026 1026 
1026 1026 1026 1026 1026 1026 1026 1026 1026 
1026 1026 1026 1026 1026 1026 1026 1026 1026 
1026 1026 1026 1026 1026 1026 1026 1026 1026 
1026 1026 1026 1026 1026 1026 1026 1026 1026 
1026 1026 1026 1026 1026 1026 1026 1026 1026 
1026 1026 1026 1026 1026 1026 1026 1026 1026 
1026 1026 1026 1026 1026 1026 1026 1026 1026 
1026 1026 1026 1026 1026 1026 1026 1026 1026 
1026 1026 1026 1026 1026 1026 1026 1026 1026 
1026 1026 1026 1026 1026 1026 1026 1026 1026 
1026 1026 1026 1026 1026 1026 1026 1026 1026 
1026 1026 1026 1026 1026 1026 1026 1026 1026 
1026 1026 1026 1026 1026 1026 1026 1026 1026 
1026 1026 1026 1026 1026 1026 1026 1026 1026 
1026 1026 1026 1026 1026 1026 1026 1026 1026 
1026 1026 1026 1026 1026 1026 1026 1026 1026 
1026 1026 1026 1026 1026 1026 1026 1026 1026 
1026 1026 1026 1026 1026 1026 1026 1026 1026 
1026 1026 1026 1026 1026 1026 1026 1026 1026 
1026 1026 1026 1026 1026 1026 1026 1026 1026 
1026 1026 1026 1026 1026 1026 1026 1026 1026 
1026 1026 1026 1026 1026 1026 1026 1026 1026 
1026 1026 1026 1026 1026 1026 1026 1026 1026 
1026 1026 1026 1026 1026 1026 1026 1026 1026 
1026 1026 1026 1026 1026 1026 1026 1026 1026 
1026 1026 1026 1026 1026 1026 1026 1026 1026 
1026 1026 1026 1026 1026 1026 1026 1026 1026 
1026 1026 1026 1026 1026 1026 1026 1026 1026 
1026 1026 1026 1026 1026 1026 1026 1026 1026 
1026 1026 1026 1026 1026 1026 1026 1026 1026 
1026 1026 1026 1026 1026 1026 1026 1026 1026 
1026 1026 1026 1026 1026 1026 1026 1026 1026 
1026 1026 1026 1026 1026 1026 1026 1026 1026 
1026 1026 1026 1026 1026 1026 1026 1026 1026 
1026 1026 1026 1026 1026 1026 1026 1026 1026 
1026 1026 1026 1026 1026 1026 1026 1026 1026 
1026 1026 1026 1026 1026 1026 1026 1026 1026 
1026 1026 1026 1026 1026 1026 1026 1026 1026 
1026 1026 1026 1026 1026 1026 1026 1026 1026 
1026 1026 1026 1026 1026 1026 1026 1026 1026 
1026 1026 1026 1026 1026 1026 1026 1026 1026 
1026 1026 1026 1026 1026 1026 1026 1026 1026 
1026 1026 1026 1026 1026 1026 1026 1026 1026 
1026 1026 1026 1026 1026 1026 1026 1026 1026 
1026 1026 1026 1026 1026 1026 1026 1026 1026 
1026 1026 1026 1026 1026 1026 1026 1026 1026 
1026 1026 1026 1026 1026 1026 1026 1026 1026 
1026 1026 1026 1026 1026 1026 1026 1026 1026 
1026 1026 1026 1026 1026 1026 1026 1026 1026 
1026 1026 1026 1026 1026 1026 1026 1026 1026 
1026 1026 1026 1026 1026 1026 1026 1026 1026 
1026 1026 1026 1026 1026 1026 1026 1026 1026 
1026 1026 1026 1026 1026 1026 1026 1026 1026 
1026 1026 1026 1026 1026 1026 1026 1026 1026 
1026 1026 1026 1026 1026 1026 1026 1026 1026 
1026 1026 1026 1026 1026 1026 1026 1026 1026 
1026 1026 1026 1026 1026 1026 1026 1026 1026 
1026 1026 1026 1026 1026 1026 1026 1026 1026 
1026 1026 1026 1026 1026 1026 1026 1026 1026 
1026 1026 1026 1026 1026 1026 1026 1026 1026 
1026 1026 1026 1026 1026 1026 1026 1026 1026 
1026 1026 1026 1026 1026 1026 1026 1026 1026 
1026 1026 1026 1026 1026 1026 1026 1026 1026 
1026 1026 1026 1026 1026 1026 1026 1026 1026 
1026 1026 1026 1026 1026 1026 1026 1026 1026 
1026 1026 1026 1026 1026 1026 1026 1026 1026 
1026 1026 1026 1026 1026 1026 1026 1026 1026 
1026 1026 1026 1026 1026 1026 1026 1026 1026 
1026 1026 1026 1026 1026 1026 1026 1026 1026 
1026 1026 1026 1026 1026 1026 1026 1026 1026 
1026 1026 1026 1026 1026 1026 1026 1026 1026 
1026 1026 1026 1026 1026 1026 1026 1026 1026 
1026 1026 1026 1026 1026 1026 1026 1026 1026 
1026 1026 1026 1026 1026 1026 1026 1026 1026 
1026 1026 1026 1026 1026 1026 1026 1026 1026 
1026 1026 1026 1026 1026 1026 1026 1026 1026 
1026 1026 1026 1026 1026 1026 1026 1026 1026 
1026 1026 1026 1026 1026 1026 1026 1026 1026 
1026 1026 1026 1026 1026 1026 1026 1026 1026 
1026 1026 1026 1026 1026 1026 1026 1026 1026 
1026 1026 1026 1026 1026 1026 1026 1026 1026 
1026 1026 1026 1026 1026 1026 1026 1026 1026 
1026 1026 1026 1026 1026 1026 1026 1026 1026 
1026 1026 1026 1026 1026 1026 1026 1026 1026 
1026 1026 1026 1026 1026 1026 1026 1026 1026 
1026 1026 1026 1026 1026 1026 1026 1026 1026 
1026 1026 1026 1026 1026 1026 1026 1026 1026 
1026 1026 1026 1026 1026 1026 1026 1026 1026 
1026 1026 1026 1026 1026 1026 1026 1026 1026 
1026 1026 1026 1026 1026 1026 1026 1026 1026 
1026 1026 1026 1026 1026 1026 1026 1026 1026 
1026 1026 1026 1026 1026 1026 1026 1026 1026 
1026 1026 1026 1026 1026 1026 1026 1026 1026 
1026 1026 1026 1026 1026 1026 1026 1026 1026 
1026 1026 1026 1026 1026 1026 1026 1026 1026 
1026 1026 1026 1026 1026 1026 1026 1026 1026 
1026 1026 1026 1026 1026 1026 1026 1026 1026 
1026 1026 1026 1026 1026 1026 1026 1026 1026 
1026 1026 1026 1026 1026 1026 1026 1026 1026 
1026 1026 1026 1026 1026 1026 1026 1026 1026 
1026 1026 1026 1026 1026 1026 1026 1026 1026 
1026 1026 1026 1026 1026 1026 1026 1026 1026 
1026 1026 1026 1026 1026 1026 1026 1026 1026 
1026 1026 1026 1026 1026 1026 1026 1026 1026 
1026 1026 1026 1026 1026 1026 1026 1026 1026 
1026 1026 1026 1026 1026 1026 1026 1026 1026 
1026 1026 1026 1026 1026 1026 1026 1026 1026 
1026 1026 1026 1026 1026 1026 1026 1026 1026 
1026 1026 1026 1026 1026 1026 1026 1026 1026 
1026 1026 1026 1026 1026 1026 1026 1026 1026 
1026 1026 1026 1026 1026 1026 1026 1026 1026 
1026 1026 1026 1026 1026 1026 1026 1026 1026 
1026 1026 1026 1026 1026 1026 1026 1026 1026 
1026 1026 1026 1026 1026 1026 1026 1026 1026 
1026 1026 1026 1026 1026 1026 1026 1026 1026 
1026 1026 1026 1026 1026 1026 1026 1026 1026 
1026 1026 1026 1026 1026 1026 1026 1026 1026 
1026 1026 1026 1026 1026 1026 1026 1026 1026 
1026 1026 1026 1026 1026 1026 1026 1026 1026 
1026 1026 1026 1026 1026 1026 1026 1026 1026 
1026 1026 1026 1026 1026 1026 1026 1026 1026 
1026 1026 1026 1026 1026 1026 1026 1026 1026 
1026 1026 1026 1026 1026 1026 1026 1026 1026 
1026 1026 1026 1026 1026 1026 1026 1026 1026 
1026 1026 1026 1026 1026 1026 1026 1026 1026 
1026 1026 1026 1026 1026 1026 1026 1026 1026 
1026 1026 1026 1026 1026 1026 1026 1026 1026 
1026 1026 1026 1026 1026 1026 1026 1026 1026 
1026 1026 1026 1026 1026 1026 1026 1026 1026 
1026 1026 1026 1026 1026 1026 1026 1026 1026 
1026 1026 1026 1026 1026 1026 1026 1026 1026 
1026 1026 1026 1026 1026 1026 1026 1026 1026 
1026 1026 1026 1026 1026 1026 1026 1026 1026 
1026 1026 1026 1026 1026 1026 1026 1026 1026 
1026 1026 1026 1026 1026 1026 1026 1026 1026 
1026 1026 1026 1026 1026 1026 1026 1026 1026 
1026 1026 1026 1026 1026 1026 1026 1026 1026 
1026 1026 1026 1026 1026 1026 1026 1026 1026 
1026 1026 1026 1026 1026 1026 1026 1026 1026 
1026 1026 1026 1026 1026 1026 1026 1026 1026 
1026 1026 1026 1026 1026 1026 1026 1026 1026 
1026 1026 1026 1026 1026 1026 1026 1026 1026 
1026 1026 1026 1026 1026 1026 1026 1026 1026 
1026 1026 1026 1026 1026 1026 1026 1026 1026 
1026 1026 1026 1026 1026 1026 1026 1026 1026 
1026 1026 1026 1026 1026 1026 1026 1026 1026 
1026 1026 1026 1026 1026 1026 1026 1026 1026 
1026 1026 1026 1026 1026 1026 1026 1026 1026 
1026 1026 1026 1026 1026 1026 1026 1026 1026 
1026 1026 1026 1026 1026 1026 1026 1026 1026 
1026 1026 1026 1026 1026 1026 1026 1026 1026 
1026 1026 1026 1026 1026 1026 1026 1026 1026 
1026 1026 1026 1026 1026 1026 1026 1026 1026 
1026 1026 1026 1026 1026 1026 1026 1026 1026 
1026 1026 1026 1026 1026 1026 1026 1026 1026 
1026 1026 1026 1026 1026 1026 1026 1026 1026 
1026 1026 1026 1026 1026 1026 1026 1026 1026 
1026 1026 1026 1026 1026 1026 1026 1026 1026 
1026 1026 1026 1026 1026 1026 1026 1026 1026 
1026 1026 1026 1026 1026 1026 1026 1026 1026 
1026 1026 1026 1026 1026 1026 1026 1026 1026 
1026 1026 1026 1026 1026 1026 1026 1026 1026 
1026 1026 1026 1026 1026 1026 1026 1026 1026 
1026 1026 1026 1026 1026 1026 1026 1026 1026 
1026 1026 1026 1026 1026 1026 1026 1026 1026 
1026 1026 1026 1026 1026 1026 1026 1026 1026 
1026 1026 1026 1026 1026 1026 1026 1026 1026 
1026 1026 1026 1026 1026 1026 1026 1026 1026 
1026 1026 1026 1026 1026 1026 1026 1026 1026 
1026 1026 1026 1026 1026 1026 1026 1026 1026 
1026 1026 1026 1026 1026 1026 1026 1026 1026 
1026 1026 1026 1026 1026 1026 1026 1026 1026 
1026 1026 1026 1026 1026 1026 1026 1026 1026 
1026 1026 1026 1026 1026 1026 1026 1026 1026 
1026 1026 1026 1026 1026 1026 1026 1026 1026 
1026 1026 1026 1026 1026 1026 1026 1026 1026 
1026 1026 1026 1026 1026 1026 1026 1026 1026 
1026 1026 1026 1026 1026 1026 1026 1026 1026 
1026 1026 1026 1026 1026 1026 1026 1026 1026 
1026 1026 1026 1026 1026 1026 1026 1026 1026 
1026 1026 1026 1026 1026 1026 1026 1026 1026 
1026 1026 1026 1026 1026 1026 1026 1026 1026 
1026 1026 1026 1026 1026 1026 1026 1026 1026 
1026 1026 1026 1026 1026 1026 1026 1026 1026 
1026 1026 1026 1026 1026 1026 1026 1026 1026 
1026 1026 1026 1026 1026 1026 1026 1026 1026 
1026 1026 1026 1026 1026 1026 1026 1026 1026 
1026 1026 1026 1026 1026 1026 1026 1026 1026 
1026 1026 1026 1026 1026 1026 1026 1026 1026 
1026 1026 1026 1026 1026 1026 1026 1026 1026 
1026 1026 1026 1026 1026 1026 1026 1026 1026 
1026 1026 1026 1026 1026 1026 1026 1026 1026 
1026 1026 1026 1026 1026 1026 1026 1026 1026 
1026 1026 1026 1026 1026 1026 1026 1026 1026 
1026 1026 1026 1026 1026 1026 1026 1026 1026 
1026 1026 1026 1026 1026 1026 1026 1026 1026 
1026 1026 1026 1026 1026 1026 1026 1026 1026 
1026 1026 1026 1026 1026 1026 1026 1026 1026 
1026 1026 1026 1026 1026 1026 1026 1026 1026 
1026 1026 1026 1026 1026 1026 1026 1026 1026 
1026 1026 1026 1026 1026 1026 1026 1026 1026 
1026 1026 1026 1026 1026 1026 1026 1026 1026 
1026 1026 1026 1026 1026 1026 1026 1026 1026 
1026 1026 1026 1026 1026 1026 1026 1026 1026 
1026 1026 1026 1026 1026 1026 1026 1026 1026 
1026 1026 1026 1026 1026 1026 1026 1026 1026 
1026 1026 1026 1026 1026 1026 1026 1026 1026 
1026 1026 1026 1026 1026 1026 1026 1026 1026 
1026 1026 1026 1026 1026 1026 1026 1026 1026 
1026 1026 1026 1026 1026 1026 1026 1026 1026 
1026 1026 1026 1026 1026 1026 1026 1026 1026 
1026 1026 1026 1026 1026 1026 1026 1026 1026 
1026 1026 1026 1026 1026 1026 1026 1026 1026 
1026 1026 1026 1026 1026 1026 1026 1026 1026 
1026 1026 1026 1026 1026 1026 1026 1026 1026 
1026 1026 1026 1026 1026 1026 1026 1026 1026 
1026 1026 1026 1026 1026 1026 1026 1026 1026 
1026 1026 1026 1026 1026 1026 1026 1026 1026 
1026 1026 1026 1026 1026 1026 1026 1026 1026 
1026 1026 1026 1026 1026 1026 1026 1026 1026 
1026 1026 1026 1026 1026 1026 1026 1026 1026 
1026 1026 1026 1026 1026 1026 1026 1026 1026 
1026 1026 1026 1026 1026 1026 1026 1026 1026 
1026 1026 1026 1026 1026 1026 1026 1026 1026 
1026 1026 1026 1026 1026 1026 1026 1026 1026 
1026 1026 1026 1026 1026 1026 1026 1026 1026 
1026 1026 1026 1026 1026 1026 1026 1026 1026 
1026 1026 1026 1026 1026 1026 1026 1026 1026 
1026 1026 1026 1026 1026 1026 1026 1026 1026 
1026 1026 1026 1026 1026 1026 1026 1026 1026 
1026 1026 1026 1026 1026 1026 1026 1026 1026 
1026 1026 1026 1026 1026 1026 1026 1026 1026 
1026 1026 1026 1026 1026 1026 1026 1026 1026 
1026 1026 1026 1026 1026 1026 1026 1026 1026 
1026 1026 1026 1026 1026 1026 1026 1026 1026 
1026 1026 1026 1026 1026 1026 1026 1026 1026 
1026 1026 1026 1026 1026 1026 1026 1026 1026 
1026 1026 1026 1026 1026 1026 1026 1026 1026 
1026 1026 1026 1026 1026 1026 1026 1026 1026 
1026 1026 1026 1026 1026 1026 1026 1026 1026 
1026 1026 1026 1026 1026 1026 1026 1026 1026 
1026 1026 1026 1026 1026 1026 1026 1026 1026 
1026 1026 1026 1026 1026 1026 1026 1026 1026 
1026 1026 1026 1026 1026 1026 1026 1026 1026 
1026 1026 1026 1026 1026 1026 1026 1026 1026 
1026 1026 1026 1026 1026 1026 1026 1026 1026 
1026 1026 1026 1026 1026 1026 1026 1026 1026 
1026 1026 1026 1026 1026 1026 1026 1026 1026 
1026 1026 1026 1026 1026 1026 1026 1026 1026 
1026 1026 1026 1026 1026 1026 1026 1026 1026 
1026 1026 1026 1026 1026 1026 1026 1026 1026 
1026 1026 1026 1026 1026 1026 1026 1026 1026 
1026 1026 1026 1026 1026 1026 1026 1026 1026 
1026 1026 1026 1026 1026 1026 1026 1026 1026 
1026 1026 1026 1026 1026 1026 1026 1026 1026 
1026 1026 1026 1026 1026 1026 1026 1026 1026 
1026 1026 1026 1026 1026 1026 1026 1026 1026 
1026 1026 1026 1026 1026 1026 1026 1026 1026 
1026 1026 1026 1026 1026 1026 1026 1026 1026 
1026 1026 1026 1026 1026 1026 1026 1026 1026 
1026 1026 1026 1026 1026 1026 1026 1026 1026 
1026 1026 1026 1026 1026 1026 1026 1026 1026 
1026 1026 1026 1026 1026 1026 1026 1026 1026 
1026 1026 1026 1026 1026 1026 1026 1026 1026 
1026 1026 1026 1026 1026 1026 1026 1026 1026 
1026 1026 1026 1026 1026 1026 1026 1026 1026 
1026 1026 1026 1026 1026 1026 1026 1026 1026 