# vtk DataFile Version 4.2
vtk output
ASCII
DATASET POLYDATA
POINTS 27858 float
4.95081 88.8156 11.3834 5.39495 88.435 11.8908 5.73568 88.508 11.2109 
4.0651 88.811 11.2577 4.636 88.5017 11.9656 3.85019 88.4412 11.6699 
5.29747 88.9166 10.4192 6.00128 88.581 10.4315 4.25553 89.0244 10.5028 
3.40521 88.5782 11.0621 3.3993 88.8186 10.4178 2.9121 88.4418 10.5414 
13.0049 88.8018 9.38195 13.4389 88.4459 9.85064 13.7809 88.5213 9.20001 
12.0538 88.8651 9.38905 12.6132 88.5141 10.0166 11.0499 88.8821 9.37023 
11.6071 88.5293 10.0325 10.0462 88.8898 9.35495 10.5709 88.5341 10.0225 
9.11278 88.8181 9.21748 9.37739 88.3213 9.97664 8.69503 88.3854 9.51731 
6.1215 88.8426 9.45436 6.34036 88.4943 9.99786 6.81171 88.4789 9.47615 
5.14617 89.0227 9.36292 4.29654 89.0442 9.48868 3.40619 88.8906 9.48762 
2.74317 88.5087 9.71257 13.207 88.8939 8.51085 13.8738 88.5389 8.25374 
12.3205 89.0118 8.53704 11.3207 89.0085 8.51349 10.3199 89.0168 8.51255 
9.3236 89.0173 8.48695 8.39605 88.6004 9.09813 8.24652 88.9004 8.47182 
7.05308 88.8692 8.51895 7.63457 88.511 9.01705 6.14778 88.9865 8.33049 
5.2813 89.0172 8.48348 4.26361 89.0293 8.45338 3.38518 88.873 8.45242 
2.7271 88.5201 8.71349 13.212 88.8969 7.48995 13.8454 88.5185 7.23185 
12.3333 89.0359 7.51607 11.3306 89.0167 7.49629 10.3201 88.9922 7.49639 
9.32495 88.9986 7.50062 8.32227 88.9984 7.48402 7.30122 88.9875 7.46673 
6.28378 88.9989 7.45172 5.27047 89.0248 7.46754 4.26161 89.0236 7.4478 
3.37443 88.8768 7.43714 2.71739 88.5063 7.71669 13.1935 88.813 6.54166 
13.6594 88.4666 6.36459 12.3225 89.0141 6.49376 11.2747 89.0333 6.43886 
10.239 89.0067 6.43603 9.23946 88.9914 6.44503 8.24727 88.9955 6.44516 
7.25161 89.0058 6.42677 6.25346 89.0163 6.42377 5.24916 89.0216 6.44071 
4.40279 89.0228 6.5854 3.57328 88.846 6.36691 2.79891 88.5186 6.74929 
13.1487 88.5964 5.85733 12.7055 88.4631 5.25983 12.4644 88.8097 5.71017 
11.3588 88.9238 5.4337 10.254 89.0352 5.41474 9.24404 89.037 5.39673 
8.25066 89.026 5.40137 7.25599 89.0296 5.39012 6.25274 89.0346 5.39195 
5.3932 89.0294 5.55516 4.43658 88.8758 5.44098 3.61725 88.3465 5.34995 
3.06954 88.4668 5.99247 11.9493 88.5308 4.9671 11.1885 88.6239 4.72785 
10.8749 88.3951 4.31799 10.4723 88.8429 4.65915 9.53291 88.9211 4.53869 
8.53523 88.9259 4.51447 7.54373 88.9184 4.51203 6.53318 88.9205 4.5 
5.41434 88.8755 4.60795 4.66385 88.6038 4.51084 4.17901 88.3812 4.78255 
10.1234 88.3145 4.07904 9.03449 88.4322 4.02034 8.02736 88.4261 4.01536 
7.02995 88.4249 4.00355 6.00963 88.4042 3.99363 5.06896 88.2608 4.06155 
12.0212 88.8623 1.43493 12.2365 88.2386 1.84434 12.6423 88.5704 1.28526 
11.068 88.9515 1.41124 11.3551 88.4296 1.93699 10.1149 88.8609 1.26666 
10.3899 88.415 1.85461 9.69703 88.4057 1.61942 12.2346 88.9298 0.521027 
12.8774 88.4554 0.394776 11.3371 89.0935 0.541155 10.3021 89.0636 0.483801 
9.43569 88.6218 1.1048 9.44039 88.8431 0.429872 8.95572 88.4741 0.581487 
12.2207 88.8435 -0.453571 12.7592 88.5357 -0.407524 11.3139 89.0778 -0.515011 
10.2946 89.0791 -0.550914 9.41063 88.8967 -0.530279 8.79806 88.515 -0.279806 
12.4352 88.4322 -1.01085 11.8833 88.5037 -1.82806 11.3693 88.9325 -1.49117 
10.2691 89.0712 -1.59349 9.38899 88.9046 -1.56471 8.7676 88.5266 -1.28681 
11.2764 88.7869 -2.29783 11.5886 88.4319 -2.56383 10.3778 88.9343 -2.54903 
9.41208 88.8872 -2.56903 8.77595 88.5246 -2.30467 15.2781 88.7163 -3.514 
15.5461 88.3431 -3.29467 15.5559 88.6419 -3.49834 15.1442 88.2891 -3.5753 
10.9119 88.5494 -2.96832 10.1495 88.6372 -3.25134 9.67321 88.4461 -3.7601 
9.50929 88.747 -3.33788 8.75808 88.295 -3.44261 15.5173 88.4265 -3.78879 
14.1838 88.2597 -4.22466 14.7153 88.5671 -4.82957 14.0434 88.779 -4.53697 
13.5417 88.7562 -4.71333 13.5143 88.4997 -4.22504 12.9268 88.3061 -4.30692 
9.18847 88.3268 -3.98139 14.157 88.8891 -5.56657 15.0136 88.6682 -5.59377 
13.5479 88.6258 -5.32709 13.1138 88.4485 -4.90354 14.9855 88.8349 -6.45826 
15.5766 88.3421 -6.04818 15.6249 88.2497 -6.84379 14.1233 89.0583 -6.71795 
13.4522 88.6181 -5.93693 13.4407 88.8464 -6.61648 12.9579 88.433 -6.46958 
15.1919 88.6386 -7.17706 14.8869 88.5834 -7.59267 14.5171 88.8784 -7.31771 
13.616 88.8531 -7.43237 12.8525 88.5135 -7.24365 14.3146 88.4091 -8.0045 
13.1932 88.4763 -7.93179 5.11511 87.8175 14.2896 5.42325 87.4405 14.8631 
5.89269 87.5807 14.3525 4.09237 87.7795 14.263 4.63566 87.4775 14.9586 
3.87575 87.4207 14.6835 5.98565 87.8371 13.5546 6.48631 87.464 13.9196 
6.76462 87.4895 13.1709 5.13036 88.0173 13.3883 4.25546 87.9985 13.5047 
3.41515 87.5513 14.0877 3.21235 87.8185 13.378 2.8258 87.4405 13.6381 
6.31268 87.8268 12.6728 6.80139 87.3158 12.1969 5.44889 88.1255 12.5694 
4.25944 88.1491 12.4786 3.26303 88.0026 12.4693 2.39772 87.5669 13.0335 
2.39125 87.7843 12.3893 1.89146 87.4315 12.5108 13.1578 87.8817 11.2746 
13.4926 87.3723 11.9434 13.8665 87.5127 11.3548 12.027 87.8909 11.3614 
12.4318 87.4382 12.0221 11.0501 87.8055 11.2593 11.3773 87.39 11.8082 
10.6886 87.3348 11.5773 6.13207 87.9819 11.7956 6.61401 87.4675 11.288 
3.14523 88.1843 11.4168 2.37369 87.8657 11.4453 1.75706 87.4707 11.6721 
14.0516 87.8281 10.7083 14.3238 87.1925 10.9379 14.5962 87.5192 10.2898 
13.3463 88.1668 10.4109 12.3338 88.1797 10.6479 11.2996 88.1741 10.6577 
10.1693 87.4557 11.1431 10.1634 88.0309 10.6262 9.35538 87.9055 10.4771 
9.48903 87.5438 10.7569 8.87215 87.3562 10.3784 6.42501 88.0858 10.5379 
6.89504 87.3835 10.4893 2.18759 87.9992 10.2897 1.68595 87.4738 10.7429 
14.1848 88.0318 9.81116 14.8991 87.4004 9.39762 7.97232 88.0916 9.42386 
8.38981 87.7148 9.85346 7.16481 87.9723 9.68588 7.55703 87.2999 9.9594 
2.12542 88.1537 9.17411 1.2044 87.3249 10.0727 1.39119 87.7899 9.38346 
0.736277 87.3641 9.43036 14.3884 88.0228 8.77689 14.8801 87.3243 8.20714 
2.23971 88.1763 8.28034 1.59418 87.8357 8.40589 0.741796 87.3186 8.56081 
14.3728 88.0322 7.7545 14.6707 87.5164 7.31277 2.12981 88.0126 7.34465 
1.57746 87.5687 7.53994 1.17569 87.3686 7.90556 14.2072 88.0387 6.5866 
14.6788 87.3979 6.45856 2.41703 88.0298 6.13667 1.72982 87.4213 6.52009 
14.1853 87.8507 5.52411 14.7511 87.3703 5.68458 13.4242 88.2208 5.47259 
2.99427 88.1011 5.5428 2.51194 87.7672 5.40002 2.01686 87.5168 5.64467 
14.4385 87.4472 4.91585 13.9115 87.4232 4.28234 13.5298 87.8677 4.64762 
12.5807 88.0402 4.57565 11.6028 88.1216 4.38911 4.43617 88.0997 4.29796 
3.92249 87.7192 4.59217 3.10396 87.3968 4.98184 2.28223 87.2729 5.17885 
13.1331 87.3171 4.06209 12.06 87.4076 4.04685 11.029 87.5819 4.02065 
10.1615 87.3746 3.92023 9.3188 87.5362 3.90592 8.30993 87.5433 3.90267 
7.30438 87.5255 3.90474 6.29079 87.524 3.88706 5.274 87.4788 3.901 
4.43998 87.4429 4.10881 12.368 87.2343 1.91746 12.9511 87.8658 1.37031 
11.5174 87.6917 2.05902 10.4641 87.42 2.15415 8.9317 88.0866 1.35338 
9.33215 87.5918 1.95532 8.23244 87.7591 1.3054 8.30309 87.371 1.84879 
7.73679 87.3223 1.55098 13.32 87.8611 0.612086 13.443 87.3698 1.12878 
13.6373 87.3241 0.445657 8.38641 88.0262 0.379342 7.75634 87.4964 0.769703 
13.2022 88.0004 -0.27043 13.6344 87.15 -0.600616 8.12589 88.0087 -0.837844 
7.73736 87.4997 -0.221773 13.0458 87.678 -1.0711 12.4581 88.0009 -1.51249 
12.8468 87.4564 -1.83972 8.16734 88.1732 -1.82466 7.2644 87.3031 -0.929607 
7.24966 87.8069 -1.6692 6.73766 87.2892 -1.46387 12.1504 87.9608 -2.41707 
12.7437 87.3962 -2.79405 8.18478 88.1367 -2.78881 7.33659 88.0241 -2.53255 
6.25778 87.2886 -1.91063 6.26953 87.8319 -2.62797 5.73543 87.358 -2.45563 
16.0367 88.1098 -3.53034 16.2441 87.4369 -3.20613 16.5126 87.2686 -3.62126 
15.502 87.4764 -3.0214 14.8286 87.5772 -3.5422 12.3123 87.8496 -3.6631 
12.8378 87.4192 -3.44864 11.3287 88.0995 -3.44253 10.332 88.2311 -3.69428 
8.18091 87.9519 -3.43109 7.4098 87.8626 -3.47665 6.31607 88.0126 -3.49448 
5.46607 87.5801 -2.97721 5.24694 87.8753 -3.65309 4.87467 87.4773 -3.39535 
16.0686 87.6867 -4.02262 15.222 88.0458 -4.36913 16.038 87.3713 -4.6035 
14.3295 87.6561 -3.95859 13.3568 87.7146 -3.86644 12.4744 88.0984 -4.71553 
11.612 87.8243 -4.57244 10.5901 87.8247 -4.38699 9.61357 87.9112 -4.38721 
8.82286 87.7087 -4.36817 8.04063 87.5536 -4.01843 7.18235 87.4959 -4.13098 
6.82986 87.4306 -4.79006 6.33536 87.872 -4.42246 5.27152 88.0526 -4.50319 
4.34831 87.6138 -3.8824 4.27793 87.9002 -4.43012 3.5293 87.7614 -4.75953 
3.37552 87.3472 -4.02649 2.84077 87.3745 -4.45444 16.0413 87.7884 -5.49195 
16.3605 87.1199 -5.08697 16.5749 87.228 -5.63162 15.3492 88.3253 -5.28682 
12.9417 88.2405 -5.64007 12.194 87.8156 -5.525 11.6778 87.4777 -5.43322 
10.9946 87.4095 -5.11856 10.0272 87.3832 -5.03814 9.19686 87.3335 -4.91531 
6.23649 87.8954 -5.60106 6.9028 87.5064 -5.56948 5.25727 88.0497 -5.48406 
4.26203 87.9285 -5.40321 3.58943 87.6308 -5.41908 3.08785 87.4907 -4.93743 
16.4165 87.3873 -5.97168 16.0569 87.5334 -6.40348 12.2389 87.96 -6.68734 
11.7662 87.4092 -6.19352 7.04422 87.874 -6.59537 7.40141 87.364 -6.07302 
7.81728 87.5469 -6.70309 6.10458 88.0607 -6.68837 5.23904 88.087 -6.51943 
4.16478 87.9213 -6.59688 3.59628 87.3055 -6.53874 15.3024 88.1884 -7.55054 
15.6705 87.3778 -7.24471 12.2783 88.157 -7.89618 11.4059 87.4919 -6.85811 
11.1452 87.88 -7.56789 9.97756 87.8776 -7.69427 10.5567 87.4268 -7.03229 
8.98894 87.9079 -7.71567 9.55067 87.4424 -7.05147 7.97109 87.9427 -7.51777 
8.58512 87.479 -6.98796 7.26871 88.0679 -7.5548 6.55032 87.9554 -7.62763 
5.36202 87.9563 -7.5786 4.41052 88.0536 -7.41436 3.35874 87.5568 -7.18157 
3.52131 87.7744 -7.70478 3.06302 87.4891 -7.61348 15.1296 87.6903 -8.02236 
14.4527 87.8417 -8.54417 14.7633 87.1118 -8.48567 13.3007 88.03 -8.63623 
12.1346 88.0612 -8.81368 11.2431 88.0531 -8.59519 10.3795 88.0522 -8.38333 
9.5016 87.952 -8.63282 8.47923 87.9366 -8.45807 7.43867 87.8971 -8.3606 
6.75682 87.5455 -8.45196 6.0542 87.3009 -8.11334 5.08603 87.3729 -8.19751 
4.52344 87.3396 -8.59676 4.35033 87.791 -8.31068 3.6901 87.4867 -8.37363 
3.1673 87.4772 -7.93137 14.129 87.4612 -8.858 13.2806 87.1947 -8.98489 
12.5561 87.3845 -9.52113 12.5082 87.8328 -9.35946 11.5559 87.9331 -9.45826 
[...]
CELL_DATA 55792
SCALARS scalars float
LOOKUP_TABLE default
2028 2028 2028 2028 2028 2028 2028 2028 2028 
2028 2028 2028 2028 2028 2028 2028 2028 2028 
2028 2028 2028 2028 2028 2028 2028 2028 2028 
2028 2028 2028 2028 2028 2028 2028 2028 2028 
2028 2028 2028 2028 2028 2028 2028 2028 2028 
2028 2028 2028 2028 2028 2028 2028 2028 2028 
2028 2028 2028 2028 2028 2028 2028 2028 2028 
2028 2028 2028 2028 2028 2028 2028 2028 2028 
2028 2028 2028 2028 2028 2028 2028 2028 2028 
2028 2028 2028 2028 2028 2028 2028 2028 2028 
2028 2028 2028 2028 2028 2028 2028 2028 2028 
2028 2028 2028 2028 2028 2028 2028 2028 2028 
2028 2028 2028 2028 2028 2028 2028 2028 2028 
2028 2028 2028 2028 2028 2028 2028 2028 2028 
2028 2028 2028 2028 2028 2028 2028 2028 2028 
2028 2028 2028 2028 2028 2028 2028 2028 2028 
2028 2028 2028 2028 2028 2028 2028 2028 2028 
2028 2028 2028 2028 2028 2028 2028 2028 2028 
2028 2028 2028 2028 2028 2028 2028 2028 2028 
2028 2028 2028 2028 2028 2028 2028 2028 2028 
2028 2028 2028 2028 2028 2028 2028 2028 2028 
2028 2028 2028 2028 2028 2028 2028 2028 2028 
2028 2028 2028 2028 2028 2028 2028 2028 2028 
2028 2028 2028 2028 2028 2028 2028 2028 2028 
2028 2028 2028 2028 2028 2028 2028 2028 2028 
2028 2028 2028 2028 2028 2028 2028 2028 2028 
2028 2028 2028 2028 2028 2028 2028 2028 2028 
2028 2028 2028 2028 2028 2028 2028 2028 2028 
2028 2028 2028 2028 2028 2028 2028 2028 2028 
2028 2028 2028 2028 2028 2028 2028 2028 2028 
2028 2028 2028 2028 2028 2028 2028 2028 2028 
2028 2028 2028 2028 2028 2028 2028 2028 2028 
2028 2028 2028 2028 2028 2028 2028 2028 2028 
2028 2028 2028 2028 2028 2028 2028 2028 2028 
2028 2028 2028 2028 2028 2028 2028 2028 2028 
2028 2028 2028 2028 2028 2028 2028 2028 2028 
2028 2028 2028 2028 2028 2028 2028 2028 2028 
2028 2028 2028 2028 2028 2028 2028 2028 2028 
2028 2028 2028 2028 2028 2028 2028 2028 2028 
2028 2028 2028 2028 2028 2028 2028 2028 2028 
2028 2028 2028 2028 2028 2028 2028 2028 2028 
2028 2028 2028 2028 2028 2028 2028 2028 2028 
2028 2028 2028 2028 2028 2028 2028 2028 2028 
2028 2028 2028 2028 2028 2028 2028 2028 2028 
2028 2028 2028 2028 2028 2028 2028 2028 2028 
2028 2028 2028 2028 2028 2028 2028 2028 2028 
2028 2028 2028 2028 2028 2028 2028 2028 2028 
2028 2028 2028 2028 2028 2028 2028 2028 2028 
2028 2028 2028 2028 2028 2028 2028 2028 2028 
2028 2028 2028 2028 2028 2028 2028 2028 2028 
2028 2028 2028 2028 2028 2028 2028 2028 2028 
2028 2028 2028 2028 2028 2028 2028 2028 2028 
2028 2028 2028 2028 2028 2028 2028 2028 2028 
2028 2028 2028 2028 2028 2028 2028 2028 2028 
2028 2028 2028 2028 2028 2028 2028 2028 2028 
2028 2028 2028 2028 2028 2028 2028 2028 2028 
2028 2028 2028 2028 2028 2028 2028 2028 2028 
2028 2028 2028 2028 2028 2028 2028 2028 2028 
2028 2028 2028 2028 2028 2028 2028 2028 2028 
2028 2028 2028 2028 2028 2028 2028 2028 2028 
2028 2028 2028 2028 2028 2028 2028 2028 2028 
2028 2028 2028 2028 2028 2028 2028 2028 2028 
2028 2028 2028 2028 2028 2028 2028 2028 2028 
2028 2028 2028 2028 2028 2028 2028 2028 2028 
2028 2028 2028 2028 2028 2028 2028 2028 2028 
2028 2028 2028 2028 2028 2028 2028 2028 2028 
2028 2028 2028 2028 2028 2028 2028 2028 2028 
2028 2028 2028 2028 2028 2028 2028 2028 2028 
2028 2028 2028 2028 2028 2028 2028 2028 2028 
2028 2028 2028 2028 2028 2028 2028 2028 2028 
2028 2028 2028 2028 2028 2028 2028 2028 2028 
2028 2028 2028 2028 2028 2028 2028 2028 2028 
2028 2028 2028 2028 2028 2028 2028 2028 2028 
2028 2028 2028 2028 2028 2028 2028 2028 2028 
2028 2028 2028 2028 2028 2028 2028 2028 2028 
2028 2028 2028 2028 2028 2028 2028 2028 2028 
2028 2028 2028 2028 2028 2028 2028 2028 2028 
2028 2028 2028 2028 2028 2028 2028 2028 2028 
2028 2028 2028 2028 2028 2028 2028 2028 2028 
2028 2028 2028 2028 2028 2028 2028 2028 2028 
2028 2028 2028 2028 2028 2028 2028 2028 2028 
2028 2028 2028 2028 2028 2028 2028 2028 2028 
2028 2028 2028 2028 2028 2028 2028 2028 2028 
2028 2028 2028 2028 2028 2028 2028 2028 2028 
2028 2028 2028 2028 2028 2028 2028 2028 2028 
2028 2028 2028 2028 2028 2028 2028 2028 2028 
2028 2028 2028 2028 2028 2028 2028 2028 2028 
2028 2028 2028 2028 2028 2028 2028 2028 2028 
2028 2028 2028 2028 2028 2028 2028 2028 2028 
2028 2028 2028 2028 2028 2028 2028 2028 2028 
2028 2028 2028 2028 2028 2028 2028 2028 2028 
2028 2028 2028 2028 2028 2028 2028 2028 2028 
2028 2028 2028 2028 2028 2028 2028 2028 2028 
2028 2028 2028 2028 2028 2028 2028 2028 2028 
2028 2028 2028 2028 2028 2028 2028 2028 2028 
2028 2028 2028 2028 2028 2028 2028 2028 2028 
2028 2028 2028 2028 2028 2028 2028 2028 2028 
2028 2028 2028 2028 2028 2028 2028 2028 2028 
2028 2028 2028 2028 2028 2028 2028 2028 2028 
2028 2028 2028 2028 2028 2028 2028 2028 2028 
2028 2028 2028 2028 2028 2028 2028 2028 2028 
2028 2028 2028 2028 2028 2028 2028 2028 2028 
2028 2028 2028 2028 2028 2028 2028 2028 2028 
2028 2028 2028 2028 2028 2028 2028 2028 2028 
2028 2028 2028 2028 2028 2028 2028 2028 2028 
2028 2028 2028 2028 2028 2028 2028 2028 2028 
2028 2028 2028 2028 2028 2028 2028 2028 2028 
2028 2028 2028 2028 2028 2028 2028 2028 2028 
2028 2028 2028 2028 2028 2028 2028 2028 2028 
2028 2028 2028 2028 2028 2028 2028 2028 2028 
2028 2028 2028 2028 2028 2028 2028 2028 2028 
2028 2028 2028 2028 2028 2028 2028 2028 2028 
2028 2028 2028 2028 2028 2028 2028 2028 2028 
2028 2028 2028 2028 2028 2028 2028 2028 2028 
2028 2028 2028 2028 2028 2028 2028 2028 2028 
2028 2028 2028 2028 2028 2028 2028 2028 2028 
2028 2028 2028 2028 2028 2028 2028 2028 2028 
2028 2028 2028 2028 2028 2028 2028 2028 2028 
2028 2028 2028 2028 2028 2028 2028 2028 2028 
2028 2028 2028 2028 2028 2028 2028 2028 2028 
2028 2028 2028 2028 2028 2028 2028 2028 2028 
2028 2028 2028 2028 2028 2028 2028 2028 2028 
2028 2028 2028 2028 2028 2028 2028 2028 2028 
2028 2028 2028 2028 2028 2028 2028 2028 2028 
2028 2028 2028 2028 2028 2028 2028 2028 2028 
2028 2028 2028 2028 2028 2028 2028 2028 2028 
2028 2028 2028 2028 2028 2028 2028 2028 2028 
2028 2028 2028 2028 2028 2028 2028 2028 2028 
2028 2028 2028 2028 2028 2028 2028 2028 2028 
2028 2028 2028 2028 2028 2028 2028 2028 2028 
2028 2028 2028 2028 2028 2028 2028 2028 2028 
2028 2028 2028 2028 2028 2028 2028 2028 2028 
2028 2028 2028 2028 2028 2028 2028 2028 2028 
2028 2028 2028 2028 2028 2028 2028 2028 2028 
2028 2028 2028 2028 2028 2028 2028 2028 2028 
2028 2028 2028 2028 2028 2028 2028 2028 2028 
2028 2028 2028 2028 2028 2028 2028 2028 2028 
2028 2028 2028 2028 2028 2028 2028 2028 2028 
2028 2028 2028 2028 2028 2028 2028 2028 2028 
2028 2028 2028 2028 2028 2028 2028 2028 2028 
2028 2028 2028 2028 2028 2028 2028 2028 2028 
2028 2028 2028 2028 2028 2028 2028 2028 2028 
2028 2028 2028 2028 2028 2028 2028 2028 2028 
2028 2028 2028 2028 2028 2028 2028 2028 2028 
2028 2028 2028 2028 2028 2028 2028 2028 2028 
2028 2028 2028 2028 2028 2028 2028 2028 2028 
2028 2028 2028 2028 2028 2028 2028 2028 2028 
2028 2028 2028 2028 2028 2028 2028 2028 2028 
2028 2028 2028 2028 2028 2028 2028 2028 2028 
2028 2028 2028 2028 2028 2028 2028 2028 2028 
2028 2028 2028 2028 2028 2028 2028 2028 2028 
2028 2028 2028 2028 2028 2028 2028 2028 2028 
2028 2028 2028 2028 2028 2028 2028 2028 2028 
2028 2028 2028 2028 2028 2028 2028 2028 2028 
2028 2028 2028 2028 2028 2028 2028 2028 2028 
2028 2028 2028 2028 2028 2028 2028 2028 2028 
2028 2028 2028 2028 2028 2028 2028 2028 2028 
2028 2028 2028 2028 2028 2028 2028 2028 2028 
2028 2028 2028 2028 2028 2028 2028 2028 2028 
2028 2028 2028 2028 2028 2028 2028 2028 2028 
2028 2028 2028 2028 2028 2028 2028 2028 2028 
2028 2028 2028 2028 2028 2028 2028 2028 2028 
2028 2028 2028 2028 2028 2028 2028 2028 2028 
2028 2028 2028 2028 2028 2028 2028 2028 2028 
2028 2028 2028 2028 2028 2028 2028 2028 2028 
2028 2028 2028 2028 2028 2028 2028 2028 2028 
2028 2028 2028 2028 2028 2028 2028 2028 2028 
2028 2028 2028 2028 2028 2028 2028 2028 2028 
2028 2028 2028 2028 2028 2028 2028 2028 2028 
2028 2028 2028 2028 2028 2028 2028 2028 2028 
2028 2028 2028 2028 2028 2028 2028 2028 2028 
2028 2028 2028 2028 2028 2028 2028 2028 2028 
2028 2028 2028 2028 2028 2028 2028 2028 2028 
2028 2028 2028 2028 2028 2028 2028 2028 2028 
2028 2028 2028 2028 2028 2028 2028 2028 2028 
2028 2028 2028 2028 2028 2028 2028 2028 2028 
2028 2028 2028 2028 2028 2028 2028 2028 2028 
2028 2028 2028 2028 2028 2028 2028 2028 2028 
2028 2028 2028 2028 2028 2028 2028 2028 2028 
2028 2028 2028 2028 2028 2028 2028 2028 2028 
2028 2028 2028 2028 2028 2028 2028 2028 2028 
2028 2028 2028 2028 2028 2028 2028 2028 2028 
2028 2028 2028 2028 2028 2028 2028 2028 2028 
2028 2028 2028 2028 2028 2028 2028 2028 2028 
2028 2028 2028 2028 2028 2028 2028 2028 2028 
2028 2028 2028 2028 2028 2028 2028 2028 2028 
2028 2028 2028 2028 2028 2028 2028 2028 2028 
2028 2028 2028 2028 2028 2028 2028 2028 2028 
2028 2028 2028 2028 2028 2028 2028 2028 2028 
2028 2028 2028 2028 2028 2028 2028 2028 2028 
2028 2028 2028 2028 2028 2028 2028 2028 2028 
2028 2028 2028 2028 2028 2028 2028 2028 2028 
2028 2028 2028 2028 2028 2028 2028 2028 2028 
2028 2028 2028 2028 2028 2028 2028 2028 2028 
2028 2028 2028 2028 2028 2028 2028 2028 2028 
2028 2028 2028 2028 2028 2028 2028 2028 2028 
2028 2028 2028 2028 2028 2028 2028 2028 2028 
2028 2028 2028 2028 2028 2028 2028 2028 2028 
2028 2028 2028 2028 2028 2028 2028 2028 2028 
2028 2028 2028 2028 2028 2028 2028 2028 2028 
2028 2028 2028 2028 2028 2028 2028 2028 2028 
2028 2028 2028 2028 2028 2028 2028 2028 2028 
2028 2028 2028 2028 2028 2028 2028 2028 2028 
2028 2028 2028 2028 2028 2028 2028 2028 2028 
2028 2028 2028 2028 2028 2028 2028 2028 2028 
2028 2028 2028 2028 2028 2028 2028 2028 2028 
2028 2028 2028 2028 2028 2028 2028 2028 2028 
2028 2028 2028 2028 2028 2028 2028 2028 2028 
2028 2028 2028 2028 2028 2028 2028 2028 2028 
2028 2028 2028 2028 2028 2028 2028 2028 2028 
2028 2028 2028 2028 2028 2028 2028 2028 2028 
2028 2028 2028 2028 2028 2028 2028 2028 2028 
2028 2028 2028 2028 2028 2028 2028 2028 2028 
2028 2028 2028 2028 2028 2028 2028 2028 2028 
2028 2028 2028 2028 2028 2028 2028 2028 2028 
2028 2028 2028 2028 2028 2028 2028 2028 2028 
2028 2028 2028 2028 2028 2028 2028 2028 2028 
2028 2028 2028 2028 2028 2028 2028 2028 2028 
2028 2028 2028 2028 2028 2028 2028 2028 2028 
2028 2028 2028 2028 2028 2028 2028 2028 2028 
2028 2028 2028 2028 2028 2028 2028 2028 2028 
2028 2028 2028 2028 2028 2028 2028 2028 2028 
2028 2028 2028 2028 2028 2028 2028 2028 2028 
2028 2028 2028 2028 2028 2028 2028 2028 2028 
2028 2028 2028 2028 2028 2028 2028 2028 2028 
2028 2028 2028 2028 2028 2028 2028 2028 2028 
2028 2028 2028 2028 2028 2028 2028 2028 2028 
2028 2028 2028 2028 2028 2028 2028 2028 2028 
2028 2028 2028 2028 2028 2028 2028 2028 2028 
2028 2028 2028 2028 2028 2028 2028 2028 2028 
2028 2028 2028 2028 2028 2028 2028 2028 2028 
2028 2028 2028 2028 2028 2028 2028 2028 2028 
2028 2028 2028 2028 2028 2028 2028 2028 2028 
2028 2028 2028 2028 2028 2028 2028 2028 2028 
2028 2028 2028 2028 2028 2028 2028 2028 2028 
2028 2028 2028 2028 2028 2028 2028 2028 2028 
2028 2028 2028 2028 2028 2028 2028 2028 2028 
2028 2028 2028 2028 2028 2028 2028 2028 2028 
2028 2028 2028 2028 2028 2028 2028 2028 2028 
2028 2028 2028 2028 2028 2028 2028 2028 2028 
2028 2028 2028 2028 2028 2028 2028 2028 2028 
2028 2028 2028 2028 2028 2028 2028 2028 2028 
2028 2028 2028 2028 2028 2028 2028 2028 2028 
2028 2028 2028 2028 2028 2028 2028 2028 2028 
2028 2028 2028 2028 2028 2028 2028 2028 2028 
2028 2028 2028 2028 2028 2028 2028 2028 2028 
2028 2028 2028 2028 2028 2028 2028 2028 2028 
2028 2028 2028 2028 2028 2028 2028 2028 2028 
2028 2028 2028 2028 2028 2028 2028 2028 2028 
2028 2028 2028 2028 2028 2028 2028 2028 2028 
2028 2028 2028 2028 2028 2028 2028 2028 2028 
2028 2028 2028 2028 2028 2028 2028 2028 2028 
2028 2028 2028 2028 2028 2028 2028 2028 2028 
2028 2028 2028 2028 2028 2028 2028 2028 2028 
2028 2028 2028 2028 2028 2028 2028 2028 2028 
2028 2028 2028 2028 2028 2028 2028 2028 2028 
2028 2028 2028 2028 2028 2028 2028 2028 2028 
2028 2028 2028 2028 2028 2028 2028 2028 2028 
2028 2028 2028 2028 2028 2028 2028 2028 2028 
2028 2028 2028 2028 2028 2028 2028 2028 2028 
2028 2028 2028 2028 2028 2028 2028 2028 2028 
2028 2028 2028 2028 2028 2028 2028 2028 2028 
2028 2028 2028 2028 2028 2028 2028 2028 2028 
2028 2028 2028 2028 2028 2028 2028 2028 2028 
2028 2028 2028 2028 2028 2028 2028 2028 2028 
2028 2028 2028 2028 2028 2028 2028 2028 2028 
2028 2028 2028 2028 2028 2028 2028 2028 2028 
2028 2028 2028 2028 2028 2028 2028 2028 2028 
2028 2028 2028 2028 2028 2028 2028 2028 2028 
2028 2028 2028 2028 2028 2028 2028 2028 2028 
2028 2028 2028 2028 2028 2028 2028 2028 2028 
2028 2028 2028 2028 2028 2028 2028 2028 2028 
2028 2028 2028 2028 2028 2028 2028 2028 2028 
2028 2028 2028 2028 2028 2028 2028 2028 2028 
2028 2028 2028 2028 2028 2028 2028 2028 2028 
2028 2028 2028 2028 2028 2028 2028 2028 2028 
2028 2028 2028 2028 2028 2028 2028 2028 2028 
2028 2028 2028 2028 2028 2028 2028 2028 2028 
2028 2028 2028 2028 2028 2028 2028 2028 2028 
2028 2028 2028 2028 2028 2028 2028 2028 2028 
2028 2028 2028 2028 2028 2028 2028 2028 2028 
2028 2028 2028 2028 2028 2028 2028 2028 2028 
2028 2028 2028 2028 2028 2028 2028 2028 2028 
2028 2028 2028 2028 2028 2028 2028 2028 2028 
2028 2028 2028 2028 2028 2028 2028 2028 2028 
2028 2028 2028 2028 2028 2028 2028 2028 2028 
2028 2028 2028 2028 2028 2028 2028 2028 2028 
2028 2028 2028 2028 2028 2028 2028 2028 2028 
2028 2028 2028 2028 2028 2028 2028 2028 2028 
2028 2028 2028 2028 2028 2028 2028 2028 2028 
2028 2028 2028 2028 2028 2028 2028 2028 2028 
2028 2028 2028 2028 2028 2028 2028 2028 2028 
2028 2028 2028 2028 2028 2028 2028 2028 2028 
2028 2028 2028 2028 2028 2028 2028 2028 2028 
2028 2028 2028 2028 2028 2028 2028 2028 2028 
2028 2028 2028 2028 2028 2028 2028 2028 2028 
2028 2028 2028 2028 2028 2028 2028 2028 2028 
2028 2028 2028 2028 2028 2028 2028 2028 2028 
2028 2028 2028 2028 2028 2028 2028 2028 2028 
2028 2028 2028 2028 2028 2028 2028 2028 2028 
2028 2028 2028 2028 2028 2028 2028 2028 2028 
2028 2028 2028 2028 2028 2028 2028 2028 2028 
2028 2028 2028 2028 2028 2028 2028 2028 2028 
2028 2028 2028 2028 2028 2028 2028 2028 2028 
2028 2028 2028 2028 2028 2028 2028 2028 2028 
2028 2028 2028 2028 2028 2028 2028 2028 2028 
2028 2028 2028 2028 2028 2028 2028 2028 2028 
2028 2028 2028 2028 2028 2028 2028 2028 2028 
2028 2028 2028 2028 2028 2028 2028 2028 2028 
2028 2028 2028 2028 2028 2028 2028 2028 2028 
2028 2028 2028 2028 2028 2028 2028 2028 2028 
2028 2028 2028 2028 2028 2028 2028 2028 2028 
2028 2028 2028 2028 2028 2028 2028 2028 2028 
2028 2028 2028 2028 2028 2028 2028 2028 2028 
2028 2028 2028 2028 2028 2028 2028 2028 2028 
2028 2028 2028 2028 2028 2028 2028 2028 2028 
2028 2028 2028 2028 2028 2028 2028 2028 2028 
2028 2028 2028 2028 2028 2028 2028 2028 2028 
2028 2028 2028 2028 2028 2028 2028 2028 2028 
2028 2028 2028 2028 2028 2028 2028 2028 2028 
2028 2028 2028 2028 2028 2028 2028 2028 2028 
2028 2028 2028 2028 2028 2028 2028 2028 2028 
2028 2028 2028 2028 2028 2028 2028 2028 2028 
2028 2028 2028 2028 2028 2028 2028 2028 2028 
2028 2028 2028 2028 2028 2028 2028 2028 2028 
2028 2028 2028 2028 2028 2028 2028 2028 2028 
2028 2028 2028 2028 2028 2028 2028 2028 2028 
2028 2028 2028 2028 2028 2028 2028 2028 2028 
2028 2028 2028 2028 2028 2028 2028 2028 2028 
2028 2028 2028 2028 2028 2028 2028 2028 2028 
2028 2028 2028 2028 2028 2028 2028 2028 2028 
2028 2028 2028 2028 2028 2028 2028 2028 2028 
2028 2028 2028 2028 2028 2028 2028 2028 2028 
2028 2028 2028 2028 2028 2028 2028 2028 2028 
2028 2028 2028 2028 2028 2028 2028 2028 2028 
2028 2028 2028 2028 2028 2028 2028 2028 2028 
2028 2028 2028 2028 2028 2028 2028 2028 2028 
2028 2028 2028 2028 2028 2028 2028 2028 2028 
2028 2028 2028 2028 2028 2028 2028 2028 2028 
2028 2028 2028 2028 2028 2028 2028 2028 2028 
2028 2028 2028 2028 2028 2028 2028 2028 2028 
2028 2028 2028 2028 2028 2028 2028 2028 2028 
2028 2028 2028 2028 2028 2028 2028 2028 2028 
2028 2028 2028 2028 2028 2028 2028 2028 2028 
2028 2028 2028 2028 2028 2028 2028 2028 2028 
2028 2028 2028 2028 2028 2028 2028 2028 2028 
2028 2028 2028 2028 2028 2028 2028 2028 2028 
2028 2028 2028 2028 2028 2028 2028 2028 2028 
2028 2028 2028 2028 2028 2028 2028 2028 2028 
2028 2028 2028 2028 2028 2028 2028 2028 2028 
2028 2028 2028 2028 2028 2028 2028 2028 2028 
2028 2028 2028 2028 2028 2028 2028 2028 2028 
2028 2028 2028 2028 2028 2028 2028 2028 2028 
2028 2028 2028 2028 2028 2028 2028 2028 2028 
2028 2028 2028 2028 2028 2028 2028 2028 2028 
2028 2028 2028 2028 2028 2028 2028 2028 2028 
2028 2028 2028 2028 2028 2028 2028 2028 2028 
2028 2028 2028 2028 2028 2028 2028 2028 2028 
2028 2028 2028 2028 2028 2028 2028 2028 2028 
2028 2028 2028 2028 2028 2028 2028 2028 2028 
2028 2028 2028 2028 2028 2028 2028 2028 2028 
2028 2028 2028 2028 2028 2028 2028 2028 2028 
2028 2028 2028 2028 2028 2028 2028 2028 2028 
2028 2028 2028 2028 2028 2028 2028 2028 2028 
2028 2028 2028 2028 2028 2028 2028 2028 2028 
2028 2028 2028 2028 2028 2028 2028 2028 2028 
2028 2028 2028 2028 2028 2028 2028 2028 2028 
2028 2028 2028 2028 2028 2028 2028 2028 2028 
2028 2028 2028 2028 2028 2028 2028 2028 2028 
2028 2028 2028 2028 2028 2028 2028 2028 2028 
2028 2028 2028 2028 2028 2028 2028 2028 2028 
2028 2028 2028 2028 2028 2028 2028 2028 2028 
2028 2028 2028 2028 2028 2028 2028 2028 2028 
2028 2028 2028 2028 2028 2028 2028 2028 2028 
2028 2028 2028 2028 2028 2028 2028 2028 2028 
2028 2028 2028 2028 2028 2028 2028 2028 2028 
2028 2028 2028 2028 2028 2028 2028 2028 2028 
2028 2028 2028 2028 2028 2028 2028 2028 2028 
2028 2028 2028 2028 2028 2028 2028 2028 2028 
2028 2028 2028 2028 2028 2028 2028 2028 2028 
2028 2028 2028 2028 2028 2028 2028 2028 2028 
2028 2028 2028 2028 2028 2028 2028 2028 2028 
2028 2028 2028 2028 2028 2028 2028 2028 2028 
2028 2028 2028 2028 2028 2028 2028 2028 2028 
2028 2028 2028 2028 2028 2028 2028 2028 2028 
2028 2028 2028 2028 2028 2028 2028 2028 2028 
2028 2028 2028 2028 2028 2028 2028 2028 2028 
2028 2028 2028 2028 2028 2028 2028 2028 2028 
2028 2028 2028 2028 2028 2028 2028 2028 2028 
2028 2028 2028 2028 2028 2028 2028 2028 2028 
2028 2028 2028 2028 2028 2028 2028 2028 2028 
2028 2028 2028 2028 2028 2028 2028 2028 2028 
2028 2028 2028 2028 2028 2028 2028 2028 2028 
2028 2028 2028 2028 2028 2028 2028 2028 2028 
2028 2028 2028 2028 2028 2028 2028 2028 2028 
2028 2028 2028 2028 2028 2028 2028 2028 2028 
2028 2028 2028 2028 2028 2028 2028 2028 2028 
2028 2028 2028 2028 2028 2028 2028 2028 2028 
2028 2028 2028 2028 2028 2028 2028 2028 2028 
2028 2028 2028 2028 2028 2028 2028 2028 2028 
2028 2028 2028 2028 2028 2028 2028 2028 2028 
2028 2028 2028 2028 2028 2028 2028 2028 2028 
2028 2028 2028 2028 2028 2028 2028 2028 2028 
2028 2028 2028 2028 2028 2028 2028 2028 2028 
2028 2028 2028 2028 2028 2028 2028 2028 2028 
2028 2028 2028 2028 2028 2028 2028 2028 2028 
2028 2028 2028 2028 2028 2028 2028 2028 2028 
2028 2028 2028 2028 2028 2028 2028 2028 2028 
2028 2028 2028 2028 2028 2028 2028 2028 2028 
2028 2028 2028 2028 2028 2028 2028 2028 2028 
2028 2028 2028 2028 2028 2028 2028 2028 2028 
2028 2028 2028 2028 2028 2028 2028 2028 2028 
2028 2028 2028 2028 2028 2028 2028 2028 2028 
2028 2028 2028 2028 2028 2028 2028 2028 2028 
2028 2028 2028 2028 2028 2028 2028 2028 2028 
2028 2028 2028 2028 2028 2028 2028 2028 2028 
2028 2028 2028 2028 2028 2028 2028 2028 2028 
2028 2028 2028 2028 2028 2028 2028 2028 2028 
2028 2028 2028 2028 2028 2028 2028 2028 2028 
2028 2028 2028 2028 2028 2028 2028 2028 2028 
2028 2028 2028 2028 2028 2028 2028 2028 2028 
2028 2028 2028 2028 2028 2028 2028 2028 2028 
2028 2028 2028 2028 2028 2028 2028 2028 2028 
2028 2028 2028 2028 2028 2028 2028 2028 2028 
2028 2028 2028 2028 2028 2028 2028 2028 2028 
2028 2028 2028 2028 2028 2028 2028 2028 2028 
2028 2028 2028 2028 2028 2028 2028 2028 2028 
2028 2028 2028 2028 2028 2028 2028 2028 2028 
2028 2028 2028 2028 2028 2028 2028 2028 2028 
2028 2028 2028 2028 2028 2028 2028 2028 2028 
2028 2028 2028 2028 2028 2028 2028 2028 2028 
2028 2028 2028 2028 2028 2028 2028 2028 2028 
2028 2028 2028 2028 2028 2028 2028 2028 2028 