# vtk DataFile Version 4.2
vtk output
ASCII
DATASET POLYDATA
POINTS 10902 float
-14.9218 75.8472 -23.5121 -14.741 75.3705 -23.1297 -14.2633 75.5762 -23.8441 
-15.4689 75.8063 -23.7776 -15.6268 75.4349 -23.2169 -16.2384 75.2213 -23.6457 
-11.9451 75.7805 -24.744 -11.7088 75.5052 -24.3603 -11.4642 75.5024 -24.7964 
-11.9674 75.3517 -24.5467 -14.778 75.8293 -24.2112 -14.3365 75.4889 -24.672 
-15.3251 75.3906 -24.6163 -15.8047 75.4285 -24.1374 -11.6976 75.8206 -25.2546 
-11.3856 75.4853 -25.3804 -12.4465 75.4053 -25.0215 -12.3761 75.7891 -25.4551 
-13.0773 75.3682 -25.3958 -14.7862 75.4106 -24.9872 -11.8031 75.3223 -26.0009 
-12.9539 75.2944 -25.9109 -14.5915 74.7323 -21.8154 -14.5121 74.1859 -21.2144 
-13.9776 74.3232 -21.8217 -15.1688 74.3585 -21.4786 -13.9199 74.8374 -22.2917 
-13.6729 74.5405 -22.1962 -13.4575 74.4778 -22.8103 -14.599 74.9612 -22.5619 
-15.2817 74.5229 -22.1587 -13.8432 75.0266 -23.2366 -13.3367 74.4864 -23.7028 
-15.4899 74.8167 -22.7946 -16.7631 74.7939 -23.5043 -16.4126 74.7115 -23.0744 
-17.0752 74.2472 -23.3522 -11.6051 75.1218 -24.6242 -13.6358 75.0332 -24.6402 
-13.12 74.3121 -24.3334 -15.7284 75.0597 -24.5513 -16.1094 74.7557 -24.3261 
-16.7305 74.3351 -23.9244 -11.8112 74.7023 -24.9475 -11.1735 74.9094 -25.4586 
-12.7301 74.6548 -24.903 -13.6512 75.1312 -25.6227 -14.3714 74.9797 -25.4655 
-15.0801 74.7037 -25.4204 -15.6721 74.3621 -24.9727 -9.6644 74.8528 -26.7135 
-9.46213 74.2524 -26.2446 -8.94955 74.3402 -26.8751 -10.6463 74.9388 -26.6366 
-10.3109 74.3773 -25.9701 -11.4595 74.8861 -26.6444 -12.101 74.7165 -26.5012 
-12.8576 74.4838 -26.2715 -13.8717 74.4885 -26.0151 -14.7147 74.2593 -25.8794 
-8.84868 74.8102 -27.3183 -8.56545 74.576 -27.2852 -8.49039 74.592 -27.5519 
-9.57167 74.8798 -27.4321 -10.2181 74.6507 -27.4573 -11.0301 74.3773 -27.1529 
-11.9075 74.2475 -26.8564 -8.95943 74.4949 -27.8023 -9.82477 74.2878 -27.9035 
-13.7984 73.9156 -21.4236 -14.0005 73.4465 -21.1877 -13.5464 73.528 -21.512 
-14.6269 73.6447 -20.8776 -15.979 74.0183 -21.7267 -15.3942 73.7135 -20.9582 
-16.9508 73.8121 -21.7833 -16.6499 73.3089 -20.9893 -17.3373 73.3889 -21.4222 
-13.675 74.0002 -22.5315 -13.6864 73.6788 -21.7591 -13.9292 73.38 -22.1901 
-15.9869 74.2921 -22.4961 -16.8266 74.0748 -22.5592 -17.5832 73.5966 -21.9234 
-17.4988 73.7767 -22.3807 -18.0206 73.1848 -22.3956 -13.7268 73.1284 -22.9954 
-13.2234 73.7559 -23.571 -17.6386 73.5505 -23.1111 -17.3324 73.3968 -23.8114 
-9.93857 73.7239 -24.5806 -9.88983 73.3421 -24.2195 -9.47539 73.4982 -24.5548 
-10.8325 73.8233 -24.5654 -10.6788 73.4583 -24.1 -11.8512 73.9641 -24.6961 
-11.7004 73.3564 -24.2096 -12.7253 73.9418 -24.4189 -12.5942 73.3303 -24.1095 
-16.3006 73.8101 -24.5591 -16.8302 73.4198 -24.2455 -9.73948 73.5744 -24.9468 
-10.0874 73.4001 -25.3451 -10.6457 74.0524 -25.1838 -15.2384 73.7188 -25.6144 
-15.9132 73.1519 -25.1024 -8.8032 73.894 -26.4137 -9.03105 73.3822 -26.2432 
-8.55304 73.4652 -26.4313 -9.85496 73.4549 -25.914 -12.5389 74.1099 -26.6176 
-13.0526 73.5876 -26.4936 -13.757 73.3467 -26.2014 -14.6162 73.4642 -25.9708 
-8.7946 74.2031 -27.5326 -8.74012 73.5033 -26.7019 -9.07666 73.4836 -27.4378 
-10.5138 74.1286 -27.6702 -11.1258 73.6785 -27.536 -11.8591 73.4009 -27.2321 
-12.59 73.4028 -26.8322 -9.67104 73.5278 -28.0784 -10.7357 73.3794 -27.9287 
-14.7527 72.9619 -20.6306 -14.6167 72.3493 -20.0056 -14.2729 72.2257 -20.4335 
-15.9625 73.0291 -20.4886 -15.5763 72.4366 -20.0172 -16.6573 72.8886 -20.5032 
-16.4919 72.5407 -20.2635 -17.1271 72.3215 -20.577 -13.7259 73.241 -21.6744 
-14.2334 72.4587 -21.4806 -17.8411 73.1241 -21.6441 -17.719 72.5795 -21.106 
-18.2962 72.5206 -21.6634 -14.0683 72.6021 -22.5612 -18.4157 72.38 -22.5251 
-10.6293 72.8514 -23.7143 -10.4351 72.1869 -23.2368 -10.1359 72.2185 -23.7118 
-11.1741 72.1598 -23.4691 -13.5916 72.1647 -23.1054 -13.179 72.755 -23.5969 
-17.7698 72.9914 -23.6126 -18.0618 72.7018 -23.2792 -9.67683 73.2749 -24.6861 
-10.1122 72.719 -24.473 -11.5162 72.7059 -23.8692 -12.3922 72.42 -23.8994 
-16.5679 73.0299 -24.6434 -17.0937 72.6534 -24.3869 -17.7045 72.3092 -23.9687 
-10.1617 72.3276 -25.5242 -15.2472 72.7386 -25.5991 -15.8644 72.1632 -25.2116 
-16.5847 72.361 -24.8614 -8.6524 73.1864 -26.4791 -9.0414 72.8181 -26.729 
-9.71348 72.5307 -26.1837 -13.239 72.7264 -26.5355 -13.8572 72.1764 -26.1704 
-14.5702 72.4623 -25.917 -8.72001 72.1355 -27.0728 -8.0428 72.5849 -27.6634 
-8.70504 72.9193 -27.7399 -11.5621 73.0573 -27.6477 -12.085 72.5338 -27.5038 
-12.6286 72.3403 -27.0437 -7.87417 72.7672 -28.3221 -7.47874 72.3685 -27.9403 
-7.32495 72.1667 -28.4699 -8.54024 72.9008 -28.5995 -9.34863 72.9807 -28.4122 
-10.0545 72.6024 -28.5166 -10.7458 72.359 -28.2035 -11.5985 72.3961 -27.8562 
-7.96194 72.4078 -28.9145 -8.95427 72.4089 -28.9892 -9.74792 72.3 -28.8461 
-15.5849 71.7616 -18.8028 -15.5718 71.4211 -18.053 -15.1086 71.4048 -18.4666 
-16.0632 71.2495 -18.3478 -14.964 71.9684 -19.3431 -14.6182 71.1464 -19.0344 
-14.3166 71.6824 -19.7419 -15.7698 71.9696 -19.5092 -16.2619 71.3421 -19.2055 
-14.3421 71.4314 -20.4125 -16.5418 71.8492 -19.9965 -17.228 71.1421 -20.4217 
-14.6718 71.6253 -21.1502 -14.6957 71.7459 -21.7567 -15.0312 71.1778 -21.3445 
-17.8734 71.473 -20.9066 -18.7847 71.9077 -21.8455 -18.4981 71.7 -21.2097 
-18.991 71.2472 -21.5015 -14.6252 71.139 -22.0359 -14.1986 71.8086 -22.4317 
-18.7253 71.8237 -22.6359 -19.1101 71.2379 -22.3636 -9.79323 71.8587 -23.3512 
-9.99496 71.5338 -23.2428 -9.5386 71.4682 -23.4238 -10.7344 71.6953 -23.2274 
-11.159 71.5621 -23.486 -12.9202 72.0194 -23.54 -12.9762 71.5567 -23.1988 
-12.3791 71.4943 -23.5245 -13.4986 71.4542 -22.8588 -18.3223 71.812 -23.416 
-18.817 71.3459 -23.1557 -9.70958 71.6016 -23.7014 -10.0774 71.2913 -24.4525 
-11.5399 71.4615 -23.7524 -17.2188 71.7224 -24.5573 -17.9075 71.1547 -24.1176 
-10.2834 71.4189 -25.5705 -15.1313 71.8272 -25.5422 -15.6628 71.1798 -25.1872 
-16.568 71.4566 -24.9364 -9.58221 72.037 -26.597 -10.069 71.5659 -26.2367 
-13.24 71.7154 -26.5328 -13.6986 71.3018 -26.1638 -14.3544 71.4126 -25.8375 
-7.76299 72.0867 -27.4212 -7.97547 71.533 -27.2838 -7.32534 71.7449 -27.7738 
-8.91912 71.3181 -27.0822 -9.55263 71.5833 -26.7833 -12.231 71.7011 -27.5292 
-12.7204 71.1801 -27.0177 -7.28381 71.4865 -28.3083 -10.3604 71.5416 -28.7309 
-10.9929 71.2602 -28.2605 -11.6063 71.455 -27.9194 -7.57622 71.7287 -28.8407 
-8.49036 71.4856 -29.2362 -9.58105 71.5928 -29.1937 -16.0414 70.9253 -17.5427 
-15.8439 70.2305 -17.131 -15.364 70.7469 -17.6968 -16.6254 70.6959 -17.4469 
-16.4719 70.5072 -17.1552 -16.9182 70.1823 -17.4877 -15.0029 70.3264 -18.4475 
-16.6247 70.5426 -18.026 -16.4503 70.7164 -18.6659 -14.718 70.3169 -19.1329 
-14.4052 70.774 -19.5792 -16.6468 70.6073 -19.156 -16.7765 71.0307 -19.7156 
-17.019 70.2818 -19.5363 -14.6332 70.5926 -20.1045 -14.8044 71.0184 -20.6942 
-15.0816 70.3123 -20.5015 -17.2883 70.0956 -20.477 -15.1131 70.4984 -21.459 
-17.7002 70.5705 -20.9231 -18.4706 70.5336 -21.0357 -19.2104 70.6133 -21.5802 
-12.807 70.9442 -22.7775 -12.7648 70.4512 -22.1751 -12.1539 70.4463 -22.5797 
-13.8162 71.1357 -22.5 -13.6487 70.5666 -22.0849 -14.5952 70.4664 -21.8562 
-19.4026 70.409 -22.5648 -9.80924 71.2672 -23.6342 -10.5765 71.1956 -23.622 
-11.8896 70.8772 -23.3309 -11.6536 70.4775 -23.0924 -11.3065 70.5465 -23.4877 
-18.5779 71.0531 -23.6905 -19.0461 70.6892 -23.314 -9.70407 70.3483 -24.2573 
-9.42647 70.1836 -24.742 -9.67137 70.6918 -24.5034 -10.5095 70.4531 -23.8867 
-17.2174 70.7371 -24.5889 -17.8359 70.1424 -24.2239 -18.565 70.384 -23.8964 
-9.76048 70.6009 -24.9251 -10.0199 70.7896 -25.6679 -14.8406 71.0973 -25.4598 
-14.3285 70.5693 -25.5839 -14.89 70.32 -25.209 -15.8284 70.2979 -25.0687 
-16.5468 70.4846 -24.9262 -9.65103 70.8948 -26.6002 -9.63418 70.2716 -25.9939 
-9.36127 70.196 -26.4829 -13.2114 70.7 -26.5136 -13.7865 70.3567 -26.0239 
-7.5751 71.2166 -27.7796 -8.29545 70.9074 -27.6881 -9.0784 70.4405 -27.2092 
-12.2104 70.7089 -27.5178 -12.7186 70.1716 -27.0274 -7.83764 71.0484 -28.5459 
-8.22478 70.4939 -28.4574 -8.67055 70.1462 -27.9696 -10.7436 70.9605 -28.5504 
-11.043 70.5475 -28.4513 -11.6047 70.3687 -28.0367 -8.33887 70.4143 -29.3426 
-8.75247 70.8953 -29.6487 -9.34577 70.9298 -29.651 -10.0862 70.6927 -29.4112 
-10.6699 70.3199 -28.944 -9.03957 70.3313 -29.923 -9.7172 70.2395 -29.8845 
-15.9169 69.3516 -17.0723 -15.3316 69.6313 -17.6742 -16.5526 69.8358 -16.9975 
-17.1333 69.5183 -17.358 -15.1589 69.4404 -18.4264 -16.7844 70.2193 -18.7076 
-17.2045 69.703 -18.3616 -14.7698 70.1451 -19.6666 -15.1043 69.5504 -19.3507 
-17.2864 69.5129 -19.6062 -15.1027 69.5514 -20.6292 -17.3782 69.3821 -20.3666 
-19.0947 69.9185 -20.7228 -18.7774 69.2471 -20.1578 -18.2811 69.5771 -20.6234 
-19.7891 69.7745 -20.7548 -19.5334 69.4807 -20.2561 -20.012 69.2873 -20.4937 
-12.7747 69.9796 -21.7253 -12.7345 69.51 -21.0889 -12.1446 69.5126 -21.4562 
-14.0112 69.968 -21.5582 -13.4443 69.4862 -21.0182 -14.8191 69.9753 -21.4468 
-14.4409 69.454 -20.9889 -17.7118 69.7428 -20.8217 -19.6868 70.0305 -21.6625 
-20.1299 69.3847 -21.2454 -11.6328 69.997 -22.5445 -11.5532 69.3597 -21.8902 
-11.1201 69.3485 -22.5241 -19.6895 69.8447 -22.6738 -20.0387 69.3649 -22.2324 
-10.8482 69.9028 -23.2827 -10.6417 69.1202 -23.0856 -10.2875 69.398 -23.6801 
-19.2401 69.7957 -23.4155 -19.7576 69.1509 -23.0507 -9.81615 69.5291 -24.1362 
-9.38124 69.6746 -24.5345 -17.1961 69.7495 -24.5739 -17.865 69.1701 -24.2068 
-18.576 69.4625 -23.934 -9.61267 70.1853 -25.3724 -9.32681 69.5588 -25.5767 
-14.1481 69.485 -25.5078 -14.6207 69.4474 -24.8951 -15.5632 69.4943 -24.8944 
-16.5562 69.5219 -24.9052 -9.19272 69.6429 -26.6884 -13.3161 69.4709 -26.6985 
-13.7539 69.3796 -26.1978 -9.24129 69.2535 -27.5413 -12.2802 69.7591 -27.5494 
-12.7847 69.3678 -27.2068 -8.78979 69.4129 -28.2393 -8.38322 69.8229 -28.699 
-11.2125 69.7146 -28.5436 -11.8997 69.1885 -28.0671 -8.17392 69.292 -29.5381 
-10.2437 69.7089 -29.6058 -10.7685 69.1957 -29.1004 -8.84389 69.4735 -29.9786 
-9.62393 69.4764 -30.0023 -16.8345 68.9713 -16.711 -16.794 68.1789 -16.1771 
[...]
CELL_DATA 21872
SCALARS scalars float
LOOKUP_TABLE default
1012 1012 1012 1012 1012 1012 1012 1012 1012 
1012 1012 1012 1012 1012 1012 1012 1012 1012 
1012 1012 1012 1012 1012 1012 1012 1012 1012 
1012 1012 1012 1012 1012 1012 1012 1012 1012 
1012 1012 1012 1012 1012 1012 1012 1012 1012 
1012 1012 1012 1012 1012 1012 1012 1012 1012 
1012 1012 1012 1012 1012 1012 1012 1012 1012 
1012 1012 1012 1012 1012 1012 1012 1012 1012 
1012 1012 1012 1012 1012 1012 1012 1012 1012 
1012 1012 1012 1012 1012 1012 1012 1012 1012 
1012 1012 1012 1012 1012 1012 1012 1012 1012 
1012 1012 1012 1012 1012 1012 1012 1012 1012 
1012 1012 1012 1012 1012 1012 1012 1012 1012 
1012 1012 1012 1012 1012 1012 1012 1012 1012 
1012 1012 1012 1012 1012 1012 1012 1012 1012 
1012 1012 1012 1012 1012 1012 1012 1012 1012 
1012 1012 1012 1012 1012 1012 1012 1012 1012 
1012 1012 1012 1012 1012 1012 1012 1012 1012 
1012 1012 1012 1012 1012 1012 1012 1012 1012 
1012 1012 1012 1012 1012 1012 1012 1012 1012 
1012 1012 1012 1012 1012 1012 1012 1012 1012 
1012 1012 1012 1012 1012 1012 1012 1012 1012 
1012 1012 1012 1012 1012 1012 1012 1012 1012 
1012 1012 1012 1012 1012 1012 1012 1012 1012 
1012 1012 1012 1012 1012 1012 1012 1012 1012 
1012 1012 1012 1012 1012 1012 1012 1012 1012 
1012 1012 1012 1012 1012 1012 1012 1012 1012 
1012 1012 1012 1012 1012 1012 1012 1012 1012 
1012 1012 1012 1012 1012 1012 1012 1012 1012 
1012 1012 1012 1012 1012 1012 1012 1012 1012 
1012 1012 1012 1012 1012 1012 1012 1012 1012 
1012 1012 1012 1012 1012 1012 1012 1012 1012 
1012 1012 1012 1012 1012 1012 1012 1012 1012 
1012 1012 1012 1012 1012 1012 1012 1012 1012 
1012 1012 1012 1012 1012 1012 1012 1012 1012 
1012 1012 1012 1012 1012 1012 1012 1012 1012 
1012 1012 1012 1012 1012 1012 1012 1012 1012 
1012 1012 1012 1012 1012 1012 1012 1012 1012 
1012 1012 1012 1012 1012 1012 1012 1012 1012 
1012 1012 1012 1012 1012 1012 1012 1012 1012 
1012 1012 1012 1012 1012 1012 1012 1012 1012 
1012 1012 1012 1012 1012 1012 1012 1012 1012 
1012 1012 1012 1012 1012 1012 1012 1012 1012 
1012 1012 1012 1012 1012 1012 1012 1012 1012 
1012 1012 1012 1012 1012 1012 1012 1012 1012 
1012 1012 1012 1012 1012 1012 1012 1012 1012 
1012 1012 1012 1012 1012 1012 1012 1012 1012 
1012 1012 1012 1012 1012 1012 1012 1012 1012 
1012 1012 1012 1012 1012 1012 1012 1012 1012 
1012 1012 1012 1012 1012 1012 1012 1012 1012 
1012 1012 1012 1012 1012 1012 1012 1012 1012 
1012 1012 1012 1012 1012 1012 1012 1012 1012 
1012 1012 1012 1012 1012 1012 1012 1012 1012 
1012 1012 1012 1012 1012 1012 1012 1012 1012 
1012 1012 1012 1012 1012 1012 1012 1012 1012 
1012 1012 1012 1012 1012 1012 1012 1012 1012 
1012 1012 1012 1012 1012 1012 1012 1012 1012 
1012 1012 1012 1012 1012 1012 1012 1012 1012 
1012 1012 1012 1012 1012 1012 1012 1012 1012 
1012 1012 1012 1012 1012 1012 1012 1012 1012 
1012 1012 1012 1012 1012 1012 1012 1012 1012 
1012 1012 1012 1012 1012 1012 1012 1012 1012 
1012 1012 1012 1012 1012 1012 1012 1012 1012 
1012 1012 1012 1012 1012 1012 1012 1012 1012 
1012 1012 1012 1012 1012 1012 1012 1012 1012 
1012 1012 1012 1012 1012 1012 1012 1012 1012 
1012 1012 1012 1012 1012 1012 1012 1012 1012 
1012 1012 1012 1012 1012 1012 1012 1012 1012 
1012 1012 1012 1012 1012 1012 1012 1012 1012 
1012 1012 1012 1012 1012 1012 1012 1012 1012 
1012 1012 1012 1012 1012 1012 1012 1012 1012 
1012 1012 1012 1012 1012 1012 1012 1012 1012 
1012 1012 1012 1012 1012 1012 1012 1012 1012 
1012 1012 1012 1012 1012 1012 1012 1012 1012 
1012 1012 1012 1012 1012 1012 1012 1012 1012 
1012 1012 1012 1012 1012 1012 1012 1012 1012 
1012 1012 1012 1012 1012 1012 1012 1012 1012 
1012 1012 1012 1012 1012 1012 1012 1012 1012 
1012 1012 1012 1012 1012 1012 1012 1012 1012 
1012 1012 1012 1012 1012 1012 1012 1012 1012 
1012 1012 1012 1012 1012 1012 1012 1012 1012 
1012 1012 1012 1012 1012 1012 1012 1012 1012 
1012 1012 1012 1012 1012 1012 1012 1012 1012 
1012 1012 1012 1012 1012 1012 1012 1012 1012 
1012 1012 1012 1012 1012 1012 1012 1012 1012 
1012 1012 1012 1012 1012 1012 1012 1012 1012 
1012 1012 1012 1012 1012 1012 1012 1012 1012 
1012 1012 1012 1012 1012 1012 1012 1012 1012 
1012 1012 1012 1012 1012 1012 1012 1012 1012 
1012 1012 1012 1012 1012 1012 1012 1012 1012 
1012 1012 1012 1012 1012 1012 1012 1012 1012 
1012 1012 1012 1012 1012 1012 1012 1012 1012 
1012 1012 1012 1012 1012 1012 1012 1012 1012 
1012 1012 1012 1012 1012 1012 1012 1012 1012 
1012 1012 1012 1012 1012 1012 1012 1012 1012 
1012 1012 1012 1012 1012 1012 1012 1012 1012 
1012 1012 1012 1012 1012 1012 1012 1012 1012 
1012 1012 1012 1012 1012 1012 1012 1012 1012 
1012 1012 1012 1012 1012 1012 1012 1012 1012 
1012 1012 1012 1012 1012 1012 1012 1012 1012 
1012 1012 1012 1012 1012 1012 1012 1012 1012 
1012 1012 1012 1012 1012 1012 1012 1012 1012 
1012 1012 1012 1012 1012 1012 1012 1012 1012 
1012 1012 1012 1012 1012 1012 1012 1012 1012 
1012 1012 1012 1012 1012 1012 1012 1012 1012 
1012 1012 1012 1012 1012 1012 1012 1012 1012 
1012 1012 1012 1012 1012 1012 1012 1012 1012 
1012 1012 1012 1012 1012 1012 1012 1012 1012 
1012 1012 1012 1012 1012 1012 1012 1012 1012 
1012 1012 1012 1012 1012 1012 1012 1012 1012 
1012 1012 1012 1012 1012 1012 1012 1012 1012 
1012 1012 1012 1012 1012 1012 1012 1012 1012 
1012 1012 1012 1012 1012 1012 1012 1012 1012 
1012 1012 1012 1012 1012 1012 1012 1012 1012 
1012 1012 1012 1012 1012 1012 1012 1012 1012 
1012 1012 1012 1012 1012 1012 1012 1012 1012 
1012 1012 1012 1012 1012 1012 1012 1012 1012 
1012 1012 1012 1012 1012 1012 1012 1012 1012 
1012 1012 1012 1012 1012 1012 1012 1012 1012 
1012 1012 1012 1012 1012 1012 1012 1012 1012 
1012 1012 1012 1012 1012 1012 1012 1012 1012 
1012 1012 1012 1012 1012 1012 1012 1012 1012 
1012 1012 1012 1012 1012 1012 1012 1012 1012 
1012 1012 1012 1012 1012 1012 1012 1012 1012 
1012 1012 1012 1012 1012 1012 1012 1012 1012 
1012 1012 1012 1012 1012 1012 1012 1012 1012 
1012 1012 1012 1012 1012 1012 1012 1012 1012 
1012 1012 1012 1012 1012 1012 1012 1012 1012 
1012 1012 1012 1012 1012 1012 1012 1012 1012 
1012 1012 1012 1012 1012 1012 1012 1012 1012 
1012 1012 1012 1012 1012 1012 1012 1012 1012 
1012 1012 1012 1012 1012 1012 1012 1012 1012 
1012 1012 1012 1012 1012 1012 1012 1012 1012 
1012 1012 1012 1012 1012 1012 1012 1012 1012 
1012 1012 1012 1012 1012 1012 1012 1012 1012 
1012 1012 1012 1012 1012 1012 1012 1012 1012 
1012 1012 1012 1012 1012 1012 1012 1012 1012 
1012 1012 1012 1012 1012 1012 1012 1012 1012 
1012 1012 1012 1012 1012 1012 1012 1012 1012 
1012 1012 1012 1012 1012 1012 1012 1012 1012 
1012 1012 1012 1012 1012 1012 1012 1012 1012 
1012 1012 1012 1012 1012 1012 1012 1012 1012 
1012 1012 1012 1012 1012 1012 1012 1012 1012 
1012 1012 1012 1012 1012 1012 1012 1012 1012 
1012 1012 1012 1012 1012 1012 1012 1012 1012 
1012 1012 1012 1012 1012 1012 1012 1012 1012 
1012 1012 1012 1012 1012 1012 1012 1012 1012 
1012 1012 1012 1012 1012 1012 1012 1012 1012 
1012 1012 1012 1012 1012 1012 1012 1012 1012 
1012 1012 1012 1012 1012 1012 1012 1012 1012 
1012 1012 1012 1012 1012 1012 1012 1012 1012 
1012 1012 1012 1012 1012 1012 1012 1012 1012 
1012 1012 1012 1012 1012 1012 1012 1012 1012 
1012 1012 1012 1012 1012 1012 1012 1012 1012 
1012 1012 1012 1012 1012 1012 1012 1012 1012 
1012 1012 1012 1012 1012 1012 1012 1012 1012 
1012 1012 1012 1012 1012 1012 1012 1012 1012 
1012 1012 1012 1012 1012 1012 1012 1012 1012 
1012 1012 1012 1012 1012 1012 1012 1012 1012 
1012 1012 1012 1012 1012 1012 1012 1012 1012 
1012 1012 1012 1012 1012 1012 1012 1012 1012 
1012 1012 1012 1012 1012 1012 1012 1012 1012 
1012 1012 1012 1012 1012 1012 1012 1012 1012 
1012 1012 1012 1012 1012 1012 1012 1012 1012 
1012 1012 1012 1012 1012 1012 1012 1012 1012 
1012 1012 1012 1012 1012 1012 1012 1012 1012 
1012 1012 1012 1012 1012 1012 1012 1012 1012 
1012 1012 1012 1012 1012 1012 1012 1012 1012 
1012 1012 1012 1012 1012 1012 1012 1012 1012 
1012 1012 1012 1012 1012 1012 1012 1012 1012 
1012 1012 1012 1012 1012 1012 1012 1012 1012 
1012 1012 1012 1012 1012 1012 1012 1012 1012 
1012 1012 1012 1012 1012 1012 1012 1012 1012 
1012 1012 1012 1012 1012 1012 1012 1012 1012 
1012 1012 1012 1012 1012 1012 1012 1012 1012 
1012 1012 1012 1012 1012 1012 1012 1012 1012 
1012 1012 1012 1012 1012 1012 1012 1012 1012 
1012 1012 1012 1012 1012 1012 1012 1012 1012 
1012 1012 1012 1012 1012 1012 1012 1012 1012 
1012 1012 1012 1012 1012 1012 1012 1012 1012 
1012 1012 1012 1012 1012 1012 1012 1012 1012 
1012 1012 1012 1012 1012 1012 1012 1012 1012 
1012 1012 1012 1012 1012 1012 1012 1012 1012 
1012 1012 1012 1012 1012 1012 1012 1012 1012 
1012 1012 1012 1012 1012 1012 1012 1012 1012 
1012 1012 1012 1012 1012 1012 1012 1012 1012 
1012 1012 1012 1012 1012 1012 1012 1012 1012 
1012 1012 1012 1012 1012 1012 1012 1012 1012 
1012 1012 1012 1012 1012 1012 1012 1012 1012 
1012 1012 1012 1012 1012 1012 1012 1012 1012 
1012 1012 1012 1012 1012 1012 1012 1012 1012 
1012 1012 1012 1012 1012 1012 1012 1012 1012 
1012 1012 1012 1012 1012 1012 1012 1012 1012 
1012 1012 1012 1012 1012 1012 1012 1012 1012 
1012 1012 1012 1012 1012 1012 1012 1012 1012 
1012 1012 1012 1012 1012 1012 1012 1012 1012 
1012 1012 1012 1012 1012 1012 1012 1012 1012 
1012 1012 1012 1012 1012 1012 1012 1012 1012 
1012 1012 1012 1012 1012 1012 1012 1012 1012 
1012 1012 1012 1012 1012 1012 1012 1012 1012 
1012 1012 1012 1012 1012 1012 1012 1012 1012 
1012 1012 1012 1012 1012 1012 1012 1012 1012 
1012 1012 1012 1012 1012 1012 1012 1012 1012 
1012 1012 1012 1012 1012 1012 1012 1012 1012 
1012 1012 1012 1012 1012 1012 1012 1012 1012 
1012 1012 1012 1012 1012 1012 1012 1012 1012 
1012 1012 1012 1012 1012 1012 1012 1012 1012 
1012 1012 1012 1012 1012 1012 1012 1012 1012 
1012 1012 1012 1012 1012 1012 1012 1012 1012 
1012 1012 1012 1012 1012 1012 1012 1012 1012 
1012 1012 1012 1012 1012 1012 1012 1012 1012 
1012 1012 1012 1012 1012 1012 1012 1012 1012 
1012 1012 1012 1012 1012 1012 1012 1012 1012 
1012 1012 1012 1012 1012 1012 1012 1012 1012 
1012 1012 1012 1012 1012 1012 1012 1012 1012 
1012 1012 1012 1012 1012 1012 1012 1012 1012 
1012 1012 1012 1012 1012 1012 1012 1012 1012 
1012 1012 1012 1012 1012 1012 1012 1012 1012 
1012 1012 1012 1012 1012 1012 1012 1012 1012 
1012 1012 1012 1012 1012 1012 1012 1012 1012 
1012 1012 1012 1012 1012 1012 1012 1012 1012 
1012 1012 1012 1012 1012 1012 1012 1012 1012 
1012 1012 1012 1012 1012 1012 1012 1012 1012 
1012 1012 1012 1012 1012 1012 1012 1012 1012 
1012 1012 1012 1012 1012 1012 1012 1012 1012 
1012 1012 1012 1012 1012 1012 1012 1012 1012 
1012 1012 1012 1012 1012 1012 1012 1012 1012 
1012 1012 1012 1012 1012 1012 1012 1012 1012 
1012 1012 1012 1012 1012 1012 1012 1012 1012 
1012 1012 1012 1012 1012 1012 1012 1012 1012 
1012 1012 1012 1012 1012 1012 1012 1012 1012 
1012 1012 1012 1012 1012 1012 1012 1012 1012 
1012 1012 1012 1012 1012 1012 1012 1012 1012 
1012 1012 1012 1012 1012 1012 1012 1012 1012 
1012 1012 1012 1012 1012 1012 1012 1012 1012 
1012 1012 1012 1012 1012 1012 1012 1012 1012 
1012 1012 1012 1012 1012 1012 1012 1012 1012 
1012 1012 1012 1012 1012 1012 1012 1012 1012 
1012 1012 1012 1012 1012 1012 1012 1012 1012 
1012 1012 1012 1012 1012 1012 1012 1012 1012 
1012 1012 1012 1012 1012 1012 1012 1012 1012 
1012 1012 1012 1012 1012 1012 1012 1012 1012 
1012 1012 1012 1012 1012 1012 1012 1012 1012 
1012 1012 1012 1012 1012 1012 1012 1012 1012 
1012 1012 1012 1012 1012 1012 1012 1012 1012 
1012 1012 1012 1012 1012 1012 1012 1012 1012 
1012 1012 1012 1012 1012 1012 1012 1012 1012 
1012 1012 1012 1012 1012 1012 1012 1012 1012 
1012 1012 1012 1012 1012 1012 1012 1012 1012 
1012 1012 1012 1012 1012 1012 1012 1012 1012 
1012 1012 1012 1012 1012 1012 1012 1012 1012 
1012 1012 1012 1012 1012 1012 1012 1012 1012 
1012 1012 1012 1012 1012 1012 1012 1012 1012 
1012 1012 1012 1012 1012 1012 1012 1012 1012 
1012 1012 1012 1012 1012 1012 1012 1012 1012 
1012 1012 1012 1012 1012 1012 1012 1012 1012 
1012 1012 1012 1012 1012 1012 1012 1012 1012 
1012 1012 1012 1012 1012 1012 1012 1012 1012 
1012 1012 1012 1012 1012 1012 1012 1012 1012 
1012 1012 1012 1012 1012 1012 1012 1012 1012 
1012 1012 1012 1012 1012 1012 1012 1012 1012 
1012 1012 1012 1012 1012 1012 1012 1012 1012 
1012 1012 1012 1012 1012 1012 1012 1012 1012 
1012 1012 1012 1012 1012 1012 1012 1012 1012 
1012 1012 1012 1012 1012 1012 1012 1012 1012 
1012 1012 1012 1012 1012 1012 1012 1012 1012 
1012 1012 1012 1012 1012 1012 1012 1012 1012 
1012 1012 1012 1012 1012 1012 1012 1012 1012 
1012 1012 1012 1012 1012 1012 1012 1012 1012 
1012 1012 1012 1012 1012 1012 1012 1012 1012 
1012 1012 1012 1012 1012 1012 1012 1012 1012 
1012 1012 1012 1012 1012 1012 1012 1012 1012 
1012 1012 1012 1012 1012 1012 1012 1012 1012 
1012 1012 1012 1012 1012 1012 1012 1012 1012 
1012 1012 1012 1012 1012 1012 1012 1012 1012 
1012 1012 1012 1012 1012 1012 1012 1012 1012 
1012 1012 1012 1012 1012 1012 1012 1012 1012 
1012 1012 1012 1012 1012 1012 1012 1012 1012 
1012 1012 1012 1012 1012 1012 1012 1012 1012 
1012 1012 1012 1012 1012 1012 1012 1012 1012 
1012 1012 1012 1012 1012 1012 1012 1012 1012 
1012 1012 1012 1012 1012 1012 1012 1012 1012 
1012 1012 1012 1012 1012 1012 1012 1012 1012 
1012 1012 1012 1012 1012 1012 1012 1012 1012 
1012 1012 1012 1012 1012 1012 1012 1012 1012 
1012 1012 1012 1012 1012 1012 1012 1012 1012 
1012 1012 1012 1012 1012 1012 1012 1012 1012 
1012 1012 1012 1012 1012 1012 1012 1012 1012 
1012 1012 1012 1012 1012 1012 1012 1012 1012 
1012 1012 1012 1012 1012 1012 1012 1012 1012 
1012 1012 1012 1012 1012 1012 1012 1012 1012 
1012 1012 1012 1012 1012 1012 1012 1012 1012 
1012 1012 1012 1012 1012 1012 1012 1012 1012 
1012 1012 1012 1012 1012 1012 1012 1012 1012 
1012 1012 1012 1012 1012 1012 1012 1012 1012 
1012 1012 1012 1012 1012 1012 1012 1012 1012 
1012 1012 1012 1012 1012 1012 1012 1012 1012 
1012 1012 1012 1012 1012 1012 1012 1012 1012 
1012 1012 1012 1012 1012 1012 1012 1012 1012 
1012 1012 1012 1012 1012 1012 1012 1012 1012 
1012 1012 1012 1012 1012 1012 1012 1012 1012 
1012 1012 1012 1012 1012 1012 1012 1012 1012 
1012 1012 1012 1012 1012 1012 1012 1012 1012 
1012 1012 1012 1012 1012 1012 1012 1012 1012 
1012 1012 1012 1012 1012 1012 1012 1012 1012 
1012 1012 1012 1012 1012 1012 1012 1012 1012 
1012 1012 1012 1012 1012 1012 1012 1012 1012 
1012 1012 1012 1012 1012 1012 1012 1012 1012 
1012 1012 1012 1012 1012 1012 1012 1012 1012 
1012 1012 1012 1012 1012 1012 1012 1012 1012 
1012 1012 1012 1012 1012 1012 1012 1012 1012 
1012 1012 1012 1012 1012 1012 1012 1012 1012 
1012 1012 1012 1012 1012 1012 1012 1012 1012 
1012 1012 1012 1012 1012 1012 1012 1012 1012 
1012 1012 1012 1012 1012 1012 1012 1012 1012 
1012 1012 1012 1012 1012 1012 1012 1012 1012 
1012 1012 1012 1012 1012 1012 1012 1012 1012 
1012 1012 1012 1012 1012 1012 1012 1012 1012 
1012 1012 1012 1012 1012 1012 1012 1012 1012 
1012 1012 1012 1012 1012 1012 1012 1012 1012 
1012 1012 1012 1012 1012 1012 1012 1012 1012 
1012 1012 1012 1012 1012 1012 1012 1012 1012 
1012 1012 1012 1012 1012 1012 1012 1012 1012 
1012 1012 1012 1012 1012 1012 1012 1012 1012 
1012 1012 1012 1012 1012 1012 1012 1012 1012 
1012 1012 1012 1012 1012 1012 1012 1012 1012 
1012 1012 1012 1012 1012 1012 1012 1012 1012 
1012 1012 1012 1012 1012 1012 1012 1012 1012 
1012 1012 1012 1012 1012 1012 1012 1012 1012 
1012 1012 1012 1012 1012 1012 1012 1012 1012 
1012 1012 1012 1012 1012 1012 1012 1012 1012 
1012 1012 1012 1012 1012 1012 1012 1012 1012 
1012 1012 1012 1012 1012 1012 1012 1012 1012 
1012 1012 1012 1012 1012 1012 1012 1012 1012 
1012 1012 1012 1012 1012 1012 1012 1012 1012 
1012 1012 1012 1012 1012 1012 1012 1012 1012 
1012 1012 1012 1012 1012 1012 1012 1012 1012 
1012 1012 1012 1012 1012 1012 1012 1012 1012 
1012 1012 1012 1012 1012 1012 1012 1012 1012 
1012 1012 1012 1012 1012 1012 1012 1012 1012 
1012 1012 1012 1012 1012 1012 1012 1012 1012 
1012 1012 1012 1012 1012 1012 1012 1012 1012 
1012 1012 1012 1012 1012 1012 1012 1012 1012 
1012 1012 1012 1012 1012 1012 1012 1012 1012 
1012 1012 1012 1012 1012 1012 1012 1012 1012 
1012 1012 1012 1012 1012 1012 1012 1012 1012 
1012 1012 1012 1012 1012 1012 1012 1012 1012 
1012 1012 1012 1012 1012 1012 1012 1012 1012 
1012 1012 1012 1012 1012 1012 1012 1012 1012 
1012 1012 1012 1012 1012 1012 1012 1012 1012 
1012 1012 1012 1012 1012 1012 1012 1012 1012 
1012 1012 1012 1012 1012 1012 1012 1012 1012 
1012 1012 1012 1012 1012 1012 1012 1012 1012 
1012 1012 1012 1012 1012 1012 1012 1012 1012 
1012 1012 1012 1012 1012 1012 1012 1012 1012 
1012 1012 1012 1012 1012 1012 1012 1012 1012 
1012 1012 1012 1012 1012 1012 1012 1012 1012 
1012 1012 1012 1012 1012 1012 1012 1012 1012 
1012 1012 1012 1012 1012 1012 1012 1012 1012 
1012 1012 1012 1012 1012 1012 1012 1012 1012 
1012 1012 1012 1012 1012 1012 1012 1012 1012 
1012 1012 1012 1012 1012 1012 1012 1012 1012 
1012 1012 1012 1012 1012 1012 1012 1012 1012 
1012 1012 1012 1012 1012 1012 1012 1012 1012 
1012 1012 1012 1012 1012 1012 1012 1012 1012 
1012 1012 1012 1012 1012 1012 1012 1012 1012 
1012 1012 1012 1012 1012 1012 1012 1012 1012 
1012 1012 1012 1012 1012 1012 1012 1012 1012 
1012 1012 1012 1012 1012 1012 1012 1012 1012 
1012 1012 1012 1012 1012 1012 1012 1012 1012 
1012 1012 1012 1012 1012 1012 1012 1012 1012 
1012 1012 1012 1012 1012 1012 1012 1012 1012 
1012 1012 1012 1012 1012 1012 1012 1012 1012 
1012 1012 1012 1012 1012 1012 1012 1012 1012 
1012 1012 1012 1012 1012 1012 1012 1012 1012 
1012 1012 1012 1012 1012 1012 1012 1012 1012 
1012 1012 1012 1012 1012 1012 1012 1012 1012 
1012 1012 1012 1012 1012 1012 1012 1012 1012 
1012 1012 1012 1012 1012 1012 1012 1012 1012 
1012 1012 1012 1012 1012 1012 1012 1012 1012 
1012 1012 1012 1012 1012 1012 1012 1012 1012 
1012 1012 1012 1012 1012 1012 1012 1012 1012 
1012 1012 1012 1012 1012 1012 1012 1012 1012 
1012 1012 1012 1012 1012 1012 1012 1012 1012 
1012 1012 1012 1012 1012 1012 1012 1012 1012 
1012 1012 1012 1012 1012 1012 1012 1012 1012 
1012 1012 1012 1012 1012 1012 1012 1012 1012 
1012 1012 1012 1012 1012 1012 1012 1012 1012 
1012 1012 1012 1012 1012 1012 1012 1012 1012 
1012 1012 1012 1012 1012 1012 1012 1012 1012 
1012 1012 1012 1012 1012 1012 1012 1012 1012 
1012 1012 1012 1012 1012 1012 1012 1012 1012 
1012 1012 1012 1012 1012 1012 1012 1012 1012 
1012 1012 1012 1012 1012 1012 1012 1012 1012 
1012 1012 1012 1012 1012 1012 1012 1012 1012 
1012 1012 1012 1012 1012 1012 1012 1012 1012 
1012 1012 1012 1012 1012 1012 1012 1012 1012 
1012 1012 1012 1012 1012 1012 1012 1012 1012 
1012 1012 1012 1012 1012 1012 1012 1012 1012 
1012 1012 1012 1012 1012 1012 1012 1012 1012 
1012 1012 1012 1012 1012 1012 1012 1012 1012 
1012 1012 1012 1012 1012 1012 1012 1012 1012 
1012 1012 1012 1012 1012 1012 1012 1012 1012 
1012 1012 1012 1012 1012 1012 1012 1012 1012 
1012 1012 1012 1012 1012 1012 1012 1012 1012 
1012 1012 1012 1012 1012 1012 1012 1012 1012 
1012 1012 1012 1012 1012 1012 1012 1012 1012 
1012 1012 1012 1012 1012 1012 1012 1012 1012 
1012 1012 1012 1012 1012 1012 1012 1012 1012 
1012 1012 1012 1012 1012 1012 1012 1012 1012 
1012 1012 1012 1012 1012 1012 1012 1012 1012 
1012 1012 1012 1012 1012 1012 1012 1012 1012 
1012 1012 1012 1012 1012 1012 1012 1012 1012 
1012 1012 1012 1012 1012 1012 1012 1012 1012 
1012 1012 1012 1012 1012 1012 1012 1012 1012 
1012 1012 1012 1012 1012 1012 1012 1012 1012 
1012 1012 1012 1012 1012 1012 1012 1012 1012 
1012 1012 1012 1012 1012 1012 1012 1012 1012 
1012 1012 1012 1012 1012 1012 1012 1012 1012 
1012 1012 1012 1012 1012 1012 1012 1012 1012 
1012 1012 1012 1012 1012 1012 1012 1012 1012 
1012 1012 1012 1012 1012 1012 1012 1012 1012 
1012 1012 1012 1012 1012 1012 1012 1012 1012 
1012 1012 1012 1012 1012 1012 1012 1012 1012 
1012 1012 1012 1012 1012 1012 1012 1012 1012 
1012 1012 1012 1012 1012 1012 1012 1012 1012 
1012 1012 1012 1012 1012 1012 1012 1012 1012 
1012 1012 1012 1012 1012 1012 1012 1012 1012 
1012 1012 1012 1012 1012 1012 1012 1012 1012 
1012 1012 1012 1012 1012 1012 1012 1012 1012 
1012 1012 1012 1012 1012 1012 1012 1012 1012 
1012 1012 1012 1012 1012 1012 1012 1012 1012 
1012 1012 1012 1012 1012 1012 1012 1012 1012 