# vtk DataFile Version 4.2
vtk output
ASCII
DATASET POLYDATA
POINTS 7634 float
26.8967 6.49985 40.8215 26.7832 6.82287 40.241 26.3808 6.27745 40.5665 
27.4112 6.21651 40.7528 27.4216 6.75178 40.5105 27.9866 6.31658 40.1454 
26.8862 5.52097 40.8708 26.2488 5.48257 40.4355 27.4397 5.59803 40.6218 
27.7303 5.92134 40.4822 29.6495 5.17852 40.8085 29.8886 5.94602 40.2767 
29.1927 5.46941 40.5341 30.1909 5.51217 40.3869 26.7382 4.44263 40.9323 
26.3139 4.39755 40.3312 27.5966 5.0926 40.6275 27.6083 4.55777 40.9215 
28.7644 4.36203 40.8784 28.3615 5.01256 40.5389 29.9127 4.26164 40.9389 
30.2563 4.80694 40.5486 26.5964 3.56959 40.9233 26.263 3.24835 40.5761 
27.4517 3.49736 40.8963 28.3083 3.47535 40.3181 28.8519 3.76502 40.5868 
29.1119 3.16379 40.2949 29.6304 3.49312 40.9465 30.7835 4.08775 40.3782 
30.6014 3.37794 40.8675 31.2662 3.40417 40.3892 26.6762 2.74355 40.8122 
26.2666 2.33557 40.1981 27.2303 2.56459 40.6438 27.7547 2.85883 40.358 
29.6826 2.68345 40.7619 29.4652 2.43713 40.2207 30.3779 2.59921 40.8704 
31.1874 2.71489 40.5512 26.7972 2.14784 40.486 29.9774 2.16619 40.5156 
30.6888 2.03893 40.372 26.6376 7.0876 39.4322 26.2288 6.49825 39.6304 
27.4706 6.98085 39.7123 28.233 6.59753 39.4706 29.5435 6.22656 39.9256 
29.7201 6.65859 39.3941 29.1926 6.49776 39.3679 30.1454 6.46955 39.3389 
26.3124 5.60724 39.4758 28.0698 5.54074 40.2227 28.5926 6.08 39.6341 
28.864 5.71291 40.0055 30.6977 5.19663 39.9499 30.6731 5.92027 39.5619 
31.2338 5.46694 39.3185 26.5805 4.9079 39.6551 26.551 4.32047 39.7953 
26.9995 4.55461 39.1618 30.7015 4.61258 40.1175 31.2382 4.68217 39.6023 
26.6516 3.9884 39.5498 26.2948 3.47051 39.8959 28.6766 3.52823 40.1587 
31.7538 3.08701 39.9577 31.5438 3.8675 39.7662 32.0493 3.66557 39.2389 
26.2201 2.40398 39.3838 27.5009 2.10109 40.0735 28.2097 2.61431 39.6908 
28.6743 3.03336 39.6899 29.1827 2.47103 39.5519 31.583 2.13677 40.0338 
32.2531 2.7329 39.3325 26.7631 1.62835 40.0233 26.2605 1.31164 39.3738 
27.4562 1.40781 39.7466 28.2294 1.55618 39.219 29.8902 1.8783 39.83 
30.6517 1.36224 39.9585 29.9258 1.2792 39.5547 31.4642 1.23671 39.8392 
32.1708 1.77077 39.5188 26.9628 0.921031 39.5005 27.6993 0.925386 39.302 
29.9392 0.667292 39.6907 29.4785 0.952722 39.1852 29.5121 0.352691 39.214 
30.6133 0.56418 39.8076 31.289 0.587387 39.601 31.9105 1.03401 39.473 
29.925 0.158431 39.4865 30.6172 0.0810933 39.3427 26.8819 9.27011 38.7607 
26.5217 9.73398 38.3124 26.3175 9.28086 38.5179 27.1346 9.7602 38.3576 
26.7793 8.49952 38.8655 26.2308 8.53341 38.3546 27.743 9.159 38.3944 
27.7503 8.37402 38.8413 28.2957 8.58814 38.3999 26.7726 7.64252 38.9916 
26.2204 7.44395 38.5147 27.77 7.40729 39.1131 28.5785 8.07504 38.5623 
28.7288 7.35034 38.8704 29.2074 7.64452 38.1165 26.2558 6.48822 38.3677 
28.6028 6.66719 39.1944 29.7553 6.93093 38.6216 30.4507 6.59189 38.4011 
26.5962 5.82085 38.5862 26.7415 5.33083 39.0916 27.006 5.36278 38.4078 
30.9118 6.24615 38.5655 31.7696 5.17499 38.8824 31.4851 5.82609 38.6739 
32.028 5.50405 38.2122 27.4378 4.77567 38.2716 31.8205 4.40507 39.1431 
32.2819 4.62476 38.4105 26.815 3.47191 39.2024 27.7473 4.0484 38.4611 
27.446 3.22648 38.7389 28.2873 3.3936 38.1964 32.4365 3.55855 38.623 
26.6874 2.53802 38.8533 27.2389 2.62832 38.5348 27.796 2.91118 38.3481 
28.7831 2.2058 39.1514 32.8484 2.98235 38.3966 32.7366 2.17721 38.9311 
33.2457 2.45977 38.3515 26.7847 2.03575 38.4019 26.2759 1.61057 38.714 
28.9769 1.35838 38.852 29.4128 1.71168 39.1814 32.5917 1.19202 39.0285 
33.2497 1.72875 38.5192 26.6051 0.49439 38.9838 26.3564 0.693139 38.5435 
27.3168 0.37517 38.906 28.1046 0.620287 38.6802 28.668 0.893623 38.5609 
29.19 0.494682 38.5755 31.7483 0.234766 39.1487 32.7204 0.309005 38.8492 
33.2627 0.736308 38.5293 26.817 0.170283 38.5033 27.5245 -0.000685772 38.1952 
29.8427 -0.108661 38.8065 30.7429 -0.438982 38.9097 30.1375 -0.856441 38.4712 
31.486 -0.722921 38.8418 32.3874 -0.407163 38.7804 33.178 -0.209646 38.4954 
30.8051 -1.42488 38.7395 30.2168 -1.83535 38.4967 31.3607 -1.45742 38.5621 
32.0393 -1.10137 38.4857 32.8197 -0.849468 38.4144 30.6968 -2.54009 38.7528 
30.2081 -2.88151 38.3759 31.1903 -2.27269 38.5146 30.6173 -3.33881 38.7375 
30.3943 -3.79327 38.3057 31.0972 -3.23355 38.5511 30.8302 -3.83808 38.5095 
27.5732 10.226 37.82 27.7906 10.799 37.2128 27.2897 10.5588 37.4473 
28.2255 10.3925 37.2947 26.7797 10.0566 37.4746 26.2225 9.39696 37.7745 
27.6586 9.66555 38.1805 28.1462 9.41229 37.5007 26.106 8.49869 37.4714 
28.8004 8.31806 38.0733 28.5136 8.78758 37.7779 29.0041 8.12317 37.3262 
26.1334 7.48112 37.429 29.4072 7.47556 37.257 26.3054 6.63488 37.2002 
29.7587 7.13613 37.6282 30.9495 6.41932 37.868 30.4202 6.73385 37.5796 
31.0228 6.39844 37.2694 26.6681 5.97622 37.7437 27.2139 5.37198 37.366 
31.5347 6.01832 37.5978 32.2801 5.41009 37.3441 27.6851 4.83472 37.5545 
27.7828 4.51158 37.9922 28.1352 4.42712 37.3513 32.7038 4.84262 37.555 
32.7416 4.15419 37.9365 33.0098 4.50672 37.2387 28.5879 3.86629 37.6983 
28.8203 3.49775 37.8049 29.0312 3.42402 37.1621 32.7427 3.55132 38.1129 
33.1896 3.66357 37.3772 27.4985 2.15057 38.0275 28.2806 2.63734 37.771 
28.8285 3.00669 37.5042 33.7425 2.18104 37.9362 33.5459 2.85871 37.6923 
34.0028 2.51077 37.2679 26.7205 1.31219 38.136 27.3629 1.22349 37.7119 
28.129 1.78971 37.4496 33.7712 1.23555 38.0195 34.127 1.76167 37.3209 
26.8844 0.393799 37.9676 27.2938 0.504212 37.5016 27.8163 1.03897 37.3374 
28.5752 0.0919272 38.1305 33.7492 0.165647 38.0309 34.2691 0.594984 37.232 
27.3634 -0.243091 37.5525 27.9954 -0.623383 37.8301 28.8571 -0.724385 37.9068 
29.4228 -0.353325 38.1434 33.5588 -0.848136 38.0038 34.098 -0.397601 37.4949 
27.782 -1.00427 37.5279 28.124 -1.54536 37.3132 28.6008 -1.50876 37.8315 
29.5536 -1.27547 38.0882 31.8383 -1.88447 38.1938 32.7202 -1.45577 38.1003 
33.4599 -1.7255 37.7586 34.1998 -1.23167 37.3351 28.6673 -2.35766 37.7377 
28.3181 -2.67919 37.177 29.4895 -2.32903 38.0376 31.6503 -2.76963 38.1644 
32.4929 -2.53956 37.804 33.3155 -2.35741 37.5284 33.9257 -1.95576 37.4254 
29.0319 -3.02315 37.5402 29.7095 -3.08054 37.721 30.0409 -3.69835 37.4763 
31.5834 -3.75911 38.032 32.3441 -3.51401 37.5396 32.8911 -2.95659 37.3951 
30.797 -4.37825 38.0738 30.3539 -4.63991 37.4377 31.3863 -4.62442 37.7891 
32.0779 -4.29833 37.5051 30.965 -5.07407 37.3839 31.8536 -4.90559 37.211 
27.8634 10.9271 36.2795 27.2004 10.5712 36.7618 28.7015 10.3665 36.8173 
28.512 10.8607 36.728 29.0381 10.4763 36.2169 26.6462 10.0398 36.1991 
26.2817 9.38965 36.7152 28.4082 9.52036 36.6311 28.8552 9.8897 36.3738 
26.1476 8.48266 36.4512 28.6041 8.60214 37.0395 28.3576 8.43688 36.3356 
26.1719 7.48282 36.4471 28.7621 8.02915 36.5776 29.1362 7.59032 36.6634 
26.3329 6.62047 36.233 29.6557 6.95081 36.5851 30.5569 6.52976 36.8319 
30.1383 6.40586 36.2681 26.6912 5.99386 36.7382 27.1922 5.30388 36.171 
30.8778 6.14731 36.4972 31.6341 5.7953 36.5037 32.1202 5.4466 36.3354 
27.7288 4.91399 36.7542 28.1445 4.51856 36.5591 32.69 5.02855 36.5888 
33.1465 4.41204 36.4488 28.5509 3.99098 36.5488 29.0625 3.22211 36.2621 
33.4167 3.66117 36.1893 28.7991 2.19155 37.0649 29.1827 2.67547 36.6594 
33.7519 3.04217 36.7626 34.103 2.37087 36.478 28.5552 1.20407 36.9236 
29.2951 1.76821 36.3111 34.3395 1.33229 36.3081 27.7721 0.36205 37.1395 
28.4047 0.263274 36.7492 29.1906 0.819618 36.4322 34.6469 0.673682 36.6206 
34.6795 0.286947 36.7035 34.8208 0.401038 36.4779 27.7974 -0.51214 37.1 
28.2948 -0.613635 36.68 28.8763 0.0790767 36.3947 34.5051 -0.254565 36.5208 
34.7376 0.143881 36.4531 28.2647 -1.57655 36.6498 34.6997 -1.14692 36.6721 
34.5779 -1.88849 36.977 35.0518 -1.37949 36.2602 27.9616 -2.51687 36.3524 
33.6879 -2.67153 37.1919 34.4542 -2.76651 36.8473 35.0691 -2.38047 36.3114 
28.6919 -3.47559 37.0053 28.1316 -3.46242 36.5098 29.3981 -3.57166 37.0827 
32.831 -3.63463 37.2034 33.5897 -3.61816 36.8513 34.3381 -3.61641 36.3386 
34.814 -3.11167 36.3988 28.8618 -3.91452 36.2444 29.7017 -3.96069 36.5391 
30.0803 -4.44148 36.5053 32.6835 -4.41849 36.9995 33.2673 -4.39196 36.5715 
33.7949 -4.13405 36.3271 30.5779 -5.44587 36.9695 30.3347 -5.3836 36.3393 
31.04 -5.56235 36.7016 31.794 -5.28522 36.4481 32.7655 -4.91246 36.3631 
30.897 -5.83101 36.2438 27.7028 10.9501 35.1673 27.0925 10.5584 35.76 
28.6673 10.9255 35.7695 29.1615 10.5466 35.3696 26.5715 10.18 35.3434 
26.2659 9.48838 35.528 28.6379 9.31662 35.9569 29.0491 9.83882 35.5906 
26.0693 8.32146 35.3489 28.2636 8.71952 35.5277 28.6179 9.21824 35.3434 
26.1867 7.28133 35.6198 28.7576 7.52084 36.0679 28.2988 7.66967 35.2718 
26.3147 6.40323 35.2074 28.9069 6.93559 35.5899 29.519 6.50575 35.8464 
29.1872 6.24856 35.1177 26.6651 5.89328 35.8026 26.9673 5.18443 35.2583 
30.0108 6.00469 35.6016 30.9226 5.76999 35.702 31.5859 5.567 35.8163 
31.1955 5.47868 35.3989 27.8201 4.592 36.0772 27.4061 4.60182 35.3692 
31.8151 5.09356 35.4262 32.7855 4.7738 35.7342 33.1211 4.14667 35.3923 
27.997 4.01336 35.6002 28.5884 3.55119 35.8387 28.2578 3.29291 35.1073 
33.4056 3.30297 35.2161 28.8208 3.04249 35.597 29.2077 2.50186 35.816 
33.7451 2.93635 35.8015 34.0439 2.13329 35.3929 29.471 1.84339 35.4264 
29.7815 1.15531 35.9091 29.9942 1.19792 35.2334 34.2416 1.46811 35.3955 
29.6022 0.227469 35.9981 30.1372 0.635532 35.4961 34.626 0.467038 36.2475 
34.4578 0.680743 35.4508 28.8233 -0.618114 36.2128 29.4408 -0.725362 35.803 
30.217 -0.184557 35.3356 34.6865 -0.125141 35.6236 34.8253 -0.726137 36.077 
35.0791 -0.479919 35.3558 28.5825 -1.52664 35.9343 29.2749 -1.36015 35.5722 
29.9034 -0.960606 35.4459 35.2494 -1.50033 35.5079 27.5565 -2.66114 35.9253 
27.8738 -2.18753 35.4002 27.3232 -2.79021 35.5304 28.9012 -1.81053 35.2464 
35.2449 -2.36825 35.3738 27.5689 -3.24012 35.96 27.2838 -3.38428 35.1596 
34.7464 -3.55082 36.0477 35.2369 -3.39479 35.3892 28.002 -3.87979 35.5138 
28.7347 -4.07984 35.442 29.4948 -4.2342 35.6171 29.982 -4.89881 35.6176 
33.5501 -4.63742 36.0497 34.2212 -4.57118 35.4493 34.7174 -4.05766 35.4945 
30.0995 -5.60437 35.4378 31.4924 -5.67605 36.0817 32.1209 -5.51979 35.6458 
[...]
CELL_DATA 15272
SCALARS scalars float
LOOKUP_TABLE default
1035 1035 1035 1035 1035 1035 1035 1035 1035 
1035 1035 1035 1035 1035 1035 1035 1035 1035 
1035 1035 1035 1035 1035 1035 1035 1035 1035 
1035 1035 1035 1035 1035 1035 1035 1035 1035 
1035 1035 1035 1035 1035 1035 1035 1035 1035 
1035 1035 1035 1035 1035 1035 1035 1035 1035 
1035 1035 1035 1035 1035 1035 1035 1035 1035 
1035 1035 1035 1035 1035 1035 1035 1035 1035 
1035 1035 1035 1035 1035 1035 1035 1035 1035 
1035 1035 1035 1035 1035 1035 1035 1035 1035 
1035 1035 1035 1035 1035 1035 1035 1035 1035 
1035 1035 1035 1035 1035 1035 1035 1035 1035 
1035 1035 1035 1035 1035 1035 1035 1035 1035 
1035 1035 1035 1035 1035 1035 1035 1035 1035 
1035 1035 1035 1035 1035 1035 1035 1035 1035 
1035 1035 1035 1035 1035 1035 1035 1035 1035 
1035 1035 1035 1035 1035 1035 1035 1035 1035 
1035 1035 1035 1035 1035 1035 1035 1035 1035 
1035 1035 1035 1035 1035 1035 1035 1035 1035 
1035 1035 1035 1035 1035 1035 1035 1035 1035 
1035 1035 1035 1035 1035 1035 1035 1035 1035 
1035 1035 1035 1035 1035 1035 1035 1035 1035 
1035 1035 1035 1035 1035 1035 1035 1035 1035 
1035 1035 1035 1035 1035 1035 1035 1035 1035 
1035 1035 1035 1035 1035 1035 1035 1035 1035 
1035 1035 1035 1035 1035 1035 1035 1035 1035 
1035 1035 1035 1035 1035 1035 1035 1035 1035 
1035 1035 1035 1035 1035 1035 1035 1035 1035 
1035 1035 1035 1035 1035 1035 1035 1035 1035 
1035 1035 1035 1035 1035 1035 1035 1035 1035 
1035 1035 1035 1035 1035 1035 1035 1035 1035 
1035 1035 1035 1035 1035 1035 1035 1035 1035 
1035 1035 1035 1035 1035 1035 1035 1035 1035 
1035 1035 1035 1035 1035 1035 1035 1035 1035 
1035 1035 1035 1035 1035 1035 1035 1035 1035 
1035 1035 1035 1035 1035 1035 1035 1035 1035 
1035 1035 1035 1035 1035 1035 1035 1035 1035 
1035 1035 1035 1035 1035 1035 1035 1035 1035 
1035 1035 1035 1035 1035 1035 1035 1035 1035 
1035 1035 1035 1035 1035 1035 1035 1035 1035 
1035 1035 1035 1035 1035 1035 1035 1035 1035 
1035 1035 1035 1035 1035 1035 1035 1035 1035 
1035 1035 1035 1035 1035 1035 1035 1035 1035 
1035 1035 1035 1035 1035 1035 1035 1035 1035 
1035 1035 1035 1035 1035 1035 1035 1035 1035 
1035 1035 1035 1035 1035 1035 1035 1035 1035 
1035 1035 1035 1035 1035 1035 1035 1035 1035 
1035 1035 1035 1035 1035 1035 1035 1035 1035 
1035 1035 1035 1035 1035 1035 1035 1035 1035 
1035 1035 1035 1035 1035 1035 1035 1035 1035 
1035 1035 1035 1035 1035 1035 1035 1035 1035 
1035 1035 1035 1035 1035 1035 1035 1035 1035 
1035 1035 1035 1035 1035 1035 1035 1035 1035 
1035 1035 1035 1035 1035 1035 1035 1035 1035 
1035 1035 1035 1035 1035 1035 1035 1035 1035 
1035 1035 1035 1035 1035 1035 1035 1035 1035 
1035 1035 1035 1035 1035 1035 1035 1035 1035 
1035 1035 1035 1035 1035 1035 1035 1035 1035 
1035 1035 1035 1035 1035 1035 1035 1035 1035 
1035 1035 1035 1035 1035 1035 1035 1035 1035 
1035 1035 1035 1035 1035 1035 1035 1035 1035 
1035 1035 1035 1035 1035 1035 1035 1035 1035 
1035 1035 1035 1035 1035 1035 1035 1035 1035 
1035 1035 1035 1035 1035 1035 1035 1035 1035 
1035 1035 1035 1035 1035 1035 1035 1035 1035 
1035 1035 1035 1035 1035 1035 1035 1035 1035 
1035 1035 1035 1035 1035 1035 1035 1035 1035 
1035 1035 1035 1035 1035 1035 1035 1035 1035 
1035 1035 1035 1035 1035 1035 1035 1035 1035 
1035 1035 1035 1035 1035 1035 1035 1035 1035 
1035 1035 1035 1035 1035 1035 1035 1035 1035 
1035 1035 1035 1035 1035 1035 1035 1035 1035 
1035 1035 1035 1035 1035 1035 1035 1035 1035 
1035 1035 1035 1035 1035 1035 1035 1035 1035 
1035 1035 1035 1035 1035 1035 1035 1035 1035 
1035 1035 1035 1035 1035 1035 1035 1035 1035 
1035 1035 1035 1035 1035 1035 1035 1035 1035 
1035 1035 1035 1035 1035 1035 1035 1035 1035 
1035 1035 1035 1035 1035 1035 1035 1035 1035 
1035 1035 1035 1035 1035 1035 1035 1035 1035 
1035 1035 1035 1035 1035 1035 1035 1035 1035 
1035 1035 1035 1035 1035 1035 1035 1035 1035 
1035 1035 1035 1035 1035 1035 1035 1035 1035 
1035 1035 1035 1035 1035 1035 1035 1035 1035 
1035 1035 1035 1035 1035 1035 1035 1035 1035 
1035 1035 1035 1035 1035 1035 1035 1035 1035 
1035 1035 1035 1035 1035 1035 1035 1035 1035 
1035 1035 1035 1035 1035 1035 1035 1035 1035 
1035 1035 1035 1035 1035 1035 1035 1035 1035 
1035 1035 1035 1035 1035 1035 1035 1035 1035 
1035 1035 1035 1035 1035 1035 1035 1035 1035 
1035 1035 1035 1035 1035 1035 1035 1035 1035 
1035 1035 1035 1035 1035 1035 1035 1035 1035 
1035 1035 1035 1035 1035 1035 1035 1035 1035 
1035 1035 1035 1035 1035 1035 1035 1035 1035 
1035 1035 1035 1035 1035 1035 1035 1035 1035 
1035 1035 1035 1035 1035 1035 1035 1035 1035 
1035 1035 1035 1035 1035 1035 1035 1035 1035 
1035 1035 1035 1035 1035 1035 1035 1035 1035 
1035 1035 1035 1035 1035 1035 1035 1035 1035 
1035 1035 1035 1035 1035 1035 1035 1035 1035 
1035 1035 1035 1035 1035 1035 1035 1035 1035 
1035 1035 1035 1035 1035 1035 1035 1035 1035 
1035 1035 1035 1035 1035 1035 1035 1035 1035 
1035 1035 1035 1035 1035 1035 1035 1035 1035 
1035 1035 1035 1035 1035 1035 1035 1035 1035 
1035 1035 1035 1035 1035 1035 1035 1035 1035 
1035 1035 1035 1035 1035 1035 1035 1035 1035 
1035 1035 1035 1035 1035 1035 1035 1035 1035 
1035 1035 1035 1035 1035 1035 1035 1035 1035 
1035 1035 1035 1035 1035 1035 1035 1035 1035 
1035 1035 1035 1035 1035 1035 1035 1035 1035 
1035 1035 1035 1035 1035 1035 1035 1035 1035 
1035 1035 1035 1035 1035 1035 1035 1035 1035 
1035 1035 1035 1035 1035 1035 1035 1035 1035 
1035 1035 1035 1035 1035 1035 1035 1035 1035 
1035 1035 1035 1035 1035 1035 1035 1035 1035 
1035 1035 1035 1035 1035 1035 1035 1035 1035 
1035 1035 1035 1035 1035 1035 1035 1035 1035 
1035 1035 1035 1035 1035 1035 1035 1035 1035 
1035 1035 1035 1035 1035 1035 1035 1035 1035 
1035 1035 1035 1035 1035 1035 1035 1035 1035 
1035 1035 1035 1035 1035 1035 1035 1035 1035 
1035 1035 1035 1035 1035 1035 1035 1035 1035 
1035 1035 1035 1035 1035 1035 1035 1035 1035 
1035 1035 1035 1035 1035 1035 1035 1035 1035 
1035 1035 1035 1035 1035 1035 1035 1035 1035 
1035 1035 1035 1035 1035 1035 1035 1035 1035 
1035 1035 1035 1035 1035 1035 1035 1035 1035 
1035 1035 1035 1035 1035 1035 1035 1035 1035 
1035 1035 1035 1035 1035 1035 1035 1035 1035 
1035 1035 1035 1035 1035 1035 1035 1035 1035 
1035 1035 1035 1035 1035 1035 1035 1035 1035 
1035 1035 1035 1035 1035 1035 1035 1035 1035 
1035 1035 1035 1035 1035 1035 1035 1035 1035 
1035 1035 1035 1035 1035 1035 1035 1035 1035 
1035 1035 1035 1035 1035 1035 1035 1035 1035 
1035 1035 1035 1035 1035 1035 1035 1035 1035 
1035 1035 1035 1035 1035 1035 1035 1035 1035 
1035 1035 1035 1035 1035 1035 1035 1035 1035 
1035 1035 1035 1035 1035 1035 1035 1035 1035 
1035 1035 1035 1035 1035 1035 1035 1035 1035 
1035 1035 1035 1035 1035 1035 1035 1035 1035 
1035 1035 1035 1035 1035 1035 1035 1035 1035 
1035 1035 1035 1035 1035 1035 1035 1035 1035 
1035 1035 1035 1035 1035 1035 1035 1035 1035 
1035 1035 1035 1035 1035 1035 1035 1035 1035 
1035 1035 1035 1035 1035 1035 1035 1035 1035 
1035 1035 1035 1035 1035 1035 1035 1035 1035 
1035 1035 1035 1035 1035 1035 1035 1035 1035 
1035 1035 1035 1035 1035 1035 1035 1035 1035 
1035 1035 1035 1035 1035 1035 1035 1035 1035 
1035 1035 1035 1035 1035 1035 1035 1035 1035 
1035 1035 1035 1035 1035 1035 1035 1035 1035 
1035 1035 1035 1035 1035 1035 1035 1035 1035 
1035 1035 1035 1035 1035 1035 1035 1035 1035 
1035 1035 1035 1035 1035 1035 1035 1035 1035 
1035 1035 1035 1035 1035 1035 1035 1035 1035 
1035 1035 1035 1035 1035 1035 1035 1035 1035 
1035 1035 1035 1035 1035 1035 1035 1035 1035 
1035 1035 1035 1035 1035 1035 1035 1035 1035 
1035 1035 1035 1035 1035 1035 1035 1035 1035 
1035 1035 1035 1035 1035 1035 1035 1035 1035 
1035 1035 1035 1035 1035 1035 1035 1035 1035 
1035 1035 1035 1035 1035 1035 1035 1035 1035 
1035 1035 1035 1035 1035 1035 1035 1035 1035 
1035 1035 1035 1035 1035 1035 1035 1035 1035 
1035 1035 1035 1035 1035 1035 1035 1035 1035 
1035 1035 1035 1035 1035 1035 1035 1035 1035 
1035 1035 1035 1035 1035 1035 1035 1035 1035 
1035 1035 1035 1035 1035 1035 1035 1035 1035 
1035 1035 1035 1035 1035 1035 1035 1035 1035 
1035 1035 1035 1035 1035 1035 1035 1035 1035 
1035 1035 1035 1035 1035 1035 1035 1035 1035 
1035 1035 1035 1035 1035 1035 1035 1035 1035 
1035 1035 1035 1035 1035 1035 1035 1035 1035 
1035 1035 1035 1035 1035 1035 1035 1035 1035 
1035 1035 1035 1035 1035 1035 1035 1035 1035 
1035 1035 1035 1035 1035 1035 1035 1035 1035 
1035 1035 1035 1035 1035 1035 1035 1035 1035 
1035 1035 1035 1035 1035 1035 1035 1035 1035 
1035 1035 1035 1035 1035 1035 1035 1035 1035 
1035 1035 1035 1035 1035 1035 1035 1035 1035 
1035 1035 1035 1035 1035 1035 1035 1035 1035 
1035 1035 1035 1035 1035 1035 1035 1035 1035 
1035 1035 1035 1035 1035 1035 1035 1035 1035 
1035 1035 1035 1035 1035 1035 1035 1035 1035 
1035 1035 1035 1035 1035 1035 1035 1035 1035 
1035 1035 1035 1035 1035 1035 1035 1035 1035 
1035 1035 1035 1035 1035 1035 1035 1035 1035 
1035 1035 1035 1035 1035 1035 1035 1035 1035 
1035 1035 1035 1035 1035 1035 1035 1035 1035 
1035 1035 1035 1035 1035 1035 1035 1035 1035 
1035 1035 1035 1035 1035 1035 1035 1035 1035 
1035 1035 1035 1035 1035 1035 1035 1035 1035 
1035 1035 1035 1035 1035 1035 1035 1035 1035 
1035 1035 1035 1035 1035 1035 1035 1035 1035 
1035 1035 1035 1035 1035 1035 1035 1035 1035 
1035 1035 1035 1035 1035 1035 1035 1035 1035 
1035 1035 1035 1035 1035 1035 1035 1035 1035 
1035 1035 1035 1035 1035 1035 1035 1035 1035 
1035 1035 1035 1035 1035 1035 1035 1035 1035 
1035 1035 1035 1035 1035 1035 1035 1035 1035 
1035 1035 1035 1035 1035 1035 1035 1035 1035 
1035 1035 1035 1035 1035 1035 1035 1035 1035 
1035 1035 1035 1035 1035 1035 1035 1035 1035 
1035 1035 1035 1035 1035 1035 1035 1035 1035 
1035 1035 1035 1035 1035 1035 1035 1035 1035 
1035 1035 1035 1035 1035 1035 1035 1035 1035 
1035 1035 1035 1035 1035 1035 1035 1035 1035 
1035 1035 1035 1035 1035 1035 1035 1035 1035 
1035 1035 1035 1035 1035 1035 1035 1035 1035 
1035 1035 1035 1035 1035 1035 1035 1035 1035 
1035 1035 1035 1035 1035 1035 1035 1035 1035 
1035 1035 1035 1035 1035 1035 1035 1035 1035 
1035 1035 1035 1035 1035 1035 1035 1035 1035 
1035 1035 1035 1035 1035 1035 1035 1035 1035 
1035 1035 1035 1035 1035 1035 1035 1035 1035 
1035 1035 1035 1035 1035 1035 1035 1035 1035 
1035 1035 1035 1035 1035 1035 1035 1035 1035 
1035 1035 1035 1035 1035 1035 1035 1035 1035 
1035 1035 1035 1035 1035 1035 1035 1035 1035 
1035 1035 1035 1035 1035 1035 1035 1035 1035 
1035 1035 1035 1035 1035 1035 1035 1035 1035 
1035 1035 1035 1035 1035 1035 1035 1035 1035 
1035 1035 1035 1035 1035 1035 1035 1035 1035 
1035 1035 1035 1035 1035 1035 1035 1035 1035 
1035 1035 1035 1035 1035 1035 1035 1035 1035 
1035 1035 1035 1035 1035 1035 1035 1035 1035 
1035 1035 1035 1035 1035 1035 1035 1035 1035 
1035 1035 1035 1035 1035 1035 1035 1035 1035 
1035 1035 1035 1035 1035 1035 1035 1035 1035 
1035 1035 1035 1035 1035 1035 1035 1035 1035 
1035 1035 1035 1035 1035 1035 1035 1035 1035 
1035 1035 1035 1035 1035 1035 1035 1035 1035 
1035 1035 1035 1035 1035 1035 1035 1035 1035 
1035 1035 1035 1035 1035 1035 1035 1035 1035 
1035 1035 1035 1035 1035 1035 1035 1035 1035 
1035 1035 1035 1035 1035 1035 1035 1035 1035 
1035 1035 1035 1035 1035 1035 1035 1035 1035 
1035 1035 1035 1035 1035 1035 1035 1035 1035 
1035 1035 1035 1035 1035 1035 1035 1035 1035 
1035 1035 1035 1035 1035 1035 1035 1035 1035 
1035 1035 1035 1035 1035 1035 1035 1035 1035 
1035 1035 1035 1035 1035 1035 1035 1035 1035 
1035 1035 1035 1035 1035 1035 1035 1035 1035 
1035 1035 1035 1035 1035 1035 1035 1035 1035 
1035 1035 1035 1035 1035 1035 1035 1035 1035 
1035 1035 1035 1035 1035 1035 1035 1035 1035 
1035 1035 1035 1035 1035 1035 1035 1035 1035 
1035 1035 1035 1035 1035 1035 1035 1035 1035 
1035 1035 1035 1035 1035 1035 1035 1035 1035 
1035 1035 1035 1035 1035 1035 1035 1035 1035 
1035 1035 1035 1035 1035 1035 1035 1035 1035 
1035 1035 1035 1035 1035 1035 1035 1035 1035 
1035 1035 1035 1035 1035 1035 1035 1035 1035 
1035 1035 1035 1035 1035 1035 1035 1035 1035 
1035 1035 1035 1035 1035 1035 1035 1035 1035 
1035 1035 1035 1035 1035 1035 1035 1035 1035 
1035 1035 1035 1035 1035 1035 1035 1035 1035 
1035 1035 1035 1035 1035 1035 1035 1035 1035 
1035 1035 1035 1035 1035 1035 1035 1035 1035 
1035 1035 1035 1035 1035 1035 1035 1035 1035 
1035 1035 1035 1035 1035 1035 1035 1035 1035 
1035 1035 1035 1035 1035 1035 1035 1035 1035 
1035 1035 1035 1035 1035 1035 1035 1035 1035 
1035 1035 1035 1035 1035 1035 1035 1035 1035 
1035 1035 1035 1035 1035 1035 1035 1035 1035 
1035 1035 1035 1035 1035 1035 1035 1035 1035 
1035 1035 1035 1035 1035 1035 1035 1035 1035 
1035 1035 1035 1035 1035 1035 1035 1035 1035 
1035 1035 1035 1035 1035 1035 1035 1035 1035 
1035 1035 1035 1035 1035 1035 1035 1035 1035 
1035 1035 1035 1035 1035 1035 1035 1035 1035 
1035 1035 1035 1035 1035 1035 1035 1035 1035 
1035 1035 1035 1035 1035 1035 1035 1035 1035 
1035 1035 1035 1035 1035 1035 1035 1035 1035 
1035 1035 1035 1035 1035 1035 1035 1035 1035 
1035 1035 1035 1035 1035 1035 1035 1035 1035 
1035 1035 1035 1035 1035 1035 1035 1035 1035 
1035 1035 1035 1035 1035 1035 1035 1035 1035 
1035 1035 1035 1035 1035 1035 1035 1035 1035 
1035 1035 1035 1035 1035 1035 1035 1035 1035 
1035 1035 1035 1035 1035 1035 1035 1035 1035 
1035 1035 1035 1035 1035 1035 1035 1035 1035 
1035 1035 1035 1035 1035 1035 1035 1035 1035 
1035 1035 1035 1035 1035 1035 1035 1035 1035 
1035 1035 1035 1035 1035 1035 1035 1035 1035 
1035 1035 1035 1035 1035 1035 1035 1035 1035 
1035 1035 1035 1035 1035 1035 1035 1035 1035 
1035 1035 1035 1035 1035 1035 1035 1035 1035 
1035 1035 1035 1035 1035 1035 1035 1035 1035 
1035 1035 1035 1035 1035 1035 1035 1035 1035 
1035 1035 1035 1035 1035 1035 1035 1035 1035 
1035 1035 1035 1035 1035 1035 1035 1035 1035 
1035 1035 1035 1035 1035 1035 1035 1035 1035 
1035 1035 1035 1035 1035 1035 1035 1035 1035 
1035 1035 1035 1035 1035 1035 1035 1035 1035 
1035 1035 1035 1035 1035 1035 1035 1035 1035 
1035 1035 1035 1035 1035 1035 1035 1035 1035 
1035 1035 1035 1035 1035 1035 1035 1035 1035 
1035 1035 1035 1035 1035 1035 1035 1035 1035 
1035 1035 1035 1035 1035 1035 1035 1035 1035 
1035 1035 1035 1035 1035 1035 1035 1035 1035 
1035 1035 1035 1035 1035 1035 1035 1035 1035 
1035 1035 1035 1035 1035 1035 1035 1035 1035 
1035 1035 1035 1035 1035 1035 1035 1035 1035 
1035 1035 1035 1035 1035 1035 1035 1035 1035 
1035 1035 1035 1035 1035 1035 1035 1035 1035 
1035 1035 1035 1035 1035 1035 1035 1035 1035 
1035 1035 1035 1035 1035 1035 1035 1035 1035 
1035 1035 1035 1035 1035 1035 1035 1035 1035 
1035 1035 1035 1035 1035 1035 1035 1035 1035 
1035 1035 1035 1035 1035 1035 1035 1035 1035 
1035 1035 1035 1035 1035 1035 1035 1035 1035 
1035 1035 1035 1035 1035 1035 1035 1035 1035 
1035 1035 1035 1035 1035 1035 1035 1035 1035 
1035 1035 1035 1035 1035 1035 1035 1035 1035 
1035 1035 1035 1035 1035 1035 1035 1035 1035 
1035 1035 1035 1035 1035 1035 1035 1035 1035 
1035 1035 1035 1035 1035 1035 1035 1035 1035 
1035 1035 1035 1035 1035 1035 1035 1035 1035 
1035 1035 1035 1035 1035 1035 1035 1035 1035 
1035 1035 1035 1035 1035 1035 1035 1035 1035 
1035 1035 1035 1035 1035 1035 1035 1035 1035 
1035 1035 1035 1035 1035 1035 1035 1035 1035 
1035 1035 1035 1035 1035 1035 1035 1035 1035 
1035 1035 1035 1035 1035 1035 1035 1035 1035 
1035 1035 1035 1035 1035 1035 1035 1035 1035 
1035 1035 1035 1035 1035 1035 1035 1035 1035 
1035 1035 1035 1035 1035 1035 1035 1035 1035 
1035 1035 1035 1035 1035 1035 1035 1035 1035 
1035 1035 1035 1035 1035 1035 1035 1035 1035 
1035 1035 1035 1035 1035 1035 1035 1035 1035 
1035 1035 1035 1035 1035 1035 1035 1035 1035 
1035 1035 1035 1035 1035 1035 1035 1035 1035 
1035 1035 1035 1035 1035 1035 1035 1035 1035 
1035 1035 1035 1035 1035 1035 1035 1035 1035 
1035 1035 1035 1035 1035 1035 1035 1035 1035 
1035 1035 1035 1035 1035 1035 1035 1035 1035 
1035 1035 1035 1035 1035 1035 1035 1035 1035 
1035 1035 1035 1035 1035 1035 1035 1035 1035 
1035 1035 1035 1035 1035 1035 1035 1035 1035 
1035 1035 1035 1035 1035 1035 1035 1035 1035 
1035 1035 1035 1035 1035 1035 1035 1035 1035 
1035 1035 1035 1035 1035 1035 1035 1035 1035 
1035 1035 1035 1035 1035 1035 1035 1035 1035 
1035 1035 1035 1035 1035 1035 1035 1035 1035 
1035 1035 1035 1035 1035 1035 1035 1035 1035 
1035 1035 1035 1035 1035 1035 1035 1035 1035 
1035 1035 1035 1035 1035 1035 1035 1035 1035 
1035 1035 1035 1035 1035 1035 1035 1035 1035 
1035 1035 1035 1035 1035 1035 1035 1035 1035 
1035 1035 1035 1035 1035 1035 1035 1035 1035 
1035 1035 1035 1035 1035 1035 1035 1035 1035 
1035 1035 1035 1035 1035 1035 1035 1035 1035 
1035 1035 1035 1035 1035 1035 1035 1035 1035 
1035 1035 1035 1035 1035 1035 1035 1035 1035 
1035 1035 1035 1035 1035 1035 1035 1035 1035 
1035 1035 1035 1035 1035 1035 1035 1035 1035 
1035 1035 1035 1035 1035 1035 1035 1035 1035 
1035 1035 1035 1035 1035 1035 1035 1035 1035 
1035 1035 1035 1035 1035 1035 1035 1035 1035 
1035 1035 1035 1035 1035 1035 1035 1035 1035 
1035 1035 1035 1035 1035 1035 1035 1035 1035 
1035 1035 1035 1035 1035 1035 1035 1035 1035 
1035 1035 1035 1035 1035 1035 1035 1035 1035 
1035 1035 1035 1035 1035 1035 1035 1035 1035 
1035 1035 1035 1035 1035 1035 1035 1035 1035 
1035 1035 1035 1035 1035 1035 1035 1035 1035 
1035 1035 1035 1035 1035 1035 1035 1035 1035 
1035 1035 1035 1035 1035 1035 1035 1035 1035 
1035 1035 1035 1035 1035 1035 1035 1035 1035 
1035 1035 1035 1035 1035 1035 1035 1035 1035 
1035 1035 1035 1035 1035 1035 1035 1035 1035 
1035 1035 1035 1035 1035 1035 1035 1035 1035 
1035 1035 1035 1035 1035 1035 1035 1035 1035 
1035 1035 1035 1035 1035 1035 1035 1035 1035 
1035 1035 1035 1035 1035 1035 1035 1035 1035 
1035 1035 1035 1035 1035 1035 1035 1035 1035 
1035 1035 1035 1035 1035 1035 1035 1035 1035 
1035 1035 1035 1035 1035 1035 1035 1035 1035 
1035 1035 1035 1035 1035 1035 1035 1035 1035 
1035 1035 1035 1035 1035 1035 1035 1035 1035 
1035 1035 1035 1035 1035 1035 1035 1035 1035 
1035 1035 1035 1035 1035 1035 1035 1035 1035 
1035 1035 1035 1035 1035 1035 1035 1035 1035 
1035 1035 1035 1035 1035 1035 1035 1035 1035 
1035 1035 1035 1035 1035 1035 1035 1035 1035 
1035 1035 1035 1035 1035 1035 1035 1035 1035 
1035 1035 1035 1035 1035 1035 1035 1035 1035 
1035 1035 1035 1035 1035 1035 1035 1035 1035 
1035 1035 1035 1035 1035 1035 1035 1035 1035 
1035 1035 1035 1035 1035 1035 1035 1035 1035 
1035 1035 1035 1035 1035 1035 1035 1035 1035 
1035 1035 1035 1035 1035 1035 1035 1035 1035 
1035 1035 1035 1035 1035 1035 1035 1035 1035 
1035 1035 1035 1035 1035 1035 1035 1035 1035 
1035 1035 1035 1035 1035 1035 1035 1035 1035 
1035 1035 1035 1035 1035 1035 1035 1035 1035 
1035 1035 1035 1035 1035 1035 1035 1035 1035 
1035 1035 1035 1035 1035 1035 1035 1035 1035 
1035 1035 1035 1035 1035 1035 1035 1035 1035 
1035 1035 1035 1035 1035 1035 1035 1035 1035 
1035 1035 1035 1035 1035 1035 1035 1035 1035 
1035 1035 1035 1035 1035 1035 1035 1035 1035 
1035 1035 1035 1035 1035 1035 1035 1035 1035 
1035 1035 1035 1035 1035 1035 1035 1035 1035 
1035 1035 1035 1035 1035 1035 1035 1035 1035 
1035 1035 1035 1035 1035 1035 1035 1035 1035 
1035 1035 1035 1035 1035 1035 1035 1035 1035 
1035 1035 1035 1035 1035 1035 1035 1035 1035 
1035 1035 1035 1035 1035 1035 1035 1035 1035 
1035 1035 1035 1035 1035 1035 1035 1035 1035 
1035 1035 1035 1035 1035 1035 1035 1035 1035 
1035 1035 1035 1035 1035 1035 1035 1035 1035 
1035 1035 1035 1035 1035 1035 1035 1035 1035 
1035 1035 1035 1035 1035 1035 1035 1035 1035 
1035 1035 1035 1035 1035 1035 1035 1035 1035 
1035 1035 1035 1035 1035 1035 1035 1035 1035 
1035 1035 1035 1035 1035 1035 1035 1035 1035 
1035 1035 1035 1035 1035 1035 1035 1035 1035 
1035 1035 1035 1035 1035 1035 1035 1035 1035 
1035 1035 1035 1035 1035 1035 1035 1035 1035 
1035 1035 1035 1035 1035 1035 1035 1035 1035 
1035 1035 1035 1035 1035 1035 1035 1035 1035 
1035 1035 1035 1035 1035 1035 1035 1035 1035 
1035 1035 1035 1035 1035 1035 1035 1035 1035 
1035 1035 1035 1035 1035 1035 1035 1035 1035 
1035 1035 1035 1035 1035 1035 1035 1035 1035 
1035 1035 1035 1035 1035 1035 1035 1035 1035 
1035 1035 1035 1035 1035 1035 1035 1035 1035 
1035 1035 1035 1035 1035 1035 1035 1035 1035 