# vtk DataFile Version 4.2
vtk output
ASCII
DATASET POLYDATA
POINTS 4014 float
34.2017 77.7523 -17.766 34.2823 77.606 -17.2329 34.6705 77.5553 -17.6903 
33.9005 77.3754 -17.5524 34.396 77.7586 -18.3132 34.7474 77.6101 -18.4277 
33.9556 77.3904 -18.5088 34.5896 77.4086 -18.8329 34.3241 76.7679 -14.7592 
34.2731 76.5462 -14.3191 34.6459 76.5158 -14.5661 34.0619 76.2665 -14.7037 
34.9366 76.8111 -15.309 35.3345 76.253 -14.9359 35.5525 76.2595 -15.7207 
34.054 76.9538 -15.6311 33.7732 76.3401 -15.5418 35.1759 76.6135 -16.0361 
35.1126 76.5958 -16.6264 34.412 77.1144 -16.6225 33.4047 76.6426 -16.0991 
33.4015 76.8444 -16.5717 33.0352 76.2652 -16.8019 35.1463 76.892 -17.3245 
35.4377 76.3336 -16.923 35.633 76.356 -17.6016 33.4439 76.8718 -17.413 
32.9541 76.3252 -17.4643 35.2087 77.0758 -18.3315 35.688 76.1837 -18.6114 
33.4766 76.7899 -18.2659 33.1227 76.3317 -18.1047 35.0968 76.7649 -19.1365 
34.0936 77.025 -19.5602 34.8772 76.3775 -19.8932 33.4423 76.7281 -19.0691 
33.2694 76.7787 -19.8287 32.9625 76.2195 -19.3702 34.1327 76.8757 -20.5332 
34.577 76.3082 -20.5683 33.3992 76.9456 -20.6018 32.8914 76.3706 -20.3239 
34.1204 76.5763 -21.0963 33.7469 76.2453 -21.6409 33.5342 76.8414 -21.357 
32.9831 76.4504 -21.2704 33.2117 76.3214 -21.8046 35.9951 75.8371 -14.6002 
36.3991 75.246 -14.1696 36.6395 75.5768 -14.4749 35.2028 75.8764 -14.5454 
35.5244 75.5303 -14.265 34.2701 76.2839 -14.4001 34.8592 75.1881 -14.4925 
36.6005 75.4011 -14.9244 35.9711 75.5277 -15.5499 34.4909 75.8211 -14.7412 
33.941 75.4588 -15.3853 35.4345 76.2392 -16.3472 35.7229 75.7912 -16.5795 
33.3402 76.0975 -16.3772 33.5514 75.3387 -16.2047 35.819 75.4977 -17.5313 
33.1583 75.6478 -16.8122 32.8202 75.6349 -17.364 35.8244 75.3176 -18.3664 
33.1498 76.2326 -18.7002 32.7538 75.7178 -18.4206 35.4513 76.0994 -19.4297 
35.6977 75.2875 -19.4705 32.6342 75.6036 -19.5753 35.3136 75.6751 -19.9655 
34.9448 75.7486 -20.3966 32.64 75.6472 -20.6232 34.5369 75.6542 -21.0916 
34.0147 75.4668 -21.6983 32.8015 75.6814 -21.5037 31.3274 75.6396 -21.5687 
31.3392 75.4832 -21.353 31.7795 75.2681 -21.4833 30.9475 75.4122 -21.3856 
33.2613 75.4042 -21.9274 31.1944 75.2198 -21.8146 37.0872 75.0644 -14.5062 
37.3337 74.4746 -14.0561 37.5245 74.3422 -14.5973 36.354 74.4142 -13.8624 
35.4753 74.7743 -14.1165 34.7155 74.3353 -14.3459 37.0582 74.6432 -15.0351 
36.4722 74.9339 -15.4353 36.7033 74.168 -15.5332 34.2901 74.7733 -14.9731 
33.8044 74.5676 -15.5598 32.3192 74.7426 -15.8597 32.425 74.4243 -15.2318 
32.8696 74.5663 -15.7095 31.9288 74.245 -15.2727 36.2007 74.5656 -15.8483 
35.8972 74.6229 -16.5102 33.3794 74.5974 -15.9607 32.9165 75.0349 -16.5827 
32.2528 74.8521 -16.7175 31.8751 74.3981 -16.2283 35.775 74.4763 -17.5046 
32.3866 75.0101 -17.6805 31.9301 74.4003 -17.2805 35.7841 74.4925 -18.5057 
32.3069 74.9795 -18.8422 31.961 74.3497 -18.2947 35.8179 74.3129 -19.4014 
32.3002 74.9489 -19.86 31.8373 74.2878 -19.2583 35.2709 75.1557 -20.4698 
35.6312 74.3111 -20.3425 32.2205 75.0637 -20.8811 31.7557 74.4823 -20.167 
30.251 74.8447 -20.8978 30.462 74.3778 -20.268 30.7835 74.5325 -20.5215 
29.8636 74.1373 -20.3699 35.0862 74.6536 -21.071 34.5201 74.9531 -21.5215 
34.7565 74.1898 -21.5761 32.5049 75.1952 -21.6188 31.3054 74.8843 -20.8809 
30.3632 75.172 -21.5548 29.3687 74.5178 -20.9763 29.3656 74.8413 -21.4661 
28.494 74.7008 -21.6271 28.6315 74.3588 -21.1225 27.934 74.3185 -21.5952 
34.0017 74.5644 -21.9194 33.1536 74.355 -22.0759 32.1814 74.6418 -21.966 
31.1429 74.3506 -22.0373 30.1468 74.5452 -21.9267 28.9352 74.4323 -21.9108 
28.2961 74.4723 -21.8623 41.3312 73.6571 -11.5483 41.2704 73.299 -11.1491 
41.6168 73.5752 -11.5302 40.9117 73.3853 -11.4693 41.4332 73.358 -11.8083 
40.241 73.5683 -12.2612 40.5049 73.4698 -12.4056 40.2606 73.6463 -12.5177 
40.0421 73.4813 -12.4104 40.4034 73.299 -12.798 38.0054 73.801 -13.6323 
38.3788 73.4513 -13.1894 38.6179 73.4972 -13.536 37.0536 73.9807 -13.5398 
37.4363 73.4038 -13.033 36.2309 73.81 -13.5934 36.3954 73.3446 -13.2527 
35.7277 73.3248 -13.4522 34.2287 73.7359 -13.8437 34.4074 73.1419 -13.2388 
34.8025 73.4766 -13.5262 33.6771 73.3273 -13.4217 38.5792 73.3277 -13.9513 
37.9353 73.7791 -14.3203 35.3548 73.837 -13.7919 34.0071 74.1228 -14.7407 
33.1756 73.4309 -13.821 33.2507 73.834 -14.3657 32.3848 73.9952 -14.7151 
32.4951 73.5223 -14.2009 31.9246 73.4509 -14.6097 37.4912 73.6084 -15.0353 
36.8959 73.5667 -15.5416 33.1856 74.1944 -15.1899 31.614 73.3908 -15.5334 
36.4345 73.5635 -16.007 35.9165 73.3954 -16.8312 31.7484 73.7338 -16.6707 
35.753 73.6423 -17.6934 31.8092 73.5459 -17.562 24.3182 73.7039 -17.4621 
24.4211 73.36 -17.2644 24.5272 73.3249 -17.72 24.1086 73.2385 -17.523 
35.9093 73.4998 -18.6442 31.709 73.383 -18.5455 24.2172 73.4263 -17.9132 
35.9338 73.4253 -19.8311 31.1801 73.4517 -19.0868 31.1957 73.9839 -19.6089 
30.4689 73.9727 -19.7769 30.4034 73.3801 -19.2249 29.8387 73.4449 -19.6404 
27.1758 73.8484 -19.6428 27.3855 73.1704 -19.0995 27.947 73.5333 -19.6021 
26.0983 73.9211 -19.5689 26.4957 73.5568 -19.0989 25.0375 73.9224 -19.5983 
25.3621 73.3781 -19.153 24.1396 73.8814 -19.5048 24.283 73.4908 -19.0779 
23.5544 73.7531 -19.7441 23.3662 73.3926 -19.1965 22.8752 73.3318 -19.456 
35.6752 73.3343 -20.5747 31.0562 74.2775 -20.2066 29.5571 73.457 -20.2473 
27.9701 73.9463 -20.5148 28.507 73.3948 -20.0714 28.7383 73.6456 -20.6151 
27.1427 74.0358 -20.621 26.3536 74.0352 -20.4615 25.3287 74.0544 -20.4826 
24.1677 73.9448 -20.4476 23.5543 73.6114 -20.3354 23.0983 73.442 -19.9299 
35.3142 73.7419 -21.0749 34.8622 73.2326 -21.5835 29.2322 73.8302 -20.7545 
27.2086 74.0957 -21.5093 26.3058 74.0549 -21.5403 25.3125 74.0624 -21.5422 
24.2886 74.0562 -21.5372 23.3533 73.631 -20.8395 23.297 73.9096 -21.4251 
22.4859 73.771 -21.8546 22.5852 73.5394 -21.1177 21.9393 73.2118 -21.4515 
34.1787 73.4754 -21.9223 33.3095 73.4861 -22.0487 32.3172 73.4529 -22.0467 
31.2852 73.475 -22.0456 30.4355 73.6507 -22.0558 29.3541 73.5233 -22.1586 
28.2403 73.8796 -22.1597 27.3915 73.9056 -22.2712 27.8324 73.3786 -22.6074 
26.3961 73.9404 -22.5464 25.282 74.0598 -22.5873 24.4227 74.0697 -22.4389 
23.4204 73.9099 -22.5466 22.5764 73.3931 -22.6654 22.0906 73.4219 -22.1675 
27.1622 73.3888 -22.8506 26.3818 73.4856 -23.215 25.9229 73.4079 -23.6674 
25.4981 73.8632 -23.3637 24.406 73.8893 -23.3745 23.631 73.6248 -23.4777 
23.1263 73.4243 -23.1943 25.1038 73.305 -23.9675 24.0658 73.2635 -23.9458 
42.0628 72.8256 -9.743 42.0952 72.3395 -9.0668 42.7095 72.5482 -9.6544 
41.7034 72.3979 -9.40638 42.3634 72.9542 -10.362 42.868 72.3879 -10.8156 
41.2844 72.3616 -9.88959 41.6723 72.9972 -10.5004 40.8238 72.528 -10.5188 
42.1025 73.068 -11.2894 42.6559 72.2331 -11.7745 40.2578 73.1798 -11.8464 
40.4219 72.7877 -11.0266 39.0089 72.894 -11.6277 39.5244 72.5033 -10.975 
37.983 72.8756 -11.6175 38.5361 72.4916 -10.9639 37.2568 72.7616 -11.7401 
37.6243 72.4124 -11.2458 37.0782 72.4913 -11.6611 42.0846 72.7076 -12.1109 
41.2015 73.0376 -12.4438 41.8491 72.5288 -12.5886 39.5611 73.1652 -12.5814 
38.3836 73.1449 -12.5052 37.3224 72.9476 -12.3454 36.7609 72.3785 -12.1957 
41.3413 72.4876 -13.0816 40.227 72.8794 -13.3543 40.8754 72.322 -13.6443 
39.1643 73.0825 -13.4254 36.4901 72.7642 -12.822 35.146 73.2241 -13.4147 
35.4026 72.7199 -13.029 34.2579 72.3837 -12.8633 33.0707 72.9576 -13.5167 
33.5287 72.6941 -13.1724 32.8208 72.1965 -13.4829 40.1759 72.3846 -13.8589 
39.2478 72.5427 -14.1519 38.3548 73.0066 -14.5269 38.8746 72.2966 -14.5836 
32.3954 72.8029 -13.9667 31.7037 72.4106 -14.6026 38.183 72.4501 -15.0129 
37.2566 72.993 -15.5127 37.6907 72.1551 -15.4936 31.286 72.5947 -15.1616 
31.308 72.768 -15.6485 31.0582 72.271 -15.4107 36.9701 72.585 -15.9814 
36.3679 72.8383 -16.4071 36.6794 72.1345 -16.6409 31.6402 72.8286 -16.4927 
31.2539 72.15 -15.9235 36.1643 72.5749 -16.891 35.9812 72.7943 -17.6079 
31.8152 72.5304 -17.5719 24.326 72.5802 -17.2179 24.6425 72.7397 -17.4478 
23.8203 72.2823 -17.5196 36.2192 72.8006 -18.4254 36.3588 72.3275 -17.9122 
36.6042 72.3333 -18.5841 31.7225 72.2273 -18.4271 24.3868 73.05 -18.6103 
24.7185 72.458 -18.2219 23.7981 72.5888 -18.3427 36.3106 72.9079 -19.2364 
36.6696 72.1416 -19.5867 31.1629 72.527 -18.9139 30.2717 72.5248 -19.0041 
29.1753 72.9628 -19.6254 29.335 72.5341 -19.1102 28.4345 73.0726 -19.5396 
28.1692 72.4358 -19.0903 27.1235 72.3264 -18.9717 26.2474 72.797 -19.1267 
25.3979 72.7635 -19.5053 25.684 72.1502 -19.6163 24.9055 72.4768 -19.2421 
23.4893 72.7264 -18.9054 22.3883 72.963 -19.8538 22.5914 72.463 -19.0683 
21.9253 72.2144 -19.3237 36.2643 72.6693 -19.9892 35.917 72.7444 -20.4306 
29.0697 73.2296 -20.2526 25.1576 72.2339 -19.8395 22.9121 73.3166 -20.4664 
22.2207 73.1296 -20.6467 21.8169 72.5193 -20.4388 35.5465 72.6143 -21.0776 
35.0063 72.4184 -21.6437 21.6999 72.3825 -21.3982 34.3031 72.3606 -21.9274 
33.3184 72.4882 -22.028 32.4563 72.6065 -22.0351 31.3936 72.4495 -22.133 
30.2243 72.7772 -22.2067 29.3418 72.7583 -22.4425 29.8349 72.2887 -22.5806 
28.5893 73.0468 -22.541 22.1641 73.0882 -22.5767 21.869 72.6216 -22.2335 
29.194 72.3299 -22.8167 28.1024 72.5527 -23.0532 26.9432 72.5074 -23.2733 
26.4802 72.988 -23.5021 26.6112 72.5561 -23.5286 23.3983 73.1115 -23.6943 
22.9385 72.7816 -23.3938 22.4239 72.343 -22.9715 25.9929 72.6402 -23.8546 
25.1244 72.3484 -24.1436 24.4393 72.6175 -24.1555 23.6091 72.3777 -23.8901 
42.5126 72.0333 -8.73623 42.6049 71.2947 -8.20715 42.9127 71.6404 -8.58 
41.9331 71.3673 -8.54911 43.1485 71.9569 -9.25134 43.3935 71.3932 -8.86041 
43.6625 71.3729 -9.54924 41.3165 72.0234 -9.4805 41.3594 71.5925 -9.12138 
40.8075 71.5045 -9.52822 43.3344 71.9853 -10.1854 43.6939 71.1755 -10.5969 
39.9765 72.0602 -10.4836 40.4198 71.7319 -10.0048 39.0312 71.971 -10.4601 
39.4975 71.4719 -9.98837 38.1638 71.944 -10.65 38.3493 71.2976 -9.98148 
37.7656 71.3528 -10.4999 43.3115 71.6978 -10.9954 43.0786 71.6328 -11.6519 
37.545 71.6083 -11.1861 37.1327 71.9823 -11.715 42.2891 72.1072 -12.5217 
42.7947 71.6115 -12.3224 37.2099 71.4821 -11.7407 36.572 71.5681 -11.9791 
[...]
CELL_DATA 8040
SCALARS scalars float
LOOKUP_TABLE default
2019 2019 2019 2019 2019 2019 2019 2019 2019 
2019 2019 2019 2019 2019 2019 2019 2019 2019 
2019 2019 2019 2019 2019 2019 2019 2019 2019 
2019 2019 2019 2019 2019 2019 2019 2019 2019 
2019 2019 2019 2019 2019 2019 2019 2019 2019 
2019 2019 2019 2019 2019 2019 2019 2019 2019 
2019 2019 2019 2019 2019 2019 2019 2019 2019 
2019 2019 2019 2019 2019 2019 2019 2019 2019 
2019 2019 2019 2019 2019 2019 2019 2019 2019 
2019 2019 2019 2019 2019 2019 2019 2019 2019 
2019 2019 2019 2019 2019 2019 2019 2019 2019 
2019 2019 2019 2019 2019 2019 2019 2019 2019 
2019 2019 2019 2019 2019 2019 2019 2019 2019 
2019 2019 2019 2019 2019 2019 2019 2019 2019 
2019 2019 2019 2019 2019 2019 2019 2019 2019 
2019 2019 2019 2019 2019 2019 2019 2019 2019 
2019 2019 2019 2019 2019 2019 2019 2019 2019 
2019 2019 2019 2019 2019 2019 2019 2019 2019 
2019 2019 2019 2019 2019 2019 2019 2019 2019 
2019 2019 2019 2019 2019 2019 2019 2019 2019 
2019 2019 2019 2019 2019 2019 2019 2019 2019 
2019 2019 2019 2019 2019 2019 2019 2019 2019 
2019 2019 2019 2019 2019 2019 2019 2019 2019 
2019 2019 2019 2019 2019 2019 2019 2019 2019 
2019 2019 2019 2019 2019 2019 2019 2019 2019 
2019 2019 2019 2019 2019 2019 2019 2019 2019 
2019 2019 2019 2019 2019 2019 2019 2019 2019 
2019 2019 2019 2019 2019 2019 2019 2019 2019 
2019 2019 2019 2019 2019 2019 2019 2019 2019 
2019 2019 2019 2019 2019 2019 2019 2019 2019 
2019 2019 2019 2019 2019 2019 2019 2019 2019 
2019 2019 2019 2019 2019 2019 2019 2019 2019 
2019 2019 2019 2019 2019 2019 2019 2019 2019 
2019 2019 2019 2019 2019 2019 2019 2019 2019 
2019 2019 2019 2019 2019 2019 2019 2019 2019 
2019 2019 2019 2019 2019 2019 2019 2019 2019 
2019 2019 2019 2019 2019 2019 2019 2019 2019 
2019 2019 2019 2019 2019 2019 2019 2019 2019 
2019 2019 2019 2019 2019 2019 2019 2019 2019 
2019 2019 2019 2019 2019 2019 2019 2019 2019 
2019 2019 2019 2019 2019 2019 2019 2019 2019 
2019 2019 2019 2019 2019 2019 2019 2019 2019 
2019 2019 2019 2019 2019 2019 2019 2019 2019 
2019 2019 2019 2019 2019 2019 2019 2019 2019 
2019 2019 2019 2019 2019 2019 2019 2019 2019 
2019 2019 2019 2019 2019 2019 2019 2019 2019 
2019 2019 2019 2019 2019 2019 2019 2019 2019 
2019 2019 2019 2019 2019 2019 2019 2019 2019 
2019 2019 2019 2019 2019 2019 2019 2019 2019 
2019 2019 2019 2019 2019 2019 2019 2019 2019 
2019 2019 2019 2019 2019 2019 2019 2019 2019 
2019 2019 2019 2019 2019 2019 2019 2019 2019 
2019 2019 2019 2019 2019 2019 2019 2019 2019 
2019 2019 2019 2019 2019 2019 2019 2019 2019 
2019 2019 2019 2019 2019 2019 2019 2019 2019 
2019 2019 2019 2019 2019 2019 2019 2019 2019 
2019 2019 2019 2019 2019 2019 2019 2019 2019 
2019 2019 2019 2019 2019 2019 2019 2019 2019 
2019 2019 2019 2019 2019 2019 2019 2019 2019 
2019 2019 2019 2019 2019 2019 2019 2019 2019 
2019 2019 2019 2019 2019 2019 2019 2019 2019 
2019 2019 2019 2019 2019 2019 2019 2019 2019 
2019 2019 2019 2019 2019 2019 2019 2019 2019 
2019 2019 2019 2019 2019 2019 2019 2019 2019 
2019 2019 2019 2019 2019 2019 2019 2019 2019 
2019 2019 2019 2019 2019 2019 2019 2019 2019 
2019 2019 2019 2019 2019 2019 2019 2019 2019 
2019 2019 2019 2019 2019 2019 2019 2019 2019 
2019 2019 2019 2019 2019 2019 2019 2019 2019 
2019 2019 2019 2019 2019 2019 2019 2019 2019 
2019 2019 2019 2019 2019 2019 2019 2019 2019 
2019 2019 2019 2019 2019 2019 2019 2019 2019 
2019 2019 2019 2019 2019 2019 2019 2019 2019 
2019 2019 2019 2019 2019 2019 2019 2019 2019 
2019 2019 2019 2019 2019 2019 2019 2019 2019 
2019 2019 2019 2019 2019 2019 2019 2019 2019 
2019 2019 2019 2019 2019 2019 2019 2019 2019 
2019 2019 2019 2019 2019 2019 2019 2019 2019 
2019 2019 2019 2019 2019 2019 2019 2019 2019 
2019 2019 2019 2019 2019 2019 2019 2019 2019 
2019 2019 2019 2019 2019 2019 2019 2019 2019 
2019 2019 2019 2019 2019 2019 2019 2019 2019 
2019 2019 2019 2019 2019 2019 2019 2019 2019 
2019 2019 2019 2019 2019 2019 2019 2019 2019 
2019 2019 2019 2019 2019 2019 2019 2019 2019 
2019 2019 2019 2019 2019 2019 2019 2019 2019 
2019 2019 2019 2019 2019 2019 2019 2019 2019 
2019 2019 2019 2019 2019 2019 2019 2019 2019 
2019 2019 2019 2019 2019 2019 2019 2019 2019 
2019 2019 2019 2019 2019 2019 2019 2019 2019 
2019 2019 2019 2019 2019 2019 2019 2019 2019 
2019 2019 2019 2019 2019 2019 2019 2019 2019 
2019 2019 2019 2019 2019 2019 2019 2019 2019 
2019 2019 2019 2019 2019 2019 2019 2019 2019 
2019 2019 2019 2019 2019 2019 2019 2019 2019 
2019 2019 2019 2019 2019 2019 2019 2019 2019 
2019 2019 2019 2019 2019 2019 2019 2019 2019 
2019 2019 2019 2019 2019 2019 2019 2019 2019 
2019 2019 2019 2019 2019 2019 2019 2019 2019 
2019 2019 2019 2019 2019 2019 2019 2019 2019 
2019 2019 2019 2019 2019 2019 2019 2019 2019 
2019 2019 2019 2019 2019 2019 2019 2019 2019 
2019 2019 2019 2019 2019 2019 2019 2019 2019 
2019 2019 2019 2019 2019 2019 2019 2019 2019 
2019 2019 2019 2019 2019 2019 2019 2019 2019 
2019 2019 2019 2019 2019 2019 2019 2019 2019 
2019 2019 2019 2019 2019 2019 2019 2019 2019 
2019 2019 2019 2019 2019 2019 2019 2019 2019 
2019 2019 2019 2019 2019 2019 2019 2019 2019 
2019 2019 2019 2019 2019 2019 2019 2019 2019 
2019 2019 2019 2019 2019 2019 2019 2019 2019 
2019 2019 2019 2019 2019 2019 2019 2019 2019 
2019 2019 2019 2019 2019 2019 2019 2019 2019 
2019 2019 2019 2019 2019 2019 2019 2019 2019 
2019 2019 2019 2019 2019 2019 2019 2019 2019 
2019 2019 2019 2019 2019 2019 2019 2019 2019 
2019 2019 2019 2019 2019 2019 2019 2019 2019 
2019 2019 2019 2019 2019 2019 2019 2019 2019 
2019 2019 2019 2019 2019 2019 2019 2019 2019 
2019 2019 2019 2019 2019 2019 2019 2019 2019 
2019 2019 2019 2019 2019 2019 2019 2019 2019 
2019 2019 2019 2019 2019 2019 2019 2019 2019 
2019 2019 2019 2019 2019 2019 2019 2019 2019 
2019 2019 2019 2019 2019 2019 2019 2019 2019 
2019 2019 2019 2019 2019 2019 2019 2019 2019 
2019 2019 2019 2019 2019 2019 2019 2019 2019 
2019 2019 2019 2019 2019 2019 2019 2019 2019 
2019 2019 2019 2019 2019 2019 2019 2019 2019 
2019 2019 2019 2019 2019 2019 2019 2019 2019 
2019 2019 2019 2019 2019 2019 2019 2019 2019 
2019 2019 2019 2019 2019 2019 2019 2019 2019 
2019 2019 2019 2019 2019 2019 2019 2019 2019 
2019 2019 2019 2019 2019 2019 2019 2019 2019 
2019 2019 2019 2019 2019 2019 2019 2019 2019 
2019 2019 2019 2019 2019 2019 2019 2019 2019 
2019 2019 2019 2019 2019 2019 2019 2019 2019 
2019 2019 2019 2019 2019 2019 2019 2019 2019 
2019 2019 2019 2019 2019 2019 2019 2019 2019 
2019 2019 2019 2019 2019 2019 2019 2019 2019 
2019 2019 2019 2019 2019 2019 2019 2019 2019 
2019 2019 2019 2019 2019 2019 2019 2019 2019 
2019 2019 2019 2019 2019 2019 2019 2019 2019 
2019 2019 2019 2019 2019 2019 2019 2019 2019 
2019 2019 2019 2019 2019 2019 2019 2019 2019 
2019 2019 2019 2019 2019 2019 2019 2019 2019 
2019 2019 2019 2019 2019 2019 2019 2019 2019 
2019 2019 2019 2019 2019 2019 2019 2019 2019 
2019 2019 2019 2019 2019 2019 2019 2019 2019 
2019 2019 2019 2019 2019 2019 2019 2019 2019 
2019 2019 2019 2019 2019 2019 2019 2019 2019 
2019 2019 2019 2019 2019 2019 2019 2019 2019 
2019 2019 2019 2019 2019 2019 2019 2019 2019 
2019 2019 2019 2019 2019 2019 2019 2019 2019 
2019 2019 2019 2019 2019 2019 2019 2019 2019 
2019 2019 2019 2019 2019 2019 2019 2019 2019 
2019 2019 2019 2019 2019 2019 2019 2019 2019 
2019 2019 2019 2019 2019 2019 2019 2019 2019 
2019 2019 2019 2019 2019 2019 2019 2019 2019 
2019 2019 2019 2019 2019 2019 2019 2019 2019 
2019 2019 2019 2019 2019 2019 2019 2019 2019 
2019 2019 2019 2019 2019 2019 2019 2019 2019 
2019 2019 2019 2019 2019 2019 2019 2019 2019 
2019 2019 2019 2019 2019 2019 2019 2019 2019 
2019 2019 2019 2019 2019 2019 2019 2019 2019 
2019 2019 2019 2019 2019 2019 2019 2019 2019 
2019 2019 2019 2019 2019 2019 2019 2019 2019 
2019 2019 2019 2019 2019 2019 2019 2019 2019 
2019 2019 2019 2019 2019 2019 2019 2019 2019 
2019 2019 2019 2019 2019 2019 2019 2019 2019 
2019 2019 2019 2019 2019 2019 2019 2019 2019 
2019 2019 2019 2019 2019 2019 2019 2019 2019 
2019 2019 2019 2019 2019 2019 2019 2019 2019 
2019 2019 2019 2019 2019 2019 2019 2019 2019 
2019 2019 2019 2019 2019 2019 2019 2019 2019 
2019 2019 2019 2019 2019 2019 2019 2019 2019 
2019 2019 2019 2019 2019 2019 2019 2019 2019 
2019 2019 2019 2019 2019 2019 2019 2019 2019 
2019 2019 2019 2019 2019 2019 2019 2019 2019 
2019 2019 2019 2019 2019 2019 2019 2019 2019 
2019 2019 2019 2019 2019 2019 2019 2019 2019 
2019 2019 2019 2019 2019 2019 2019 2019 2019 
2019 2019 2019 2019 2019 2019 2019 2019 2019 
2019 2019 2019 2019 2019 2019 2019 2019 2019 
2019 2019 2019 2019 2019 2019 2019 2019 2019 
2019 2019 2019 2019 2019 2019 2019 2019 2019 
2019 2019 2019 2019 2019 2019 2019 2019 2019 
2019 2019 2019 2019 2019 2019 2019 2019 2019 
2019 2019 2019 2019 2019 2019 2019 2019 2019 
2019 2019 2019 2019 2019 2019 2019 2019 2019 
2019 2019 2019 2019 2019 2019 2019 2019 2019 
2019 2019 2019 2019 2019 2019 2019 2019 2019 
2019 2019 2019 2019 2019 2019 2019 2019 2019 
2019 2019 2019 2019 2019 2019 2019 2019 2019 
2019 2019 2019 2019 2019 2019 2019 2019 2019 
2019 2019 2019 2019 2019 2019 2019 2019 2019 
2019 2019 2019 2019 2019 2019 2019 2019 2019 
2019 2019 2019 2019 2019 2019 2019 2019 2019 
2019 2019 2019 2019 2019 2019 2019 2019 2019 
2019 2019 2019 2019 2019 2019 2019 2019 2019 
2019 2019 2019 2019 2019 2019 2019 2019 2019 
2019 2019 2019 2019 2019 2019 2019 2019 2019 
2019 2019 2019 2019 2019 2019 2019 2019 2019 
2019 2019 2019 2019 2019 2019 2019 2019 2019 
2019 2019 2019 2019 2019 2019 2019 2019 2019 
2019 2019 2019 2019 2019 2019 2019 2019 2019 
2019 2019 2019 2019 2019 2019 2019 2019 2019 
2019 2019 2019 2019 2019 2019 2019 2019 2019 
2019 2019 2019 2019 2019 2019 2019 2019 2019 
2019 2019 2019 2019 2019 2019 2019 2019 2019 
2019 2019 2019 2019 2019 2019 2019 2019 2019 
2019 2019 2019 2019 2019 2019 2019 2019 2019 
2019 2019 2019 2019 2019 2019 2019 2019 2019 
2019 2019 2019 2019 2019 2019 2019 2019 2019 
2019 2019 2019 2019 2019 2019 2019 2019 2019 
2019 2019 2019 2019 2019 2019 2019 2019 2019 
2019 2019 2019 2019 2019 2019 2019 2019 2019 
2019 2019 2019 2019 2019 2019 2019 2019 2019 
2019 2019 2019 2019 2019 2019 2019 2019 2019 
2019 2019 2019 2019 2019 2019 2019 2019 2019 
2019 2019 2019 2019 2019 2019 2019 2019 2019 
2019 2019 2019 2019 2019 2019 2019 2019 2019 
2019 2019 2019 2019 2019 2019 2019 2019 2019 
2019 2019 2019 2019 2019 2019 2019 2019 2019 
2019 2019 2019 2019 2019 2019 2019 2019 2019 
2019 2019 2019 2019 2019 2019 2019 2019 2019 
2019 2019 2019 2019 2019 2019 2019 2019 2019 
2019 2019 2019 2019 2019 2019 2019 2019 2019 
2019 2019 2019 2019 2019 2019 2019 2019 2019 
2019 2019 2019 2019 2019 2019 2019 2019 2019 
2019 2019 2019 2019 2019 2019 2019 2019 2019 
2019 2019 2019 2019 2019 2019 2019 2019 2019 
2019 2019 2019 2019 2019 2019 2019 2019 2019 
2019 2019 2019 2019 2019 2019 2019 2019 2019 
2019 2019 2019 2019 2019 2019 2019 2019 2019 
2019 2019 2019 2019 2019 2019 2019 2019 2019 
2019 2019 2019 2019 2019 2019 2019 2019 2019 
2019 2019 2019 2019 2019 2019 2019 2019 2019 
2019 2019 2019 2019 2019 2019 2019 2019 2019 
2019 2019 2019 2019 2019 2019 2019 2019 2019 
2019 2019 2019 2019 2019 2019 2019 2019 2019 
2019 2019 2019 2019 2019 2019 2019 2019 2019 
2019 2019 2019 2019 2019 2019 2019 2019 2019 
2019 2019 2019 2019 2019 2019 2019 2019 2019 
2019 2019 2019 2019 2019 2019 2019 2019 2019 
2019 2019 2019 2019 2019 2019 2019 2019 2019 
2019 2019 2019 2019 2019 2019 2019 2019 2019 
2019 2019 2019 2019 2019 2019 2019 2019 2019 
2019 2019 2019 2019 2019 2019 2019 2019 2019 
2019 2019 2019 2019 2019 2019 2019 2019 2019 
2019 2019 2019 2019 2019 2019 2019 2019 2019 
2019 2019 2019 2019 2019 2019 2019 2019 2019 
2019 2019 2019 2019 2019 2019 2019 2019 2019 
2019 2019 2019 2019 2019 2019 2019 2019 2019 
2019 2019 2019 2019 2019 2019 2019 2019 2019 
2019 2019 2019 2019 2019 2019 2019 2019 2019 
2019 2019 2019 2019 2019 2019 2019 2019 2019 
2019 2019 2019 2019 2019 2019 2019 2019 2019 
2019 2019 2019 2019 2019 2019 2019 2019 2019 
2019 2019 2019 2019 2019 2019 2019 2019 2019 
2019 2019 2019 2019 2019 2019 2019 2019 2019 
2019 2019 2019 2019 2019 2019 2019 2019 2019 
2019 2019 2019 2019 2019 2019 2019 2019 2019 
2019 2019 2019 2019 2019 2019 2019 2019 2019 
2019 2019 2019 2019 2019 2019 2019 2019 2019 
2019 2019 2019 2019 2019 2019 2019 2019 2019 
2019 2019 2019 2019 2019 2019 2019 2019 2019 
2019 2019 2019 2019 2019 2019 2019 2019 2019 
2019 2019 2019 2019 2019 2019 2019 2019 2019 
2019 2019 2019 2019 2019 2019 2019 2019 2019 
2019 2019 2019 2019 2019 2019 2019 2019 2019 
2019 2019 2019 2019 2019 2019 2019 2019 2019 
2019 2019 2019 2019 2019 2019 2019 2019 2019 
2019 2019 2019 2019 2019 2019 2019 2019 2019 
2019 2019 2019 2019 2019 2019 2019 2019 2019 
2019 2019 2019 2019 2019 2019 2019 2019 2019 
2019 2019 2019 2019 2019 2019 2019 2019 2019 
2019 2019 2019 2019 2019 2019 2019 2019 2019 
2019 2019 2019 2019 2019 2019 2019 2019 2019 
2019 2019 2019 2019 2019 2019 2019 2019 2019 
2019 2019 2019 2019 2019 2019 2019 2019 2019 
2019 2019 2019 2019 2019 2019 2019 2019 2019 
2019 2019 2019 2019 2019 2019 2019 2019 2019 
2019 2019 2019 2019 2019 2019 2019 2019 2019 
2019 2019 2019 2019 2019 2019 2019 2019 2019 
2019 2019 2019 2019 2019 2019 2019 2019 2019 
2019 2019 2019 2019 2019 2019 2019 2019 2019 
2019 2019 2019 2019 2019 2019 2019 2019 2019 
2019 2019 2019 2019 2019 2019 2019 2019 2019 
2019 2019 2019 2019 2019 2019 2019 2019 2019 
2019 2019 2019 2019 2019 2019 2019 2019 2019 
2019 2019 2019 2019 2019 2019 2019 2019 2019 
2019 2019 2019 2019 2019 2019 2019 2019 2019 
2019 2019 2019 2019 2019 2019 2019 2019 2019 
2019 2019 2019 2019 2019 2019 2019 2019 2019 
2019 2019 2019 2019 2019 2019 2019 2019 2019 
2019 2019 2019 2019 2019 2019 2019 2019 2019 
2019 2019 2019 2019 2019 2019 2019 2019 2019 
2019 2019 2019 2019 2019 2019 2019 2019 2019 
2019 2019 2019 2019 2019 2019 2019 2019 2019 
2019 2019 2019 2019 2019 2019 2019 2019 2019 
2019 2019 2019 2019 2019 2019 2019 2019 2019 
2019 2019 2019 2019 2019 2019 2019 2019 2019 
2019 2019 2019 2019 2019 2019 2019 2019 2019 
2019 2019 2019 2019 2019 2019 2019 2019 2019 
2019 2019 2019 2019 2019 2019 2019 2019 2019 
2019 2019 2019 2019 2019 2019 2019 2019 2019 
2019 2019 2019 2019 2019 2019 2019 2019 2019 
2019 2019 2019 2019 2019 2019 2019 2019 2019 
2019 2019 2019 2019 2019 2019 2019 2019 2019 
2019 2019 2019 2019 2019 2019 2019 2019 2019 
2019 2019 2019 2019 2019 2019 2019 2019 2019 
2019 2019 2019 2019 2019 2019 2019 2019 2019 
2019 2019 2019 2019 2019 2019 2019 2019 2019 
2019 2019 2019 2019 2019 2019 2019 2019 2019 
2019 2019 2019 2019 2019 2019 2019 2019 2019 
2019 2019 2019 2019 2019 2019 2019 2019 2019 
2019 2019 2019 2019 2019 2019 2019 2019 2019 
2019 2019 2019 2019 2019 2019 2019 2019 2019 
2019 2019 2019 2019 2019 2019 2019 2019 2019 
2019 2019 2019 2019 2019 2019 2019 2019 2019 
2019 2019 2019 2019 2019 2019 2019 2019 2019 
2019 2019 2019 2019 2019 2019 2019 2019 2019 
2019 2019 2019 2019 2019 2019 2019 2019 2019 
2019 2019 2019 2019 2019 2019 2019 2019 2019 
2019 2019 2019 2019 2019 2019 2019 2019 2019 
2019 2019 2019 2019 2019 2019 2019 2019 2019 
2019 2019 2019 2019 2019 2019 2019 2019 2019 
2019 2019 2019 2019 2019 2019 2019 2019 2019 
2019 2019 2019 2019 2019 2019 2019 2019 2019 
2019 2019 2019 2019 2019 2019 2019 2019 2019 
2019 2019 2019 2019 2019 2019 2019 2019 2019 
2019 2019 2019 2019 2019 2019 2019 2019 2019 
2019 2019 2019 2019 2019 2019 2019 2019 2019 
2019 2019 2019 2019 2019 2019 2019 2019 2019 
2019 2019 2019 2019 2019 2019 2019 2019 2019 
2019 2019 2019 2019 2019 2019 2019 2019 2019 
2019 2019 2019 2019 2019 2019 2019 2019 2019 
2019 2019 2019 2019 2019 2019 2019 2019 2019 
2019 2019 2019 2019 2019 2019 2019 2019 2019 
2019 2019 2019 2019 2019 2019 2019 2019 2019 
2019 2019 2019 2019 2019 2019 2019 2019 2019 
2019 2019 2019 2019 2019 2019 2019 2019 2019 
2019 2019 2019 2019 2019 2019 2019 2019 2019 
2019 2019 2019 2019 2019 2019 2019 2019 2019 
2019 2019 2019 2019 2019 2019 2019 2019 2019 
2019 2019 2019 2019 2019 2019 2019 2019 2019 
2019 2019 2019 2019 2019 2019 2019 2019 2019 
2019 2019 2019 2019 2019 2019 2019 2019 2019 
2019 2019 2019 2019 2019 2019 2019 2019 2019 
2019 2019 2019 2019 2019 2019 2019 2019 2019 
2019 2019 2019 2019 2019 2019 2019 2019 2019 
2019 2019 2019 2019 2019 2019 2019 2019 2019 
2019 2019 2019 2019 2019 2019 2019 2019 2019 
2019 2019 2019 2019 2019 2019 2019 2019 2019 
2019 2019 2019 2019 2019 2019 2019 2019 2019 
2019 2019 2019 2019 2019 2019 2019 2019 2019 
2019 2019 2019 2019 2019 2019 2019 2019 2019 
2019 2019 2019 2019 2019 2019 2019 2019 2019 
2019 2019 2019 2019 2019 2019 2019 2019 2019 
2019 2019 2019 2019 2019 2019 2019 2019 2019 
2019 2019 2019 2019 2019 2019 2019 2019 2019 
2019 2019 2019 2019 2019 2019 2019 2019 2019 
2019 2019 2019 2019 2019 2019 2019 2019 2019 
2019 2019 2019 2019 2019 2019 2019 2019 2019 
2019 2019 2019 2019 2019 2019 2019 2019 2019 
2019 2019 2019 2019 2019 2019 2019 2019 2019 
2019 2019 2019 2019 2019 2019 2019 2019 2019 
2019 2019 2019 2019 2019 2019 2019 2019 2019 
2019 2019 2019 2019 2019 2019 2019 2019 2019 
2019 2019 2019 2019 2019 2019 2019 2019 2019 
2019 2019 2019 2019 2019 2019 2019 2019 2019 
2019 2019 2019 2019 2019 2019 2019 2019 2019 
2019 2019 2019 2019 2019 2019 2019 2019 2019 
2019 2019 2019 2019 2019 2019 2019 2019 2019 
2019 2019 2019 2019 2019 2019 2019 2019 2019 
2019 2019 2019 2019 2019 2019 2019 2019 2019 
2019 2019 2019 2019 2019 2019 2019 2019 2019 
2019 2019 2019 2019 2019 2019 2019 2019 2019 
2019 2019 2019 2019 2019 2019 2019 2019 2019 
2019 2019 2019 2019 2019 2019 2019 2019 2019 
2019 2019 2019 2019 2019 2019 2019 2019 2019 
2019 2019 2019 2019 2019 2019 2019 2019 2019 
2019 2019 2019 2019 2019 2019 2019 2019 2019 
2019 2019 2019 2019 2019 2019 2019 2019 2019 
2019 2019 2019 2019 2019 2019 2019 2019 2019 
2019 2019 2019 2019 2019 2019 2019 2019 2019 
2019 2019 2019 2019 2019 2019 2019 2019 2019 
2019 2019 2019 2019 2019 2019 2019 2019 2019 
2019 2019 2019 2019 2019 2019 2019 2019 2019 
2019 2019 2019 2019 2019 2019 2019 2019 2019 
2019 2019 2019 2019 2019 2019 2019 2019 2019 
2019 2019 2019 2019 2019 2019 2019 2019 2019 
2019 2019 2019 2019 2019 2019 2019 2019 2019 
2019 2019 2019 2019 2019 2019 2019 2019 2019 
2019 2019 2019 2019 2019 2019 2019 2019 2019 
2019 2019 2019 2019 2019 2019 2019 2019 2019 
2019 2019 2019 2019 2019 2019 2019 2019 2019 
2019 2019 2019 2019 2019 2019 2019 2019 2019 
2019 2019 2019 2019 2019 2019 2019 2019 2019 
2019 2019 2019 2019 2019 2019 2019 2019 2019 
2019 2019 2019 2019 2019 2019 2019 2019 2019 
2019 2019 2019 2019 2019 2019 2019 2019 2019 
2019 2019 2019 2019 2019 2019 2019 2019 2019 
2019 2019 2019 2019 2019 2019 2019 2019 2019 
2019 2019 2019 2019 2019 2019 2019 2019 2019 
2019 2019 2019 2019 2019 2019 2019 2019 2019 
2019 2019 2019 2019 2019 2019 2019 2019 2019 
2019 2019 2019 2019 2019 2019 2019 2019 2019 
2019 2019 2019 2019 2019 2019 2019 2019 2019 
2019 2019 2019 2019 2019 2019 2019 2019 2019 
2019 2019 2019 2019 2019 2019 2019 2019 2019 
2019 2019 2019 2019 2019 2019 2019 2019 2019 
2019 2019 2019 2019 2019 2019 2019 2019 2019 
2019 2019 2019 2019 2019 2019 2019 2019 2019 
2019 2019 2019 2019 2019 2019 2019 2019 2019 
2019 2019 2019 2019 2019 2019 2019 2019 2019 
2019 2019 2019 2019 2019 2019 2019 2019 2019 
2019 2019 2019 2019 2019 2019 2019 2019 2019 
2019 2019 2019 2019 2019 2019 2019 2019 2019 
2019 2019 2019 2019 2019 2019 2019 2019 2019 
2019 2019 2019 2019 2019 2019 2019 2019 2019 
2019 2019 2019 2019 2019 2019 2019 2019 2019 
2019 2019 2019 2019 2019 2019 2019 2019 2019 
2019 2019 2019 2019 2019 2019 2019 2019 2019 
2019 2019 2019 2019 2019 2019 2019 2019 2019 
2019 2019 2019 2019 2019 2019 2019 2019 2019 
2019 2019 2019 2019 2019 2019 2019 2019 2019 
2019 2019 2019 2019 2019 2019 2019 2019 2019 
2019 2019 2019 2019 2019 2019 2019 2019 2019 
2019 2019 2019 2019 2019 2019 2019 2019 2019 
2019 2019 2019 2019 2019 2019 2019 2019 2019 
2019 2019 2019 2019 2019 2019 2019 2019 2019 
2019 2019 2019 2019 2019 2019 2019 2019 2019 