# vtk DataFile Version 4.2
vtk output
ASCII
DATASET POLYDATA
POINTS 13744 float
-29.3537 -31.5561 26.7274 -29.4582 -31.33 26.3915 -29.5279 -31.617 26.3645 
-28.9977 -31.3347 26.4364 -29.0629 -31.7584 26.3596 -28.4357 -30.8111 25.8626 
-28.4011 -30.169 25.2017 -28.8436 -30.4408 25.5681 -27.76 -30.5013 25.4033 
-29.2446 -30.8498 25.7268 -29.673 -31.3257 25.581 -28.4564 -31.516 26.1025 
-27.7408 -31.4191 25.3693 -29.376 -32.011 25.4912 -28.4051 -32.0176 25.6077 
-28.1515 -33.7924 25.7724 -28.4501 -33.2 25.3806 -28.5259 -33.8322 25.6365 
-27.9226 -33.3326 25.2865 -28.3287 -34.3677 25.809 -28.792 -34.4784 25.3597 
-27.932 -34.2344 25.4218 -28.3336 -34.8589 25.2359 -29.157 -30.3504 25.133 
-29.1233 -30.1369 24.3476 -29.6415 -30.7255 24.7717 -28.1509 -29.9307 24.3671 
-27.2225 -30.7961 25.0018 -27.3577 -30.1271 24.6301 -26.7417 -30.6287 24.3078 
-30.0569 -31.7109 24.3806 -27.2393 -31.3798 24.9323 -26.974 -31.2523 24.5409 
-30.1315 -32.307 24.767 -30.4038 -32.2302 24.4581 -30.4776 -32.471 24.4804 
-29.2976 -32.7272 24.9441 -28.4236 -32.5974 25.2438 -27.7795 -32.522 24.818 
-27.3285 -31.8722 24.3513 -30.1093 -32.6603 24.5137 -29.6024 -33.0821 24.2971 
-29.0327 -33.6086 24.8792 -27.7078 -33.5753 24.5218 -29.2589 -34.4506 24.7767 
-29.412 -33.9898 24.3284 -29.5643 -34.5758 24.1205 -27.8613 -34.5184 24.4915 
-28.9929 -35.0064 24.5544 -28.2814 -35.0371 24.3359 -27.3436 -40.8363 24.7664 
-27.4591 -40.2056 24.4549 -27.895 -40.6358 24.6313 -26.9545 -40.3885 24.4496 
-29.0211 -41.5896 24.7533 -29.46 -41.1924 24.4284 -29.6032 -41.7049 24.4512 
-28.0471 -41.4851 24.9187 -28.6771 -40.9178 24.5494 -27.2864 -41.6755 24.8775 
-26.7696 -41.222 24.5507 -29.1873 -42.1512 24.6108 -28.782 -42.7451 24.4795 
-28.5033 -42.305 24.8411 -27.6266 -42.4126 24.8471 -26.8444 -42.2248 24.5574 
-28.0191 -43.0189 24.5217 -27.212 -42.9234 24.466 -29.5779 -30.1016 23.2927 
-29.9352 -30.6614 23.8386 -28.6203 -29.8275 23.4476 -27.373 -29.816 23.5856 
-26.3114 -30.6614 23.7705 -26.5094 -30.168 23.7496 -25.9157 -30.607 23.2078 
-30.2896 -31.3189 23.7199 -30.4033 -30.8822 23.3413 -30.5905 -31.3198 23.2244 
-26.7155 -31.4662 23.6662 -26.1908 -30.9956 23.5342 -30.171 -32.591 24.1335 
-30.4499 -31.9478 23.4013 -30.1315 -32.6114 23.5624 -27.7728 -32.7616 23.6756 
-27.5721 -32.0375 23.2624 -29.7618 -33.6175 23.664 -29.3639 -33.5355 24.1851 
-27.8638 -33.8809 23.5699 -29.5909 -34.4981 23.3694 -28.0109 -34.6759 23.6676 
-29.3221 -34.9416 23.6776 -28.6272 -34.9731 23.5941 -37.979 -38.6532 23.843 
-38.4345 -38.1272 23.4648 -38.753 -38.836 23.538 -37.2898 -38.7442 23.8045 
-37.6589 -38.0388 23.5371 -36.9553 -38.4347 23.4525 -38.1583 -39.4849 23.8627 
-38.6885 -39.6389 23.5143 -37.4244 -39.5317 23.9252 -36.7845 -39.4481 23.4367 
-29.1622 -39.7104 23.8236 -29.263 -39.1396 23.4961 -29.839 -39.5188 23.4869 
-28.1785 -39.4552 23.8506 -28.6065 -38.9981 23.4989 -27.1493 -39.7042 24.0218 
-27.5803 -38.9586 23.5192 -26.0698 -39.7754 23.8346 -26.3777 -38.9636 23.3119 
-25.6841 -39.4256 23.3933 -38.1573 -40.1753 23.6539 -37.7881 -40.8009 23.333 
-37.561 -40.3273 23.7951 -37.0453 -40.297 23.5703 -33.147 -40.7381 23.8739 
-33.441 -40.1479 23.4656 -33.9474 -40.6587 23.6057 -32.0637 -40.6481 23.9022 
-32.5748 -39.998 23.5117 -31.0772 -40.6438 23.8803 -31.575 -40.0299 23.5109 
-30.1477 -40.3352 23.8617 -30.6693 -39.9527 23.4967 -29.3719 -40.6132 24.1477 
-28.2647 -40.1364 24.2013 -26.263 -40.6209 24.1645 -25.4257 -39.9528 23.6153 
-25.4333 -40.5838 23.8422 -24.984 -40.3172 23.2619 -37.2024 -40.7742 23.285 
-34.0251 -41.4183 23.8044 -34.5232 -41.0723 23.4557 -34.6217 -41.6919 23.4649 
-33.2096 -41.6526 24.0421 -32.3552 -41.5225 24.0543 -31.3323 -41.5148 24.0204 
-30.1998 -41.3824 24.1138 -26.1268 -41.7977 24.2025 -25.4021 -41.523 23.9273 
-24.7753 -41.2558 23.3856 -34.2095 -42.1387 23.6152 -33.7877 -42.7288 23.4787 
-33.5424 -42.2749 23.8379 -32.6245 -42.3817 23.9134 -31.6168 -42.38 23.8773 
-30.4633 -42.5089 23.8795 -29.4908 -42.4919 24.1874 -26.3553 -42.8505 24.1435 
-25.4052 -42.5491 23.9179 -24.749 -42.2949 23.5725 -33.0008 -42.9935 23.5188 
-32.0134 -43.0528 23.5173 -31.0094 -43.0607 23.5064 -30.1987 -43.2214 23.5444 
-29.6962 -43.721 23.4031 -29.5234 -43.2862 23.7733 -28.5931 -43.4023 24.0051 
-27.3927 -43.4725 24.0126 -26.4424 -43.5472 23.8585 -25.6025 -43.4036 23.8231 
-24.74 -43.4561 23.3631 -28.9856 -43.9821 23.4652 -28.0426 -44.0653 23.4908 
-27.0083 -44.0442 23.5168 -26.0197 -44.0256 23.5395 -25.256 -44.0403 23.3824 
-36.2145 -28.6358 22.7741 -36.59 -28.1451 22.316 -36.792 -28.7582 22.5976 
-36.0413 -28.3962 22.3301 -36.1273 -29.5345 22.8927 -36.8616 -29.7359 22.5634 
-35.7648 -29.2135 22.3505 -27.9863 -29.4553 22.9214 -28.1813 -29.1756 22.1473 
-28.6919 -29.5306 22.5765 -27.1561 -29.5182 22.8478 -27.5077 -29.1961 22.4394 
-26.8088 -29.4479 22.1658 -38.2251 -30.6142 22.6631 -38.3231 -30.2999 22.4973 
-38.4566 -30.6901 22.6018 -38.1442 -30.457 22.4927 -36.1701 -30.4426 22.8734 
-36.6902 -30.579 22.4569 -35.4509 -29.9839 22.6241 -35.2643 -30.6315 22.9281 
-34.8509 -30.5385 22.2633 -30.2109 -30.4203 23.0827 -30.1259 -30.166 22.2996 
-30.6223 -30.7631 22.7093 -29.2631 -29.833 22.4823 -26.3766 -29.9595 22.7832 
-25.6821 -30.5032 22.2589 -38.1495 -31.5194 22.7966 -38.5485 -31.4744 22.5627 
-38.0305 -31.0871 22.528 -36.169 -31.1015 22.6175 -35.8762 -31.894 22.5318 
-35.5099 -31.3446 22.9229 -34.2968 -31.0364 22.4472 -34.6483 -31.6189 22.8479 
-33.8809 -31.4473 22.3968 -30.946 -31.5119 22.6144 -25.9575 -31.3854 23.2088 
-25.3801 -31.0831 22.6804 -25.515 -31.7918 22.7863 -25.0473 -31.43 22.3033 
-38.3299 -32.2881 22.7996 -38.7281 -32.3698 22.3037 -37.6308 -31.8893 22.3398 
-37.6498 -32.5072 22.7784 -37.039 -32.4389 22.4572 -35.2355 -32.2233 22.7658 
-35.6466 -32.6613 22.4175 -34.7148 -32.3662 22.6421 -34.1509 -31.9628 22.4931 
-30.9807 -32.4673 22.8088 -31.4848 -32.0756 22.3864 -31.5723 -32.6647 22.4149 
-30.424 -32.6079 23.1708 -28.1696 -32.4557 22.8822 -28.6003 -32.6536 22.3834 
-28.0955 -32.0849 22.257 -27.2017 -32.0449 22.6644 -26.3456 -32.2087 22.8711 
-26.7553 -32.679 22.1155 -25.8693 -32.5246 22.4542 -25.2588 -31.9697 22.1485 
-38.0009 -32.9812 22.5301 -37.2107 -32.9478 22.4653 -35.142 -32.7991 22.4574 
-31.1368 -33.1325 22.5732 -30.7597 -33.863 22.4307 -30.3786 -33.3768 22.9454 
-28.3884 -33.4088 22.8797 -28.9983 -33.4524 22.3534 -26.3283 -32.8154 22.474 
-25.4525 -33.3417 22.4035 -25.7247 -33.8963 22.3882 -25.2276 -33.7705 22.773 
-25.0539 -33.5295 22.3246 -30.2704 -34.3618 22.6714 -30.4829 -34.4675 22.3585 
-29.6519 -34.0979 22.7397 -29.9484 -34.4507 22.4432 -29.0116 -34.42 22.9635 
-28.2847 -34.3791 23.1218 -25.3391 -34.3416 22.7969 -25.5863 -34.7976 22.33 
-24.9629 -34.3503 22.3595 -38.1255 -35.6955 22.8232 -38.4328 -35.1325 22.4351 
-38.9056 -35.6327 22.5744 -37.1018 -35.7407 22.8066 -37.6403 -35.0494 22.4703 
-36.8791 -35.3468 22.4344 -30.2795 -34.702 22.5186 -25.2107 -34.9859 22.4633 
-39.0019 -36.4407 22.8201 -39.4885 -36.0737 22.4301 -39.7915 -36.8331 22.4883 
-38.1317 -36.5939 23.0245 -37.2767 -36.479 23.0334 -36.4224 -35.9514 22.6022 
-36.245 -36.6398 22.8517 -35.848 -36.3974 22.4727 -39.4832 -37.5011 22.8734 
-40.04 -37.608 22.5644 -38.4747 -37.437 23.1379 -37.2831 -37.5128 23.1727 
-36.4829 -37.3627 23.0391 -35.2207 -36.9434 22.3335 -35.6202 -37.6716 22.7589 
-34.8835 -37.5114 22.3039 -40.0188 -38.4627 22.8298 -40.4251 -37.9645 22.3343 
-40.6522 -38.6432 22.3751 -39.1802 -38.288 23.1601 -36.1783 -38.5842 22.9997 
-35.5653 -38.3977 22.5752 -35.1475 -37.9924 22.4183 -34.1633 -38.1213 22.1814 
-34.8535 -38.5571 22.4749 -34.2125 -38.8627 22.7409 -33.7484 -38.4315 22.3164 
-29.2353 -38.6889 23.0089 -29.2373 -38.1208 22.4881 -29.7966 -38.5118 22.4747 
-28.091 -38.4675 23.034 -28.5687 -37.994 22.5098 -27.0359 -38.4676 23.0054 
-27.3927 -37.9839 22.3992 -26.3531 -38.4594 22.8744 -26.3387 -38.1776 22.3622 
-25.7653 -38.4826 22.4865 -40.2155 -39.4634 22.8055 -40.7988 -39.3032 22.3762 
-39.356 -39.4167 23.163 -36.1519 -39.7419 22.9181 -35.4692 -38.7869 22.5849 
-35.2001 -39.3821 22.8798 -34.3155 -39.5253 23.0132 -33.4181 -38.8564 22.5661 
-33.3404 -39.5037 23.0203 -32.0578 -39.5227 23.0012 -32.5592 -39.0234 22.4886 
-31.0681 -39.5414 22.9957 -31.5323 -39.0807 22.4626 -30.2051 -39.2706 22.9957 
-30.6098 -38.9717 22.4673 -25.2111 -39.6613 23.1287 -25.4393 -39.0492 22.7694 
-24.9107 -39.4493 22.3628 -40.4481 -40.0353 22.435 -39.7505 -40.7434 22.5002 
-39.3915 -40.4461 22.8924 -38.5965 -40.3867 23.2733 -36.713 -40.3803 22.8546 
-36.165 -40.2672 22.5372 -35.8764 -40.8179 22.2817 -35.5247 -40.2931 22.8189 
-34.423 -40.2723 23.1764 -24.5883 -40.395 22.4635 -39.1365 -41.1805 22.6515 
-38.8865 -41.6775 22.4027 -38.3551 -41.262 22.831 -37.2588 -41.0609 22.408 
-37.9132 -41.5641 22.4157 -35.1168 -41.3472 23.0121 -35.6281 -41.6783 22.4512 
-24.3246 -41.1444 22.7156 -24.2546 -41.8793 23.0195 -23.9524 -41.3225 22.2267 
-38.3616 -41.8293 22.186 -35.187 -42.47 22.8396 -35.6318 -42.5923 22.1661 
-34.4818 -42.5034 23.2187 -24.2345 -42.8346 23.0772 -23.8626 -42.297 22.3742 
-35.1868 -43.1748 22.6028 -34.925 -43.6761 22.3861 -34.5652 -43.3064 22.8404 
-33.6066 -43.3953 23.0199 -32.3731 -43.6816 23.0287 -31.2837 -43.6869 23.1428 
-30.356 -43.7095 23.2071 -24.2259 -43.5125 22.9583 -23.8808 -43.3935 22.2864 
-34.2423 -43.8812 22.3826 -33.1856 -44.0712 22.4262 -32.239 -44.2321 22.6056 
-31.8705 -44.6182 22.3535 -31.5029 -44.2968 22.7931 -30.5795 -44.3919 22.86 
-29.5803 -44.3894 22.9914 -28.5456 -44.5581 22.9797 -27.4 -44.6518 23.0031 
-26.4536 -44.52 23.1966 -25.5893 -44.7289 22.9817 -24.7234 -44.6116 22.5231 
-24.2071 -44.0957 22.5253 -31.1128 -44.8607 22.2504 -30.1278 -44.8859 22.4924 
-29.2027 -45.0491 22.3935 -28.0501 -45.07 22.5072 -27.1816 -45.1944 22.5961 
-26.773 -45.5237 22.5148 -26.4087 -45.2026 22.7906 -25.6337 -45.6369 22.3408 
-25.1557 -45.1947 22.3769 -26.4266 -45.9454 22.2708 -37.2249 -28.3822 22.0394 
-37.2118 -28.08 21.4541 -37.6576 -28.6148 21.4857 -36.4598 -28.0756 21.5972 
-35.9401 -28.7539 21.4635 -37.4068 -29.1674 22.0337 -37.7684 -29.4323 21.3294 
[...]
CELL_DATA 27532
SCALARS scalars float
LOOKUP_TABLE default
2009 2009 2009 2009 2009 2009 2009 2009 2009 
2009 2009 2009 2009 2009 2009 2009 2009 2009 
2009 2009 2009 2009 2009 2009 2009 2009 2009 
2009 2009 2009 2009 2009 2009 2009 2009 2009 
2009 2009 2009 2009 2009 2009 2009 2009 2009 
2009 2009 2009 2009 2009 2009 2009 2009 2009 
2009 2009 2009 2009 2009 2009 2009 2009 2009 
2009 2009 2009 2009 2009 2009 2009 2009 2009 
2009 2009 2009 2009 2009 2009 2009 2009 2009 
2009 2009 2009 2009 2009 2009 2009 2009 2009 
2009 2009 2009 2009 2009 2009 2009 2009 2009 
2009 2009 2009 2009 2009 2009 2009 2009 2009 
2009 2009 2009 2009 2009 2009 2009 2009 2009 
2009 2009 2009 2009 2009 2009 2009 2009 2009 
2009 2009 2009 2009 2009 2009 2009 2009 2009 
2009 2009 2009 2009 2009 2009 2009 2009 2009 
2009 2009 2009 2009 2009 2009 2009 2009 2009 
2009 2009 2009 2009 2009 2009 2009 2009 2009 
2009 2009 2009 2009 2009 2009 2009 2009 2009 
2009 2009 2009 2009 2009 2009 2009 2009 2009 
2009 2009 2009 2009 2009 2009 2009 2009 2009 
2009 2009 2009 2009 2009 2009 2009 2009 2009 
2009 2009 2009 2009 2009 2009 2009 2009 2009 
2009 2009 2009 2009 2009 2009 2009 2009 2009 
2009 2009 2009 2009 2009 2009 2009 2009 2009 
2009 2009 2009 2009 2009 2009 2009 2009 2009 
2009 2009 2009 2009 2009 2009 2009 2009 2009 
2009 2009 2009 2009 2009 2009 2009 2009 2009 
2009 2009 2009 2009 2009 2009 2009 2009 2009 
2009 2009 2009 2009 2009 2009 2009 2009 2009 
2009 2009 2009 2009 2009 2009 2009 2009 2009 
2009 2009 2009 2009 2009 2009 2009 2009 2009 
2009 2009 2009 2009 2009 2009 2009 2009 2009 
2009 2009 2009 2009 2009 2009 2009 2009 2009 
2009 2009 2009 2009 2009 2009 2009 2009 2009 
2009 2009 2009 2009 2009 2009 2009 2009 2009 
2009 2009 2009 2009 2009 2009 2009 2009 2009 
2009 2009 2009 2009 2009 2009 2009 2009 2009 
2009 2009 2009 2009 2009 2009 2009 2009 2009 
2009 2009 2009 2009 2009 2009 2009 2009 2009 
2009 2009 2009 2009 2009 2009 2009 2009 2009 
2009 2009 2009 2009 2009 2009 2009 2009 2009 
2009 2009 2009 2009 2009 2009 2009 2009 2009 
2009 2009 2009 2009 2009 2009 2009 2009 2009 
2009 2009 2009 2009 2009 2009 2009 2009 2009 
2009 2009 2009 2009 2009 2009 2009 2009 2009 
2009 2009 2009 2009 2009 2009 2009 2009 2009 
2009 2009 2009 2009 2009 2009 2009 2009 2009 
2009 2009 2009 2009 2009 2009 2009 2009 2009 
2009 2009 2009 2009 2009 2009 2009 2009 2009 
2009 2009 2009 2009 2009 2009 2009 2009 2009 
2009 2009 2009 2009 2009 2009 2009 2009 2009 
2009 2009 2009 2009 2009 2009 2009 2009 2009 
2009 2009 2009 2009 2009 2009 2009 2009 2009 
2009 2009 2009 2009 2009 2009 2009 2009 2009 
2009 2009 2009 2009 2009 2009 2009 2009 2009 
2009 2009 2009 2009 2009 2009 2009 2009 2009 
2009 2009 2009 2009 2009 2009 2009 2009 2009 
2009 2009 2009 2009 2009 2009 2009 2009 2009 
2009 2009 2009 2009 2009 2009 2009 2009 2009 
2009 2009 2009 2009 2009 2009 2009 2009 2009 
2009 2009 2009 2009 2009 2009 2009 2009 2009 
2009 2009 2009 2009 2009 2009 2009 2009 2009 
2009 2009 2009 2009 2009 2009 2009 2009 2009 
2009 2009 2009 2009 2009 2009 2009 2009 2009 
2009 2009 2009 2009 2009 2009 2009 2009 2009 
2009 2009 2009 2009 2009 2009 2009 2009 2009 
2009 2009 2009 2009 2009 2009 2009 2009 2009 
2009 2009 2009 2009 2009 2009 2009 2009 2009 
2009 2009 2009 2009 2009 2009 2009 2009 2009 
2009 2009 2009 2009 2009 2009 2009 2009 2009 
2009 2009 2009 2009 2009 2009 2009 2009 2009 
2009 2009 2009 2009 2009 2009 2009 2009 2009 
2009 2009 2009 2009 2009 2009 2009 2009 2009 
2009 2009 2009 2009 2009 2009 2009 2009 2009 
2009 2009 2009 2009 2009 2009 2009 2009 2009 
2009 2009 2009 2009 2009 2009 2009 2009 2009 
2009 2009 2009 2009 2009 2009 2009 2009 2009 
2009 2009 2009 2009 2009 2009 2009 2009 2009 
2009 2009 2009 2009 2009 2009 2009 2009 2009 
2009 2009 2009 2009 2009 2009 2009 2009 2009 
2009 2009 2009 2009 2009 2009 2009 2009 2009 
2009 2009 2009 2009 2009 2009 2009 2009 2009 
2009 2009 2009 2009 2009 2009 2009 2009 2009 
2009 2009 2009 2009 2009 2009 2009 2009 2009 
2009 2009 2009 2009 2009 2009 2009 2009 2009 
2009 2009 2009 2009 2009 2009 2009 2009 2009 
2009 2009 2009 2009 2009 2009 2009 2009 2009 
2009 2009 2009 2009 2009 2009 2009 2009 2009 
2009 2009 2009 2009 2009 2009 2009 2009 2009 
2009 2009 2009 2009 2009 2009 2009 2009 2009 
2009 2009 2009 2009 2009 2009 2009 2009 2009 
2009 2009 2009 2009 2009 2009 2009 2009 2009 
2009 2009 2009 2009 2009 2009 2009 2009 2009 
2009 2009 2009 2009 2009 2009 2009 2009 2009 
2009 2009 2009 2009 2009 2009 2009 2009 2009 
2009 2009 2009 2009 2009 2009 2009 2009 2009 
2009 2009 2009 2009 2009 2009 2009 2009 2009 
2009 2009 2009 2009 2009 2009 2009 2009 2009 
2009 2009 2009 2009 2009 2009 2009 2009 2009 
2009 2009 2009 2009 2009 2009 2009 2009 2009 
2009 2009 2009 2009 2009 2009 2009 2009 2009 
2009 2009 2009 2009 2009 2009 2009 2009 2009 
2009 2009 2009 2009 2009 2009 2009 2009 2009 
2009 2009 2009 2009 2009 2009 2009 2009 2009 
2009 2009 2009 2009 2009 2009 2009 2009 2009 
2009 2009 2009 2009 2009 2009 2009 2009 2009 
2009 2009 2009 2009 2009 2009 2009 2009 2009 
2009 2009 2009 2009 2009 2009 2009 2009 2009 
2009 2009 2009 2009 2009 2009 2009 2009 2009 
2009 2009 2009 2009 2009 2009 2009 2009 2009 
2009 2009 2009 2009 2009 2009 2009 2009 2009 
2009 2009 2009 2009 2009 2009 2009 2009 2009 
2009 2009 2009 2009 2009 2009 2009 2009 2009 
2009 2009 2009 2009 2009 2009 2009 2009 2009 
2009 2009 2009 2009 2009 2009 2009 2009 2009 
2009 2009 2009 2009 2009 2009 2009 2009 2009 
2009 2009 2009 2009 2009 2009 2009 2009 2009 
2009 2009 2009 2009 2009 2009 2009 2009 2009 
2009 2009 2009 2009 2009 2009 2009 2009 2009 
2009 2009 2009 2009 2009 2009 2009 2009 2009 
2009 2009 2009 2009 2009 2009 2009 2009 2009 
2009 2009 2009 2009 2009 2009 2009 2009 2009 
2009 2009 2009 2009 2009 2009 2009 2009 2009 
2009 2009 2009 2009 2009 2009 2009 2009 2009 
2009 2009 2009 2009 2009 2009 2009 2009 2009 
2009 2009 2009 2009 2009 2009 2009 2009 2009 
2009 2009 2009 2009 2009 2009 2009 2009 2009 
2009 2009 2009 2009 2009 2009 2009 2009 2009 
2009 2009 2009 2009 2009 2009 2009 2009 2009 
2009 2009 2009 2009 2009 2009 2009 2009 2009 
2009 2009 2009 2009 2009 2009 2009 2009 2009 
2009 2009 2009 2009 2009 2009 2009 2009 2009 
2009 2009 2009 2009 2009 2009 2009 2009 2009 
2009 2009 2009 2009 2009 2009 2009 2009 2009 
2009 2009 2009 2009 2009 2009 2009 2009 2009 
2009 2009 2009 2009 2009 2009 2009 2009 2009 
2009 2009 2009 2009 2009 2009 2009 2009 2009 
2009 2009 2009 2009 2009 2009 2009 2009 2009 
2009 2009 2009 2009 2009 2009 2009 2009 2009 
2009 2009 2009 2009 2009 2009 2009 2009 2009 
2009 2009 2009 2009 2009 2009 2009 2009 2009 
2009 2009 2009 2009 2009 2009 2009 2009 2009 
2009 2009 2009 2009 2009 2009 2009 2009 2009 
2009 2009 2009 2009 2009 2009 2009 2009 2009 
2009 2009 2009 2009 2009 2009 2009 2009 2009 
2009 2009 2009 2009 2009 2009 2009 2009 2009 
2009 2009 2009 2009 2009 2009 2009 2009 2009 
2009 2009 2009 2009 2009 2009 2009 2009 2009 
2009 2009 2009 2009 2009 2009 2009 2009 2009 
2009 2009 2009 2009 2009 2009 2009 2009 2009 
2009 2009 2009 2009 2009 2009 2009 2009 2009 
2009 2009 2009 2009 2009 2009 2009 2009 2009 
2009 2009 2009 2009 2009 2009 2009 2009 2009 
2009 2009 2009 2009 2009 2009 2009 2009 2009 
2009 2009 2009 2009 2009 2009 2009 2009 2009 
2009 2009 2009 2009 2009 2009 2009 2009 2009 
2009 2009 2009 2009 2009 2009 2009 2009 2009 
2009 2009 2009 2009 2009 2009 2009 2009 2009 
2009 2009 2009 2009 2009 2009 2009 2009 2009 
2009 2009 2009 2009 2009 2009 2009 2009 2009 
2009 2009 2009 2009 2009 2009 2009 2009 2009 
2009 2009 2009 2009 2009 2009 2009 2009 2009 
2009 2009 2009 2009 2009 2009 2009 2009 2009 
2009 2009 2009 2009 2009 2009 2009 2009 2009 
2009 2009 2009 2009 2009 2009 2009 2009 2009 
2009 2009 2009 2009 2009 2009 2009 2009 2009 
2009 2009 2009 2009 2009 2009 2009 2009 2009 
2009 2009 2009 2009 2009 2009 2009 2009 2009 
2009 2009 2009 2009 2009 2009 2009 2009 2009 
2009 2009 2009 2009 2009 2009 2009 2009 2009 
2009 2009 2009 2009 2009 2009 2009 2009 2009 
2009 2009 2009 2009 2009 2009 2009 2009 2009 
2009 2009 2009 2009 2009 2009 2009 2009 2009 
2009 2009 2009 2009 2009 2009 2009 2009 2009 
2009 2009 2009 2009 2009 2009 2009 2009 2009 
2009 2009 2009 2009 2009 2009 2009 2009 2009 
2009 2009 2009 2009 2009 2009 2009 2009 2009 
2009 2009 2009 2009 2009 2009 2009 2009 2009 
2009 2009 2009 2009 2009 2009 2009 2009 2009 
2009 2009 2009 2009 2009 2009 2009 2009 2009 
2009 2009 2009 2009 2009 2009 2009 2009 2009 
2009 2009 2009 2009 2009 2009 2009 2009 2009 
2009 2009 2009 2009 2009 2009 2009 2009 2009 
2009 2009 2009 2009 2009 2009 2009 2009 2009 
2009 2009 2009 2009 2009 2009 2009 2009 2009 
2009 2009 2009 2009 2009 2009 2009 2009 2009 
2009 2009 2009 2009 2009 2009 2009 2009 2009 
2009 2009 2009 2009 2009 2009 2009 2009 2009 
2009 2009 2009 2009 2009 2009 2009 2009 2009 
2009 2009 2009 2009 2009 2009 2009 2009 2009 
2009 2009 2009 2009 2009 2009 2009 2009 2009 
2009 2009 2009 2009 2009 2009 2009 2009 2009 
2009 2009 2009 2009 2009 2009 2009 2009 2009 
2009 2009 2009 2009 2009 2009 2009 2009 2009 
2009 2009 2009 2009 2009 2009 2009 2009 2009 
2009 2009 2009 2009 2009 2009 2009 2009 2009 
2009 2009 2009 2009 2009 2009 2009 2009 2009 
2009 2009 2009 2009 2009 2009 2009 2009 2009 
2009 2009 2009 2009 2009 2009 2009 2009 2009 
2009 2009 2009 2009 2009 2009 2009 2009 2009 
2009 2009 2009 2009 2009 2009 2009 2009 2009 
2009 2009 2009 2009 2009 2009 2009 2009 2009 
2009 2009 2009 2009 2009 2009 2009 2009 2009 
2009 2009 2009 2009 2009 2009 2009 2009 2009 
2009 2009 2009 2009 2009 2009 2009 2009 2009 
2009 2009 2009 2009 2009 2009 2009 2009 2009 
2009 2009 2009 2009 2009 2009 2009 2009 2009 
2009 2009 2009 2009 2009 2009 2009 2009 2009 
2009 2009 2009 2009 2009 2009 2009 2009 2009 
2009 2009 2009 2009 2009 2009 2009 2009 2009 
2009 2009 2009 2009 2009 2009 2009 2009 2009 
2009 2009 2009 2009 2009 2009 2009 2009 2009 
2009 2009 2009 2009 2009 2009 2009 2009 2009 
2009 2009 2009 2009 2009 2009 2009 2009 2009 
2009 2009 2009 2009 2009 2009 2009 2009 2009 
2009 2009 2009 2009 2009 2009 2009 2009 2009 
2009 2009 2009 2009 2009 2009 2009 2009 2009 
2009 2009 2009 2009 2009 2009 2009 2009 2009 
2009 2009 2009 2009 2009 2009 2009 2009 2009 
2009 2009 2009 2009 2009 2009 2009 2009 2009 
2009 2009 2009 2009 2009 2009 2009 2009 2009 
2009 2009 2009 2009 2009 2009 2009 2009 2009 
2009 2009 2009 2009 2009 2009 2009 2009 2009 
2009 2009 2009 2009 2009 2009 2009 2009 2009 
2009 2009 2009 2009 2009 2009 2009 2009 2009 
2009 2009 2009 2009 2009 2009 2009 2009 2009 
2009 2009 2009 2009 2009 2009 2009 2009 2009 
2009 2009 2009 2009 2009 2009 2009 2009 2009 
2009 2009 2009 2009 2009 2009 2009 2009 2009 
2009 2009 2009 2009 2009 2009 2009 2009 2009 
2009 2009 2009 2009 2009 2009 2009 2009 2009 
2009 2009 2009 2009 2009 2009 2009 2009 2009 
2009 2009 2009 2009 2009 2009 2009 2009 2009 
2009 2009 2009 2009 2009 2009 2009 2009 2009 
2009 2009 2009 2009 2009 2009 2009 2009 2009 
2009 2009 2009 2009 2009 2009 2009 2009 2009 
2009 2009 2009 2009 2009 2009 2009 2009 2009 
2009 2009 2009 2009 2009 2009 2009 2009 2009 
2009 2009 2009 2009 2009 2009 2009 2009 2009 
2009 2009 2009 2009 2009 2009 2009 2009 2009 
2009 2009 2009 2009 2009 2009 2009 2009 2009 
2009 2009 2009 2009 2009 2009 2009 2009 2009 
2009 2009 2009 2009 2009 2009 2009 2009 2009 
2009 2009 2009 2009 2009 2009 2009 2009 2009 
2009 2009 2009 2009 2009 2009 2009 2009 2009 
2009 2009 2009 2009 2009 2009 2009 2009 2009 
2009 2009 2009 2009 2009 2009 2009 2009 2009 
2009 2009 2009 2009 2009 2009 2009 2009 2009 
2009 2009 2009 2009 2009 2009 2009 2009 2009 
2009 2009 2009 2009 2009 2009 2009 2009 2009 
2009 2009 2009 2009 2009 2009 2009 2009 2009 
2009 2009 2009 2009 2009 2009 2009 2009 2009 
2009 2009 2009 2009 2009 2009 2009 2009 2009 
2009 2009 2009 2009 2009 2009 2009 2009 2009 
2009 2009 2009 2009 2009 2009 2009 2009 2009 
2009 2009 2009 2009 2009 2009 2009 2009 2009 
2009 2009 2009 2009 2009 2009 2009 2009 2009 
2009 2009 2009 2009 2009 2009 2009 2009 2009 
2009 2009 2009 2009 2009 2009 2009 2009 2009 
2009 2009 2009 2009 2009 2009 2009 2009 2009 
2009 2009 2009 2009 2009 2009 2009 2009 2009 
2009 2009 2009 2009 2009 2009 2009 2009 2009 
2009 2009 2009 2009 2009 2009 2009 2009 2009 
2009 2009 2009 2009 2009 2009 2009 2009 2009 
2009 2009 2009 2009 2009 2009 2009 2009 2009 
2009 2009 2009 2009 2009 2009 2009 2009 2009 
2009 2009 2009 2009 2009 2009 2009 2009 2009 
2009 2009 2009 2009 2009 2009 2009 2009 2009 
2009 2009 2009 2009 2009 2009 2009 2009 2009 
2009 2009 2009 2009 2009 2009 2009 2009 2009 
2009 2009 2009 2009 2009 2009 2009 2009 2009 
2009 2009 2009 2009 2009 2009 2009 2009 2009 
2009 2009 2009 2009 2009 2009 2009 2009 2009 
2009 2009 2009 2009 2009 2009 2009 2009 2009 
2009 2009 2009 2009 2009 2009 2009 2009 2009 
2009 2009 2009 2009 2009 2009 2009 2009 2009 
2009 2009 2009 2009 2009 2009 2009 2009 2009 
2009 2009 2009 2009 2009 2009 2009 2009 2009 
2009 2009 2009 2009 2009 2009 2009 2009 2009 
2009 2009 2009 2009 2009 2009 2009 2009 2009 
2009 2009 2009 2009 2009 2009 2009 2009 2009 
2009 2009 2009 2009 2009 2009 2009 2009 2009 
2009 2009 2009 2009 2009 2009 2009 2009 2009 
2009 2009 2009 2009 2009 2009 2009 2009 2009 
2009 2009 2009 2009 2009 2009 2009 2009 2009 
2009 2009 2009 2009 2009 2009 2009 2009 2009 
2009 2009 2009 2009 2009 2009 2009 2009 2009 
2009 2009 2009 2009 2009 2009 2009 2009 2009 
2009 2009 2009 2009 2009 2009 2009 2009 2009 
2009 2009 2009 2009 2009 2009 2009 2009 2009 
2009 2009 2009 2009 2009 2009 2009 2009 2009 
2009 2009 2009 2009 2009 2009 2009 2009 2009 
2009 2009 2009 2009 2009 2009 2009 2009 2009 
2009 2009 2009 2009 2009 2009 2009 2009 2009 
2009 2009 2009 2009 2009 2009 2009 2009 2009 
2009 2009 2009 2009 2009 2009 2009 2009 2009 
2009 2009 2009 2009 2009 2009 2009 2009 2009 
2009 2009 2009 2009 2009 2009 2009 2009 2009 
2009 2009 2009 2009 2009 2009 2009 2009 2009 
2009 2009 2009 2009 2009 2009 2009 2009 2009 
2009 2009 2009 2009 2009 2009 2009 2009 2009 
2009 2009 2009 2009 2009 2009 2009 2009 2009 
2009 2009 2009 2009 2009 2009 2009 2009 2009 
2009 2009 2009 2009 2009 2009 2009 2009 2009 
2009 2009 2009 2009 2009 2009 2009 2009 2009 
2009 2009 2009 2009 2009 2009 2009 2009 2009 
2009 2009 2009 2009 2009 2009 2009 2009 2009 
2009 2009 2009 2009 2009 2009 2009 2009 2009 
2009 2009 2009 2009 2009 2009 2009 2009 2009 
2009 2009 2009 2009 2009 2009 2009 2009 2009 
2009 2009 2009 2009 2009 2009 2009 2009 2009 
2009 2009 2009 2009 2009 2009 2009 2009 2009 
2009 2009 2009 2009 2009 2009 2009 2009 2009 
2009 2009 2009 2009 2009 2009 2009 2009 2009 
2009 2009 2009 2009 2009 2009 2009 2009 2009 
2009 2009 2009 2009 2009 2009 2009 2009 2009 
2009 2009 2009 2009 2009 2009 2009 2009 2009 
2009 2009 2009 2009 2009 2009 2009 2009 2009 
2009 2009 2009 2009 2009 2009 2009 2009 2009 
2009 2009 2009 2009 2009 2009 2009 2009 2009 
2009 2009 2009 2009 2009 2009 2009 2009 2009 
2009 2009 2009 2009 2009 2009 2009 2009 2009 
2009 2009 2009 2009 2009 2009 2009 2009 2009 
2009 2009 2009 2009 2009 2009 2009 2009 2009 
2009 2009 2009 2009 2009 2009 2009 2009 2009 
2009 2009 2009 2009 2009 2009 2009 2009 2009 
2009 2009 2009 2009 2009 2009 2009 2009 2009 
2009 2009 2009 2009 2009 2009 2009 2009 2009 
2009 2009 2009 2009 2009 2009 2009 2009 2009 
2009 2009 2009 2009 2009 2009 2009 2009 2009 
2009 2009 2009 2009 2009 2009 2009 2009 2009 
2009 2009 2009 2009 2009 2009 2009 2009 2009 
2009 2009 2009 2009 2009 2009 2009 2009 2009 
2009 2009 2009 2009 2009 2009 2009 2009 2009 
2009 2009 2009 2009 2009 2009 2009 2009 2009 
2009 2009 2009 2009 2009 2009 2009 2009 2009 
2009 2009 2009 2009 2009 2009 2009 2009 2009 
2009 2009 2009 2009 2009 2009 2009 2009 2009 
2009 2009 2009 2009 2009 2009 2009 2009 2009 
2009 2009 2009 2009 2009 2009 2009 2009 2009 
2009 2009 2009 2009 2009 2009 2009 2009 2009 
2009 2009 2009 2009 2009 2009 2009 2009 2009 
2009 2009 2009 2009 2009 2009 2009 2009 2009 
2009 2009 2009 2009 2009 2009 2009 2009 2009 
2009 2009 2009 2009 2009 2009 2009 2009 2009 
2009 2009 2009 2009 2009 2009 2009 2009 2009 
2009 2009 2009 2009 2009 2009 2009 2009 2009 
2009 2009 2009 2009 2009 2009 2009 2009 2009 
2009 2009 2009 2009 2009 2009 2009 2009 2009 
2009 2009 2009 2009 2009 2009 2009 2009 2009 
2009 2009 2009 2009 2009 2009 2009 2009 2009 
2009 2009 2009 2009 2009 2009 2009 2009 2009 
2009 2009 2009 2009 2009 2009 2009 2009 2009 
2009 2009 2009 2009 2009 2009 2009 2009 2009 
2009 2009 2009 2009 2009 2009 2009 2009 2009 
2009 2009 2009 2009 2009 2009 2009 2009 2009 
2009 2009 2009 2009 2009 2009 2009 2009 2009 
2009 2009 2009 2009 2009 2009 2009 2009 2009 
2009 2009 2009 2009 2009 2009 2009 2009 2009 
2009 2009 2009 2009 2009 2009 2009 2009 2009 
2009 2009 2009 2009 2009 2009 2009 2009 2009 
2009 2009 2009 2009 2009 2009 2009 2009 2009 
2009 2009 2009 2009 2009 2009 2009 2009 2009 
2009 2009 2009 2009 2009 2009 2009 2009 2009 
2009 2009 2009 2009 2009 2009 2009 2009 2009 
2009 2009 2009 2009 2009 2009 2009 2009 2009 
2009 2009 2009 2009 2009 2009 2009 2009 2009 
2009 2009 2009 2009 2009 2009 2009 2009 2009 
2009 2009 2009 2009 2009 2009 2009 2009 2009 
2009 2009 2009 2009 2009 2009 2009 2009 2009 
2009 2009 2009 2009 2009 2009 2009 2009 2009 
2009 2009 2009 2009 2009 2009 2009 2009 2009 
2009 2009 2009 2009 2009 2009 2009 2009 2009 
2009 2009 2009 2009 2009 2009 2009 2009 2009 
2009 2009 2009 2009 2009 2009 2009 2009 2009 
2009 2009 2009 2009 2009 2009 2009 2009 2009 
2009 2009 2009 2009 2009 2009 2009 2009 2009 
2009 2009 2009 2009 2009 2009 2009 2009 2009 
2009 2009 2009 2009 2009 2009 2009 2009 2009 
2009 2009 2009 2009 2009 2009 2009 2009 2009 
2009 2009 2009 2009 2009 2009 2009 2009 2009 
2009 2009 2009 2009 2009 2009 2009 2009 2009 
2009 2009 2009 2009 2009 2009 2009 2009 2009 
2009 2009 2009 2009 2009 2009 2009 2009 2009 
2009 2009 2009 2009 2009 2009 2009 2009 2009 
2009 2009 2009 2009 2009 2009 2009 2009 2009 
2009 2009 2009 2009 2009 2009 2009 2009 2009 
2009 2009 2009 2009 2009 2009 2009 2009 2009 
2009 2009 2009 2009 2009 2009 2009 2009 2009 
2009 2009 2009 2009 2009 2009 2009 2009 2009 
2009 2009 2009 2009 2009 2009 2009 2009 2009 
2009 2009 2009 2009 2009 2009 2009 2009 2009 
2009 2009 2009 2009 2009 2009 2009 2009 2009 
2009 2009 2009 2009 2009 2009 2009 2009 2009 
2009 2009 2009 2009 2009 2009 2009 2009 2009 
2009 2009 2009 2009 2009 2009 2009 2009 2009 
2009 2009 2009 2009 2009 2009 2009 2009 2009 
2009 2009 2009 2009 2009 2009 2009 2009 2009 
2009 2009 2009 2009 2009 2009 2009 2009 2009 
2009 2009 2009 2009 2009 2009 2009 2009 2009 
2009 2009 2009 2009 2009 2009 2009 2009 2009 
2009 2009 2009 2009 2009 2009 2009 2009 2009 
2009 2009 2009 2009 2009 2009 2009 2009 2009 
2009 2009 2009 2009 2009 2009 2009 2009 2009 
2009 2009 2009 2009 2009 2009 2009 2009 2009 
2009 2009 2009 2009 2009 2009 2009 2009 2009 
2009 2009 2009 2009 2009 2009 2009 2009 2009 
2009 2009 2009 2009 2009 2009 2009 2009 2009 
2009 2009 2009 2009 2009 2009 2009 2009 2009 
2009 2009 2009 2009 2009 2009 2009 2009 2009 
2009 2009 2009 2009 2009 2009 2009 2009 2009 
2009 2009 2009 2009 2009 2009 2009 2009 2009 
2009 2009 2009 2009 2009 2009 2009 2009 2009 
2009 2009 2009 2009 2009 2009 2009 2009 2009 
2009 2009 2009 2009 2009 2009 2009 2009 2009 
2009 2009 2009 2009 2009 2009 2009 2009 2009 
2009 2009 2009 2009 2009 2009 2009 2009 2009 
2009 2009 2009 2009 2009 2009 2009 2009 2009 
2009 2009 2009 2009 2009 2009 2009 2009 2009 
2009 2009 2009 2009 2009 2009 2009 2009 2009 
2009 2009 2009 2009 2009 2009 2009 2009 2009 
2009 2009 2009 2009 2009 2009 2009 2009 2009 
2009 2009 2009 2009 2009 2009 2009 2009 2009 
2009 2009 2009 2009 2009 2009 2009 2009 2009 
2009 2009 2009 2009 2009 2009 2009 2009 2009 
2009 2009 2009 2009 2009 2009 2009 2009 2009 
2009 2009 2009 2009 2009 2009 2009 2009 2009 
2009 2009 2009 2009 2009 2009 2009 2009 2009 
2009 2009 2009 2009 2009 2009 2009 2009 2009 
2009 2009 2009 2009 2009 2009 2009 2009 2009 
2009 2009 2009 2009 2009 2009 2009 2009 2009 
2009 2009 2009 2009 2009 2009 2009 2009 2009 