# vtk DataFile Version 4.2
vtk output
ASCII
DATASET POLYDATA
POINTS 1638 float
51.2581 16.8393 7.11577 51.4923 16.2167 7.77498 51.9469 16.2889 7.1333 
50.7222 16.4559 7.57156 52.1796 16.7764 6.6913 52.444 16.5392 6.74605 
52.5508 16.5732 6.47688 51.5596 16.9065 6.45416 50.3346 16.7017 7.13886 
50.4435 16.8537 6.54063 49.4757 16.7135 6.39327 49.3691 16.3722 6.9795 
48.8638 16.3798 6.54387 52.1842 16.6468 6.29148 51.2429 16.4323 6.19821 
49.9996 16.3946 6.09448 49.172 16.3706 6.19264 48.1766 16.2851 5.89943 
48.4759 16.2456 5.54147 48.3467 16.6429 5.50078 47.9393 16.4389 5.56004 
48.0605 16.3262 5.25911 52.2225 15.9362 7.61545 52.1369 15.7176 7.96373 
52.6126 15.4677 7.73219 51.5286 15.577 8.18073 49.9509 16.1459 7.51362 
50.5843 15.7175 8.04076 49.3392 15.8936 7.48155 49.3843 15.31 8.01471 
48.7736 15.4924 7.49545 52.1603 16.3693 6.51682 52.346 15.4113 7.15497 
51.3462 15.9081 6.55338 51.5055 15.5985 6.86424 50.8656 15.3599 6.35583 
48.5833 16.0147 6.18604 48.467 15.7755 6.92175 47.9269 15.6091 6.55886 
52.4128 15.423 5.85493 52.5675 15.2419 5.47421 52.2924 15.6792 5.4819 
52.0426 15.499 5.63251 50.3186 15.6202 5.97225 49.3209 15.7638 5.88455 
48.715 15.5596 5.45736 47.1494 16.037 5.3688 47.4533 15.8348 6.00492 
46.2564 15.8088 5.27432 46.3858 15.3537 5.99286 45.7541 15.4035 5.48766 
52.0627 15.3095 5.2189 48.155 15.6596 5.00725 47.3712 15.7635 4.83601 
46.8368 15.3277 4.14597 46.463 15.8439 4.5385 45.7604 15.575 4.72544 
46.3709 15.6897 3.71626 46.5118 15.2944 3.47655 45.8444 15.444 3.54969 
46.2582 15.4733 3.26386 52.2424 15.0514 8.31969 52.4244 14.2136 8.83856 
52.9618 14.6467 8.38479 51.0283 15.04 8.51519 51.3329 14.3721 8.86212 
50.0018 14.9912 8.49872 50.2754 14.3681 8.86726 49.3546 14.8467 8.4962 
49.3675 14.35 8.79769 48.8044 14.4721 8.51091 53.0941 14.9026 7.7167 
53.4657 14.3888 8.10224 53.6608 14.1723 7.37463 47.9365 15.045 7.33079 
48.4149 14.7267 8.01899 47.0997 14.7579 7.21425 47.6045 14.4736 7.91242 
46.9085 14.4115 7.63532 53.0897 14.7216 6.93 52.2214 15.1211 6.30925 
52.9228 14.7393 6.0962 51.3536 15.1727 6.38035 47.2101 15.1941 6.63446 
46.2484 14.3337 7.10423 46.5132 14.8853 6.63548 45.7846 14.5136 6.46789 
52.943 14.4765 5.39888 51.3504 15.0871 5.46795 50.2984 15.0607 5.49354 
49.3134 15.164 5.31323 45.2742 14.978 5.18078 45.4678 14.7819 5.91579 
44.9766 14.2353 5.71528 52.4639 14.5411 5.05235 51.5315 14.4886 4.99419 
50.7503 14.4917 4.57167 50.3479 14.8371 4.50442 49.2585 14.9391 4.41097 
48.4667 15.0889 4.64362 47.613 15.0489 4.31291 45.2542 15.0727 4.1774 
44.7805 14.3429 4.75979 50.1856 14.6005 3.96068 49.8076 14.1948 3.58254 
49.4785 14.7745 3.61305 48.4478 14.7758 3.65598 47.6869 14.5193 3.6257 
47.1641 14.6318 3.90126 46.7567 14.6498 3.45208 45.2129 14.9985 3.25066 
44.7639 14.5612 3.65246 49.0999 14.464 3.10875 48.3474 14.2757 3.03524 
46.1891 14.8964 2.94272 45.496 14.8596 2.66373 45.8875 14.3762 2.32298 
44.8649 14.5661 2.72333 45.1787 14.1926 2.12999 53.2435 14.1457 8.58986 
53.3162 13.3238 8.88081 53.8764 13.5125 8.17991 52.3682 13.5279 9.03067 
51.6206 13.4896 9.14169 50.6052 13.6524 9.16281 49.6004 13.6449 9.14231 
47.9902 14.0647 8.5205 48.5871 13.6676 9.02451 47.0283 13.9938 8.32911 
47.3997 13.399 9.0279 46.2691 13.7811 8.26925 46.3544 13.3789 8.80307 
45.7703 13.354 8.46421 53.9075 13.4889 7.45131 46.4533 14.1107 7.74441 
45.7764 13.6332 7.71213 53.4709 14.2003 6.53945 53.8015 13.4729 6.5815 
45.2069 14.0878 6.31968 45.268 13.5076 6.98483 44.7846 13.4635 6.3506 
53.3957 13.9595 5.75244 53.6952 13.122 5.52558 51.027 13.9781 5.32494 
51.694 13.6066 5.4262 51.2049 13.1845 5.88715 50.4305 13.3815 5.89605 
50.377 13.821 5.3145 49.8632 13.3708 5.5667 44.5996 13.6133 5.5848 
53.0559 13.544 5.07725 52.2556 13.5365 5.08282 50.4195 14.1866 4.51524 
49.8719 13.616 4.62277 44.3819 13.6525 4.90973 44.3015 13.9211 4.12522 
44.0046 13.2196 4.70122 49.639 13.5023 3.67812 47.39 14.1898 3.11964 
44.2823 14.0672 3.14135 43.7668 13.3333 3.69791 49.1809 13.8017 2.95367 
48.1735 13.8632 2.45039 48.7973 13.4466 2.53858 47.3551 13.9711 2.40945 
46.6633 14.0897 2.41691 44.4428 14.0772 2.39254 43.8225 13.5627 2.68725 
48.2281 13.5617 1.98909 47.7907 13.1875 1.53405 47.4451 13.7668 1.75067 
46.7423 13.6145 1.55481 45.968 13.5251 1.84417 45.0931 13.3637 1.90351 
44.2135 13.4412 2.06218 47.065 13.2475 1.1386 50.9941 12.9548 9.51735 
51.0797 12.2288 9.72565 51.5787 12.6834 9.41714 50.0687 13.0245 9.53474 
50.3364 12.3569 9.87994 49.0591 13.0223 9.52621 49.3452 12.3854 9.89348 
48.0657 13.0068 9.51461 48.32 12.3826 9.89122 47.2376 12.8538 9.46908 
47.3856 12.3808 9.81911 46.7258 12.3601 9.59848 54.2655 12.8891 8.61148 
54.0817 12.3452 8.81555 54.5467 12.453 8.56454 53.2129 12.3301 9.04358 
52.2162 12.5894 9.13242 46.3576 12.6423 9.2079 45.2821 12.9436 8.16244 
45.5562 12.7161 8.80336 45.0207 12.263 8.47506 54.3857 12.639 8.28107 
54.0372 12.5562 7.65363 45.2685 13.1228 7.57922 44.7795 12.4151 7.72791 
53.7915 12.3026 6.39741 44.2828 12.9098 6.17935 44.2981 12.4695 6.99924 
43.7906 12.3248 6.49593 53.7714 12.318 5.38583 51.8025 12.8157 5.49591 
51.0714 12.2941 5.87736 50.3502 12.4749 6.12775 49.4596 12.58 5.94182 
49.156 12.9494 5.21914 48.7008 12.3826 5.63294 44.2367 13.1538 5.42992 
43.7927 12.5772 5.60452 53.4179 12.6145 5.01941 52.5683 12.5032 4.97097 
49.2168 13.1049 4.21171 48.4252 12.5734 5.13407 48.4586 12.7868 4.46856 
47.9344 12.4578 4.63415 43.5927 12.632 4.5706 49.131 13.1927 3.23243 
48.4899 12.8695 3.46683 47.8046 12.5174 3.75708 43.3384 12.6651 3.86213 
43.2635 12.9391 3.09921 42.9533 12.2281 3.63205 48.4626 13.1394 2.46853 
47.8361 12.5301 2.4035 43.3925 13.0359 2.38847 42.9244 12.3582 2.70967 
47.67 12.3532 1.33204 46.4625 13.1156 1.30866 45.9827 12.6071 1.48722 
45.259 12.3886 1.81321 44.2582 12.5102 1.90681 43.3723 12.4514 2.08928 
47.184 12.4642 0.967567 46.4617 12.4405 1.08151 51.5029 12.0825 9.41893 
51.0234 11.5709 9.58077 50.3352 11.387 9.90211 49.3825 11.5294 10.044 
48.3471 11.5224 10.0403 47.326 11.5096 10.0298 46.0974 11.9273 9.47427 
46.4077 11.5542 9.8491 45.6791 11.337 9.5906 54.3753 12.2052 8.39462 
53.9198 11.7309 8.39034 53.2787 11.4082 8.85767 52.3424 11.4866 9.05029 
51.4821 11.4541 9.22598 45.2676 11.5726 9.10671 44.6457 11.5192 8.43991 
53.6735 11.5907 7.58499 44.1592 11.3381 8.01067 44.2785 11.94 7.52199 
43.766 11.496 7.48768 53.2194 11.3388 7.01023 53.4393 11.7337 6.34553 
52.9159 11.3196 6.56142 43.2964 11.9143 6.17513 43.4529 11.7415 6.93253 
42.9706 11.2183 6.6967 53.192 11.4283 6.05931 53.6262 11.7671 5.69096 
51.5449 12.0496 5.13527 50.8037 11.6504 5.51138 50.1854 11.4063 5.91704 
49.3399 11.4979 6.11684 48.5022 11.7091 5.96088 47.9389 12.0788 5.36809 
47.4076 11.2406 6.06751 47.241 11.7816 5.28423 46.7704 11.4006 5.52084 
43.277 12.0123 5.21328 42.9233 11.3338 5.75258 53.2549 11.827 4.95834 
52.3405 11.8245 4.5683 52.7876 11.4055 4.53974 51.5571 11.7381 4.39524 
50.8911 11.5125 4.7466 47.3557 12.0555 4.38673 46.7667 11.4565 4.61363 
43.2065 12.1703 4.38563 42.7691 11.4519 4.60392 52.0236 11.3973 4.11887 
51.0876 11.2358 4.06894 47.2905 12.0557 3.20235 46.9346 11.5717 3.66426 
42.6033 11.5122 3.30334 47.4055 11.837 2.33919 47.0353 11.3571 2.77659 
42.8603 11.6804 2.41015 47.3886 11.101 1.98012 47.6226 11.5287 1.54243 
45.8023 11.7331 1.43438 45.1269 11.1899 1.80514 44.2754 11.463 1.94239 
43.3867 11.5115 2.04881 47.241 11.4445 0.980163 46.4752 11.4633 1.01297 
50.0328 10.2949 9.79187 50.7438 10.8191 9.50262 49.3089 10.4949 10.0202 
48.3172 10.5241 10.0336 47.2802 10.485 10.0363 46.2858 10.5004 10.0199 
45.272 10.9547 9.52671 45.5462 10.667 9.81257 44.8723 10.2819 9.47001 
53.3773 11.0066 8.21319 52.8583 10.4329 8.41552 52.2224 10.4109 8.83938 
51.2421 10.4359 9.11622 44.2586 10.9313 8.48935 44.3284 10.5056 8.90107 
43.7674 10.4433 8.50294 53.3162 11.0222 7.63575 52.8704 10.4562 7.60637 
43.185 11.0706 7.35831 43.4218 10.7119 7.94392 42.9087 10.3401 7.58318 
52.5066 10.6669 6.87396 52.488 10.9278 6.1311 52.0456 10.2518 6.49083 
47.2707 10.8028 6.57731 47.6398 10.5888 6.48433 47.2197 10.2003 6.76817 
46.7721 10.5571 6.55984 42.7713 10.4602 6.56111 53.0314 11.2343 5.29428 
52.3405 10.8434 5.26161 51.8923 10.4015 5.71736 50.3016 11.0743 5.20258 
49.7817 10.6128 5.51797 49.1817 10.3987 5.89791 48.3215 10.6152 6.18267 
46.4469 10.8304 5.98642 46.274 10.9983 5.20382 45.9431 10.2675 5.72978 
42.6186 10.4543 5.60791 52.3602 10.9963 4.50197 51.7771 10.5084 4.72303 
50.4164 10.9881 4.4396 49.848 10.4936 4.78021 46.346 10.903 4.40792 
45.7662 10.2471 4.61508 42.3387 10.6714 4.86455 42.2378 10.9631 4.09958 
41.9528 10.2573 4.64508 51.3619 10.6355 4.0248 50.253 10.3884 4.05684 
46.2448 10.3638 3.89043 46.6805 10.7263 3.45912 42.2954 10.8825 3.31947 
41.9396 10.4018 3.76699 46.9796 10.3866 2.27931 42.7891 10.8539 2.5791 
42.4013 10.1977 3.01161 47.3789 10.4926 1.77431 47.5456 10.6665 1.479 
45.8764 10.7294 1.41747 45.3393 10.1148 1.81942 44.4469 10.5788 1.96366 
43.6091 10.4483 2.13392 47.364 10.6651 1.13014 46.6955 10.532 1.0952 
50.4392 10.0613 9.41964 49.9484 9.56098 9.57424 49.2616 9.37035 9.8748 
48.2761 9.48979 9.98409 47.2507 9.45561 9.97209 46.2297 9.43896 9.99498 
45.2726 9.57374 9.88342 44.5855 9.35924 9.59574 52.421 9.84413 8.38828 
51.8364 9.34095 8.39753 51.1673 9.42526 8.83681 50.4254 9.42106 9.20198 
44.1236 9.50831 9.22931 43.1841 10.0212 8.36376 43.5251 9.65448 8.82898 
42.9589 9.37844 8.37891 52.2721 9.28712 7.94112 52.5605 9.69232 7.81341 
42.6431 9.40473 7.5659 52.2923 9.79893 7.08711 51.7807 9.38156 6.43632 
47.8066 9.61315 6.42804 47.2029 9.22587 6.90291 46.5375 9.71077 6.82764 
46.1945 10.1552 6.39624 45.9539 9.4345 6.41958 42.5625 9.61424 6.58191 
51.158 9.2705 5.89516 51.3554 9.88692 5.30433 50.8195 9.36007 5.48693 
49.2723 10.0308 5.20319 48.7639 9.61727 5.4724 48.3701 9.56184 5.89515 
45.5781 9.46599 5.63198 42.3566 9.6351 5.91239 42.2195 10.0607 5.3108 
41.9332 9.36979 5.53902 51.1759 10.0459 4.40122 50.7456 9.53067 4.75452 
49.4403 9.95354 4.44593 48.7602 9.31075 4.52516 45.3202 9.73126 4.88356 
[...]
CELL_DATA 3280
SCALARS scalars float
LOOKUP_TABLE default
2034 2034 2034 2034 2034 2034 2034 2034 2034 
2034 2034 2034 2034 2034 2034 2034 2034 2034 
2034 2034 2034 2034 2034 2034 2034 2034 2034 
2034 2034 2034 2034 2034 2034 2034 2034 2034 
2034 2034 2034 2034 2034 2034 2034 2034 2034 
2034 2034 2034 2034 2034 2034 2034 2034 2034 
2034 2034 2034 2034 2034 2034 2034 2034 2034 
2034 2034 2034 2034 2034 2034 2034 2034 2034 
2034 2034 2034 2034 2034 2034 2034 2034 2034 
2034 2034 2034 2034 2034 2034 2034 2034 2034 
2034 2034 2034 2034 2034 2034 2034 2034 2034 
2034 2034 2034 2034 2034 2034 2034 2034 2034 
2034 2034 2034 2034 2034 2034 2034 2034 2034 
2034 2034 2034 2034 2034 2034 2034 2034 2034 
2034 2034 2034 2034 2034 2034 2034 2034 2034 
2034 2034 2034 2034 2034 2034 2034 2034 2034 
2034 2034 2034 2034 2034 2034 2034 2034 2034 
2034 2034 2034 2034 2034 2034 2034 2034 2034 
2034 2034 2034 2034 2034 2034 2034 2034 2034 
2034 2034 2034 2034 2034 2034 2034 2034 2034 
2034 2034 2034 2034 2034 2034 2034 2034 2034 
2034 2034 2034 2034 2034 2034 2034 2034 2034 
2034 2034 2034 2034 2034 2034 2034 2034 2034 
2034 2034 2034 2034 2034 2034 2034 2034 2034 
2034 2034 2034 2034 2034 2034 2034 2034 2034 
2034 2034 2034 2034 2034 2034 2034 2034 2034 
2034 2034 2034 2034 2034 2034 2034 2034 2034 
2034 2034 2034 2034 2034 2034 2034 2034 2034 
2034 2034 2034 2034 2034 2034 2034 2034 2034 
2034 2034 2034 2034 2034 2034 2034 2034 2034 
2034 2034 2034 2034 2034 2034 2034 2034 2034 
2034 2034 2034 2034 2034 2034 2034 2034 2034 
2034 2034 2034 2034 2034 2034 2034 2034 2034 
2034 2034 2034 2034 2034 2034 2034 2034 2034 
2034 2034 2034 2034 2034 2034 2034 2034 2034 
2034 2034 2034 2034 2034 2034 2034 2034 2034 
2034 2034 2034 2034 2034 2034 2034 2034 2034 
2034 2034 2034 2034 2034 2034 2034 2034 2034 
2034 2034 2034 2034 2034 2034 2034 2034 2034 
2034 2034 2034 2034 2034 2034 2034 2034 2034 
2034 2034 2034 2034 2034 2034 2034 2034 2034 
2034 2034 2034 2034 2034 2034 2034 2034 2034 
2034 2034 2034 2034 2034 2034 2034 2034 2034 
2034 2034 2034 2034 2034 2034 2034 2034 2034 
2034 2034 2034 2034 2034 2034 2034 2034 2034 
2034 2034 2034 2034 2034 2034 2034 2034 2034 
2034 2034 2034 2034 2034 2034 2034 2034 2034 
2034 2034 2034 2034 2034 2034 2034 2034 2034 
2034 2034 2034 2034 2034 2034 2034 2034 2034 
2034 2034 2034 2034 2034 2034 2034 2034 2034 
2034 2034 2034 2034 2034 2034 2034 2034 2034 
2034 2034 2034 2034 2034 2034 2034 2034 2034 
2034 2034 2034 2034 2034 2034 2034 2034 2034 
2034 2034 2034 2034 2034 2034 2034 2034 2034 
2034 2034 2034 2034 2034 2034 2034 2034 2034 
2034 2034 2034 2034 2034 2034 2034 2034 2034 
2034 2034 2034 2034 2034 2034 2034 2034 2034 
2034 2034 2034 2034 2034 2034 2034 2034 2034 
2034 2034 2034 2034 2034 2034 2034 2034 2034 
2034 2034 2034 2034 2034 2034 2034 2034 2034 
2034 2034 2034 2034 2034 2034 2034 2034 2034 
2034 2034 2034 2034 2034 2034 2034 2034 2034 
2034 2034 2034 2034 2034 2034 2034 2034 2034 
2034 2034 2034 2034 2034 2034 2034 2034 2034 
2034 2034 2034 2034 2034 2034 2034 2034 2034 
2034 2034 2034 2034 2034 2034 2034 2034 2034 
2034 2034 2034 2034 2034 2034 2034 2034 2034 
2034 2034 2034 2034 2034 2034 2034 2034 2034 
2034 2034 2034 2034 2034 2034 2034 2034 2034 
2034 2034 2034 2034 2034 2034 2034 2034 2034 
2034 2034 2034 2034 2034 2034 2034 2034 2034 
2034 2034 2034 2034 2034 2034 2034 2034 2034 
2034 2034 2034 2034 2034 2034 2034 2034 2034 
2034 2034 2034 2034 2034 2034 2034 2034 2034 
2034 2034 2034 2034 2034 2034 2034 2034 2034 
2034 2034 2034 2034 2034 2034 2034 2034 2034 
2034 2034 2034 2034 2034 2034 2034 2034 2034 
2034 2034 2034 2034 2034 2034 2034 2034 2034 
2034 2034 2034 2034 2034 2034 2034 2034 2034 
2034 2034 2034 2034 2034 2034 2034 2034 2034 
2034 2034 2034 2034 2034 2034 2034 2034 2034 
2034 2034 2034 2034 2034 2034 2034 2034 2034 
2034 2034 2034 2034 2034 2034 2034 2034 2034 
2034 2034 2034 2034 2034 2034 2034 2034 2034 
2034 2034 2034 2034 2034 2034 2034 2034 2034 
2034 2034 2034 2034 2034 2034 2034 2034 2034 
2034 2034 2034 2034 2034 2034 2034 2034 2034 
2034 2034 2034 2034 2034 2034 2034 2034 2034 
2034 2034 2034 2034 2034 2034 2034 2034 2034 
2034 2034 2034 2034 2034 2034 2034 2034 2034 
2034 2034 2034 2034 2034 2034 2034 2034 2034 
2034 2034 2034 2034 2034 2034 2034 2034 2034 
2034 2034 2034 2034 2034 2034 2034 2034 2034 
2034 2034 2034 2034 2034 2034 2034 2034 2034 
2034 2034 2034 2034 2034 2034 2034 2034 2034 
2034 2034 2034 2034 2034 2034 2034 2034 2034 
2034 2034 2034 2034 2034 2034 2034 2034 2034 
2034 2034 2034 2034 2034 2034 2034 2034 2034 
2034 2034 2034 2034 2034 2034 2034 2034 2034 
2034 2034 2034 2034 2034 2034 2034 2034 2034 
2034 2034 2034 2034 2034 2034 2034 2034 2034 
2034 2034 2034 2034 2034 2034 2034 2034 2034 
2034 2034 2034 2034 2034 2034 2034 2034 2034 
2034 2034 2034 2034 2034 2034 2034 2034 2034 
2034 2034 2034 2034 2034 2034 2034 2034 2034 
2034 2034 2034 2034 2034 2034 2034 2034 2034 
2034 2034 2034 2034 2034 2034 2034 2034 2034 
2034 2034 2034 2034 2034 2034 2034 2034 2034 
2034 2034 2034 2034 2034 2034 2034 2034 2034 
2034 2034 2034 2034 2034 2034 2034 2034 2034 
2034 2034 2034 2034 2034 2034 2034 2034 2034 
2034 2034 2034 2034 2034 2034 2034 2034 2034 
2034 2034 2034 2034 2034 2034 2034 2034 2034 
2034 2034 2034 2034 2034 2034 2034 2034 2034 
2034 2034 2034 2034 2034 2034 2034 2034 2034 
2034 2034 2034 2034 2034 2034 2034 2034 2034 
2034 2034 2034 2034 2034 2034 2034 2034 2034 
2034 2034 2034 2034 2034 2034 2034 2034 2034 
2034 2034 2034 2034 2034 2034 2034 2034 2034 
2034 2034 2034 2034 2034 2034 2034 2034 2034 
2034 2034 2034 2034 2034 2034 2034 2034 2034 
2034 2034 2034 2034 2034 2034 2034 2034 2034 
2034 2034 2034 2034 2034 2034 2034 2034 2034 
2034 2034 2034 2034 2034 2034 2034 2034 2034 
2034 2034 2034 2034 2034 2034 2034 2034 2034 
2034 2034 2034 2034 2034 2034 2034 2034 2034 
2034 2034 2034 2034 2034 2034 2034 2034 2034 
2034 2034 2034 2034 2034 2034 2034 2034 2034 
2034 2034 2034 2034 2034 2034 2034 2034 2034 
2034 2034 2034 2034 2034 2034 2034 2034 2034 
2034 2034 2034 2034 2034 2034 2034 2034 2034 
2034 2034 2034 2034 2034 2034 2034 2034 2034 
2034 2034 2034 2034 2034 2034 2034 2034 2034 
2034 2034 2034 2034 2034 2034 2034 2034 2034 
2034 2034 2034 2034 2034 2034 2034 2034 2034 
2034 2034 2034 2034 2034 2034 2034 2034 2034 
2034 2034 2034 2034 2034 2034 2034 2034 2034 
2034 2034 2034 2034 2034 2034 2034 2034 2034 
2034 2034 2034 2034 2034 2034 2034 2034 2034 
2034 2034 2034 2034 2034 2034 2034 2034 2034 
2034 2034 2034 2034 2034 2034 2034 2034 2034 
2034 2034 2034 2034 2034 2034 2034 2034 2034 
2034 2034 2034 2034 2034 2034 2034 2034 2034 
2034 2034 2034 2034 2034 2034 2034 2034 2034 
2034 2034 2034 2034 2034 2034 2034 2034 2034 
2034 2034 2034 2034 2034 2034 2034 2034 2034 
2034 2034 2034 2034 2034 2034 2034 2034 2034 
2034 2034 2034 2034 2034 2034 2034 2034 2034 
2034 2034 2034 2034 2034 2034 2034 2034 2034 
2034 2034 2034 2034 2034 2034 2034 2034 2034 
2034 2034 2034 2034 2034 2034 2034 2034 2034 
2034 2034 2034 2034 2034 2034 2034 2034 2034 
2034 2034 2034 2034 2034 2034 2034 2034 2034 
2034 2034 2034 2034 2034 2034 2034 2034 2034 
2034 2034 2034 2034 2034 2034 2034 2034 2034 
2034 2034 2034 2034 2034 2034 2034 2034 2034 
2034 2034 2034 2034 2034 2034 2034 2034 2034 
2034 2034 2034 2034 2034 2034 2034 2034 2034 
2034 2034 2034 2034 2034 2034 2034 2034 2034 
2034 2034 2034 2034 2034 2034 2034 2034 2034 
2034 2034 2034 2034 2034 2034 2034 2034 2034 
2034 2034 2034 2034 2034 2034 2034 2034 2034 
2034 2034 2034 2034 2034 2034 2034 2034 2034 
2034 2034 2034 2034 2034 2034 2034 2034 2034 
2034 2034 2034 2034 2034 2034 2034 2034 2034 
2034 2034 2034 2034 2034 2034 2034 2034 2034 
2034 2034 2034 2034 2034 2034 2034 2034 2034 
2034 2034 2034 2034 2034 2034 2034 2034 2034 
2034 2034 2034 2034 2034 2034 2034 2034 2034 
2034 2034 2034 2034 2034 2034 2034 2034 2034 
2034 2034 2034 2034 2034 2034 2034 2034 2034 
2034 2034 2034 2034 2034 2034 2034 2034 2034 
2034 2034 2034 2034 2034 2034 2034 2034 2034 
2034 2034 2034 2034 2034 2034 2034 2034 2034 
2034 2034 2034 2034 2034 2034 2034 2034 2034 
2034 2034 2034 2034 2034 2034 2034 2034 2034 
2034 2034 2034 2034 2034 2034 2034 2034 2034 
2034 2034 2034 2034 2034 2034 2034 2034 2034 
2034 2034 2034 2034 2034 2034 2034 2034 2034 
2034 2034 2034 2034 2034 2034 2034 2034 2034 
2034 2034 2034 2034 2034 2034 2034 2034 2034 
2034 2034 2034 2034 2034 2034 2034 2034 2034 
2034 2034 2034 2034 2034 2034 2034 2034 2034 
2034 2034 2034 2034 2034 2034 2034 2034 2034 
2034 2034 2034 2034 2034 2034 2034 2034 2034 
2034 2034 2034 2034 2034 2034 2034 2034 2034 
2034 2034 2034 2034 2034 2034 2034 2034 2034 
2034 2034 2034 2034 2034 2034 2034 2034 2034 
2034 2034 2034 2034 2034 2034 2034 2034 2034 
2034 2034 2034 2034 2034 2034 2034 2034 2034 
2034 2034 2034 2034 2034 2034 2034 2034 2034 
2034 2034 2034 2034 2034 2034 2034 2034 2034 
2034 2034 2034 2034 2034 2034 2034 2034 2034 
2034 2034 2034 2034 2034 2034 2034 2034 2034 
2034 2034 2034 2034 2034 2034 2034 2034 2034 
2034 2034 2034 2034 2034 2034 2034 2034 2034 
2034 2034 2034 2034 2034 2034 2034 2034 2034 
2034 2034 2034 2034 2034 2034 2034 2034 2034 
2034 2034 2034 2034 2034 2034 2034 2034 2034 
2034 2034 2034 2034 2034 2034 2034 2034 2034 
2034 2034 2034 2034 2034 2034 2034 2034 2034 
2034 2034 2034 2034 2034 2034 2034 2034 2034 
2034 2034 2034 2034 2034 2034 2034 2034 2034 
2034 2034 2034 2034 2034 2034 2034 2034 2034 
2034 2034 2034 2034 2034 2034 2034 2034 2034 
2034 2034 2034 2034 2034 2034 2034 2034 2034 
2034 2034 2034 2034 2034 2034 2034 2034 2034 
2034 2034 2034 2034 2034 2034 2034 2034 2034 
2034 2034 2034 2034 2034 2034 2034 2034 2034 
2034 2034 2034 2034 2034 2034 2034 2034 2034 
2034 2034 2034 2034 2034 2034 2034 2034 2034 
2034 2034 2034 2034 2034 2034 2034 2034 2034 
2034 2034 2034 2034 2034 2034 2034 2034 2034 
2034 2034 2034 2034 2034 2034 2034 2034 2034 
2034 2034 2034 2034 2034 2034 2034 2034 2034 
2034 2034 2034 2034 2034 2034 2034 2034 2034 
2034 2034 2034 2034 2034 2034 2034 2034 2034 
2034 2034 2034 2034 2034 2034 2034 2034 2034 
2034 2034 2034 2034 2034 2034 2034 2034 2034 
2034 2034 2034 2034 2034 2034 2034 2034 2034 
2034 2034 2034 2034 2034 2034 2034 2034 2034 
2034 2034 2034 2034 2034 2034 2034 2034 2034 
2034 2034 2034 2034 2034 2034 2034 2034 2034 
2034 2034 2034 2034 2034 2034 2034 2034 2034 
2034 2034 2034 2034 2034 2034 2034 2034 2034 
2034 2034 2034 2034 2034 2034 2034 2034 2034 
2034 2034 2034 2034 2034 2034 2034 2034 2034 
2034 2034 2034 2034 2034 2034 2034 2034 2034 
2034 2034 2034 2034 2034 2034 2034 2034 2034 
2034 2034 2034 2034 2034 2034 2034 2034 2034 
2034 2034 2034 2034 2034 2034 2034 2034 2034 
2034 2034 2034 2034 2034 2034 2034 2034 2034 
2034 2034 2034 2034 2034 2034 2034 2034 2034 
2034 2034 2034 2034 2034 2034 2034 2034 2034 
2034 2034 2034 2034 2034 2034 2034 2034 2034 
2034 2034 2034 2034 2034 2034 2034 2034 2034 
2034 2034 2034 2034 2034 2034 2034 2034 2034 
2034 2034 2034 2034 2034 2034 2034 2034 2034 
2034 2034 2034 2034 2034 2034 2034 2034 2034 
2034 2034 2034 2034 2034 2034 2034 2034 2034 
2034 2034 2034 2034 2034 2034 2034 2034 2034 
2034 2034 2034 2034 2034 2034 2034 2034 2034 
2034 2034 2034 2034 2034 2034 2034 2034 2034 
2034 2034 2034 2034 2034 2034 2034 2034 2034 
2034 2034 2034 2034 2034 2034 2034 2034 2034 
2034 2034 2034 2034 2034 2034 2034 2034 2034 
2034 2034 2034 2034 2034 2034 2034 2034 2034 
2034 2034 2034 2034 2034 2034 2034 2034 2034 
2034 2034 2034 2034 2034 2034 2034 2034 2034 
2034 2034 2034 2034 2034 2034 2034 2034 2034 
2034 2034 2034 2034 2034 2034 2034 2034 2034 
2034 2034 2034 2034 2034 2034 2034 2034 2034 
2034 2034 2034 2034 2034 2034 2034 2034 2034 
2034 2034 2034 2034 2034 2034 2034 2034 2034 
2034 2034 2034 2034 2034 2034 2034 2034 2034 
2034 2034 2034 2034 2034 2034 2034 2034 2034 
2034 2034 2034 2034 2034 2034 2034 2034 2034 
2034 2034 2034 2034 2034 2034 2034 2034 2034 
2034 2034 2034 2034 2034 2034 2034 2034 2034 
2034 2034 2034 2034 2034 2034 2034 2034 2034 
2034 2034 2034 2034 2034 2034 2034 2034 2034 
2034 2034 2034 2034 2034 2034 2034 2034 2034 
2034 2034 2034 2034 2034 2034 2034 2034 2034 
2034 2034 2034 2034 2034 2034 2034 2034 2034 
2034 2034 2034 2034 2034 2034 2034 2034 2034 
2034 2034 2034 2034 2034 2034 2034 2034 2034 
2034 2034 2034 2034 2034 2034 2034 2034 2034 
2034 2034 2034 2034 2034 2034 2034 2034 2034 
2034 2034 2034 2034 2034 2034 2034 2034 2034 
2034 2034 2034 2034 2034 2034 2034 2034 2034 
2034 2034 2034 2034 2034 2034 2034 2034 2034 
2034 2034 2034 2034 2034 2034 2034 2034 2034 
2034 2034 2034 2034 2034 2034 2034 2034 2034 
2034 2034 2034 2034 2034 2034 2034 2034 2034 
2034 2034 2034 2034 2034 2034 2034 2034 2034 
2034 2034 2034 2034 2034 2034 2034 2034 2034 
2034 2034 2034 2034 2034 2034 2034 2034 2034 
2034 2034 2034 2034 2034 2034 2034 2034 2034 
2034 2034 2034 2034 2034 2034 2034 2034 2034 
2034 2034 2034 2034 2034 2034 2034 2034 2034 
2034 2034 2034 2034 2034 2034 2034 2034 2034 
2034 2034 2034 2034 2034 2034 2034 2034 2034 
2034 2034 2034 2034 2034 2034 2034 2034 2034 
2034 2034 2034 2034 2034 2034 2034 2034 2034 
2034 2034 2034 2034 2034 2034 2034 2034 2034 
2034 2034 2034 2034 2034 2034 2034 2034 2034 
2034 2034 2034 2034 2034 2034 2034 2034 2034 
2034 2034 2034 2034 2034 2034 2034 2034 2034 
2034 2034 2034 2034 2034 2034 2034 2034 2034 
2034 2034 2034 2034 2034 2034 2034 2034 2034 
2034 2034 2034 2034 2034 2034 2034 2034 2034 
2034 2034 2034 2034 2034 2034 2034 2034 2034 
2034 2034 2034 2034 2034 2034 2034 2034 2034 
2034 2034 2034 2034 2034 2034 2034 2034 2034 
2034 2034 2034 2034 2034 2034 2034 2034 2034 
2034 2034 2034 2034 2034 2034 2034 2034 2034 
2034 2034 2034 2034 2034 2034 2034 2034 2034 
2034 2034 2034 2034 2034 2034 2034 2034 2034 
2034 2034 2034 2034 2034 2034 2034 2034 2034 
2034 2034 2034 2034 2034 2034 2034 2034 2034 
2034 2034 2034 2034 2034 2034 2034 2034 2034 
2034 2034 2034 2034 2034 2034 2034 2034 2034 
2034 2034 2034 2034 2034 2034 2034 2034 2034 
2034 2034 2034 2034 2034 2034 2034 2034 2034 
2034 2034 2034 2034 2034 2034 2034 2034 2034 
2034 2034 2034 2034 2034 2034 2034 2034 2034 
2034 2034 2034 2034 2034 2034 2034 2034 2034 
2034 2034 2034 2034 2034 2034 2034 2034 2034 
2034 2034 2034 2034 2034 2034 2034 2034 2034 
2034 2034 2034 2034 2034 2034 2034 2034 2034 
2034 2034 2034 2034 2034 2034 2034 2034 2034 
2034 2034 2034 2034 2034 2034 2034 2034 2034 
2034 2034 2034 2034 2034 2034 2034 2034 2034 
2034 2034 2034 2034 2034 2034 2034 2034 2034 
2034 2034 2034 2034 2034 2034 2034 2034 2034 
2034 2034 2034 2034 2034 2034 2034 2034 2034 
2034 2034 2034 2034 2034 2034 2034 2034 2034 
2034 2034 2034 2034 2034 2034 2034 2034 2034 
2034 2034 2034 2034 2034 2034 2034 2034 2034 
2034 2034 2034 2034 2034 2034 2034 2034 2034 
2034 2034 2034 2034 2034 2034 2034 2034 2034 
2034 2034 2034 2034 2034 2034 2034 2034 2034 
2034 2034 2034 2034 2034 2034 2034 2034 2034 
2034 2034 2034 2034 2034 2034 2034 2034 2034 
2034 2034 2034 2034 2034 2034 2034 2034 2034 
2034 2034 2034 2034 2034 2034 2034 2034 2034 
2034 2034 2034 2034 2034 2034 2034 2034 2034 
2034 2034 2034 2034 2034 2034 2034 2034 2034 
2034 2034 2034 2034 2034 2034 2034 2034 2034 
2034 2034 2034 2034 2034 2034 2034 2034 2034 
2034 2034 2034 2034 2034 2034 2034 2034 2034 
2034 2034 2034 2034 2034 2034 2034 2034 2034 
2034 2034 2034 2034 2034 2034 2034 2034 2034 
2034 2034 2034 2034 2034 2034 2034 2034 2034 
2034 2034 2034 2034 2034 2034 2034 2034 2034 
2034 2034 2034 2034 2034 2034 2034 2034 2034 
2034 2034 2034 2034 2034 2034 2034 2034 2034 
2034 2034 2034 2034 2034 2034 2034 2034 2034 
2034 2034 2034 2034 2034 2034 2034 2034 2034 
2034 2034 2034 2034 2034 2034 2034 2034 2034 
2034 2034 2034 2034 2034 2034 2034 2034 2034 
2034 2034 2034 2034 2034 2034 2034 2034 2034 
2034 2034 2034 2034 2034 2034 2034 2034 2034 
2034 2034 2034 2034 2034 2034 2034 2034 2034 
2034 2034 2034 2034 2034 2034 2034 2034 2034 
2034 2034 2034 2034 2034 2034 2034 2034 2034 
2034 2034 2034 2034 2034 2034 2034 2034 2034 
2034 2034 2034 2034 2034 2034 2034 2034 2034 
2034 2034 2034 2034 2034 2034 2034 2034 2034 
2034 2034 2034 2034 2034 2034 2034 2034 2034 
2034 2034 2034 2034 2034 2034 2034 2034 2034 
2034 2034 2034 2034 2034 2034 2034 2034 2034 
2034 2034 2034 2034 2034 2034 2034 2034 2034 
2034 2034 2034 2034 2034 2034 2034 2034 2034 
2034 2034 2034 2034 2034 2034 2034 2034 2034 
2034 2034 2034 2034 2034 2034 2034 2034 2034 
2034 2034 2034 2034 2034 2034 2034 2034 2034 
2034 2034 2034 2034 2034 2034 2034 2034 2034 
2034 2034 2034 2034 2034 2034 2034 2034 2034 
2034 2034 2034 2034 2034 2034 2034 2034 2034 
2034 2034 2034 2034 2034 2034 2034 2034 2034 
2034 2034 2034 2034 2034 2034 2034 2034 2034 
2034 2034 2034 2034 2034 2034 2034 2034 2034 
2034 2034 2034 2034 2034 2034 2034 2034 2034 
2034 2034 2034 2034 
