# vtk DataFile Version 4.2
vtk output
ASCII
DATASET POLYDATA
POINTS 13994 float
7.95161 18.2878 -12.174 8.0693 18.4574 -12.2661 8.12802 18.1902 -12.249 
7.75858 18.3073 -12.441 7.89898 18.0348 -12.3108 8.50858 19.4257 -12.6543 
8.61767 19.8976 -12.967 8.94148 19.4887 -13.0228 7.80784 19.3839 -12.6903 
8.16722 19.7423 -12.9352 7.67336 19.4301 -12.9165 9.02981 18.9978 -12.7003 
9.22381 19.0656 -12.9669 9.3119 18.9029 -12.8742 8.60766 18.9438 -12.5137 
7.99514 18.8619 -12.5019 7.38567 19.1823 -12.8432 7.43415 19.0137 -12.7121 
7.25133 18.9188 -12.8705 9.13373 18.6907 -12.89 8.96455 18.1751 -13.0159 
8.55792 18.4029 -12.5146 7.5051 18.6204 -12.8069 7.68567 18.089 -12.9695 
8.52525 17.7265 -12.6526 8.75145 17.6778 -12.9946 8.07814 17.7124 -12.5036 
7.73661 17.7636 -12.7153 8.48028 17.3977 -12.8412 8.22977 16.9628 -13.0481 
8.13325 17.2259 -12.7027 7.76976 17.1606 -12.9659 7.90492 16.8055 -12.95 
8.48578 20.0998 -13.2701 8.59462 20.2729 -13.5316 8.75709 20.008 -13.4362 
8.45263 20.0537 -13.7019 8.9212 19.5715 -13.4931 8.21878 19.5921 -13.4128 
7.87104 19.3983 -13.1283 9.27476 18.8931 -13.036 9.08376 18.9436 -13.3618 
7.9416 19.0114 -13.2911 8.18495 18.9123 -13.6008 7.52609 18.9729 -13.0418 
9.24728 18.56 -13.7375 9.35945 18.2411 -13.6284 9.21292 18.373 -13.3456 
7.84585 18.4745 -13.2351 8.11219 18.4233 -13.6578 9.2028 18.0701 -13.4312 
8.93241 17.6651 -13.57 7.89382 18.0731 -13.38 7.71737 17.7255 -13.4204 
8.58909 17.347 -13.2661 8.42712 16.9444 -13.4722 7.66019 17.1506 -13.566 
7.93251 16.4125 -13.1855 8.27213 16.3967 -13.3983 7.71237 16.6265 -13.4273 
8.02847 15.7869 -13.2629 8.37687 15.8343 -13.3928 7.72262 16.0267 -13.5288 
8.42822 15.3753 -13.2423 8.63873 15.6416 -13.5326 8.76862 15.2477 -13.5082 
8.11915 15.1357 -13.2375 7.78162 15.4552 -13.5259 8.52149 14.7386 -13.2319 
8.81276 14.6808 -13.4926 8.23785 14.6891 -13.4112 7.97863 15.0063 -13.6289 
8.63605 14.2129 -13.3034 8.7754 14.0397 -13.6168 8.39595 14.1784 -13.5525 
8.54254 13.7938 -13.5074 8.6301 20.1167 -13.8022 8.54605 19.8416 -14.0846 
8.78935 19.6193 -13.9327 8.39847 19.4304 -14.0065 8.92709 19.0036 -14.0765 
8.30737 18.836 -13.9874 9.12381 18.5927 -14.1484 9.34265 18.317 -13.9711 
8.17656 18.5821 -14.2124 7.93687 18.1707 -13.728 7.77912 18.3498 -14.1524 
9.23967 18.0261 -13.883 8.97905 17.7675 -14.238 7.65432 17.6968 -14.0873 
8.65364 17.1521 -13.6927 8.84172 17.1727 -14.1359 7.67006 17.0681 -14.0896 
8.58504 16.6652 -13.8025 8.81467 16.5211 -14.1972 7.67148 16.4738 -14.0909 
8.594 16.0922 -13.7312 8.8435 15.8639 -14.0382 7.66783 15.8813 -14.0817 
8.96791 15.2102 -14.1232 7.79375 15.3767 -14.0402 8.88489 14.5899 -13.9559 
8.21356 14.6819 -13.9948 8.0212 15.0963 -14.1121 8.8811 14.1791 -14.1351 
8.30428 14.1779 -14.1736 8.64958 13.3528 -13.7499 8.95831 13.6012 -14.0022 
8.36216 13.6236 -14.0177 9.03592 13.0366 -13.8814 9.2548 13.2593 -14.138 
9.37982 12.8401 -14.2436 8.70502 12.8599 -13.8591 8.38798 12.969 -14.1906 
8.98911 12.609 -14.0169 8.58441 12.5709 -14.1216 8.62998 19.4111 -14.2725 
8.6401 18.8384 -14.2921 7.94599 18.8637 -14.4713 8.01275 19.0914 -14.8542 
8.14427 18.8686 -14.6628 7.79456 18.9092 -14.7589 9.02331 18.2646 -14.3166 
8.57703 18.4133 -14.4852 8.35082 18.5055 -14.7606 7.6049 18.3697 -14.7304 
8.70762 18.0437 -14.7906 8.88018 17.5684 -14.6258 7.59772 17.636 -14.6832 
8.89841 17.114 -14.7155 7.68778 17.0061 -14.6079 8.90955 16.5184 -14.7022 
7.68463 16.5032 -14.7053 8.99415 15.8946 -14.6498 7.74976 15.8321 -14.7448 
9.17422 15.415 -14.5265 9.22119 15.5774 -14.8938 9.35656 15.169 -14.8481 
7.94373 15.4032 -14.4464 8.12672 15.1449 -14.5374 7.95223 15.4724 -14.8 
9.17565 15.0467 -14.592 8.99626 14.5773 -14.6384 8.22849 14.6279 -14.6975 
8.9747 13.9937 -14.5637 8.2925 14.0031 -14.5966 9.16834 13.6032 -14.3956 
9.18399 13.7653 -14.8797 9.39787 13.3591 -14.5648 8.28235 13.5004 -14.6811 
9.52669 13.0075 -14.7578 8.27214 12.9976 -14.7949 9.27643 12.2377 -14.2785 
9.57019 12.4168 -14.6724 8.76928 12.1568 -14.3591 8.36172 12.408 -14.7067 
9.60799 11.7614 -14.4815 9.80953 11.9714 -14.8697 9.9301 11.6913 -14.7015 
9.11708 11.6649 -14.4092 8.77613 11.6011 -14.6835 8.52042 11.9182 -14.7671 
9.84149 11.347 -14.6947 9.50184 10.9478 -14.7793 9.3441 11.2279 -14.5201 
9.00052 11.2192 -14.6403 10.4104 10.4913 -14.5676 10.4483 10.7573 -14.721 
10.5678 10.4223 -14.8183 10.1659 10.4699 -14.7983 9.13423 10.9484 -14.7973 
10.3473 10.2176 -14.7041 7.94271 19.086 -15.1643 8.16258 18.88 -15.1073 
7.73896 18.872 -15.1628 8.27494 18.3135 -15.3829 7.56269 18.6139 -15.4159 
7.36623 18.1154 -15.0473 7.18318 18.442 -15.4514 8.57303 17.9234 -15.351 
8.79302 17.6263 -15.1033 7.40936 17.6641 -15.087 7.15761 17.8037 -15.4349 
8.83012 17.0626 -15.2954 7.58694 17.1581 -15.0972 7.33094 17.3771 -15.381 
8.90579 16.4428 -15.194 7.61193 16.5197 -15.2315 8.98566 15.9341 -15.3749 
7.61344 15.9327 -15.3781 9.18532 15.5143 -15.352 9.37177 15.2806 -15.1599 
8.02024 15.1234 -14.9885 7.78853 15.452 -15.1952 9.25673 14.7987 -14.9523 
9.34995 14.8813 -15.2628 8.06678 14.6804 -15.144 7.81223 14.8544 -15.4522 
9.1591 14.5453 -15.2181 8.99328 14.1755 -15.342 8.19666 14.1364 -15.1114 
7.96824 14.3918 -15.4244 9.14265 13.721 -15.3608 9.39304 13.3751 -15.1832 
8.202 13.4978 -15.2172 9.52126 12.843 -15.1756 8.19971 12.8278 -15.2958 
9.59602 12.3891 -15.2918 8.26042 12.3025 -15.27 9.80674 12 -15.4539 
10.0768 11.6407 -15.0959 8.58469 11.567 -15.0381 8.3651 11.8827 -15.2589 
10.2067 11.088 -14.9303 10.3965 11.3845 -15.4555 10.5846 10.9605 -15.1221 
9.85225 11.0257 -14.8165 8.84999 11.156 -15.0919 8.57114 11.4062 -15.4949 
10.7979 10.4918 -15.2922 9.7483 10.6779 -14.998 9.24752 10.7598 -15.299 
9.52691 10.4759 -15.3307 10.4336 9.95317 -14.9683 10.7039 9.94711 -15.2427 
10.171 9.96513 -15.1092 9.80869 10.2295 -15.366 10.4222 9.69617 -15.4432 
6.19946 0.897125 -15.1935 6.28103 1.05101 -15.2699 6.36287 0.888702 -15.2143 
6.00822 0.935889 -15.4626 6.78496 0.287604 -15.1728 6.89331 0.450357 -15.2656 
6.9601 0.208887 -15.2626 6.22636 0.69256 -15.3506 6.55757 0.260339 -15.4113 
6.72973 0.0419128 -15.3238 7.32733 19.4476 -15.8188 7.39515 19.6577 -15.9423 
7.47133 19.4488 -15.8743 7.28496 19.4376 -15.972 7.95413 18.7796 -15.4018 
7.36213 19.0126 -15.6613 7.51519 19.005 -15.8712 7.17832 18.9596 -15.7932 
7.90035 18.4214 -15.6398 7.62859 18.4785 -15.8885 7.12459 18.2918 -15.807 
8.60999 17.5364 -15.5622 8.32988 17.8675 -15.8884 7.89662 18.1243 -16.0724 
7.18051 17.7095 -15.9622 8.64004 17.075 -15.7065 8.41813 17.2262 -16.058 
7.37884 16.9237 -15.5396 7.13224 17.2239 -15.8135 8.56072 16.7721 -16.0121 
8.79679 16.4923 -15.7836 7.39696 16.358 -15.6195 7.08176 16.5577 -15.9365 
8.89469 15.958 -15.9005 7.43352 15.864 -15.7153 7.21458 15.9611 -15.9905 
9.21532 15.0984 -15.5639 8.97903 15.493 -15.8922 7.5819 15.355 -15.7085 
7.34995 15.5463 -16.0032 9.15361 14.6417 -15.5291 8.96759 14.7605 -15.9305 
7.58472 14.7947 -15.8952 8.88644 14.1998 -16.0131 7.9912 13.9278 -15.5543 
7.6878 14.2786 -15.8071 9.21369 13.403 -15.6382 8.9651 13.6244 -15.9409 
7.99877 13.3487 -15.6105 7.68226 13.5716 -15.9442 9.127 13.1387 -15.9876 
9.39071 12.8613 -15.7571 8.02129 12.8452 -15.7049 7.80528 12.9677 -15.9722 
9.57155 12.311 -15.8067 8.17886 12.2554 -15.7624 7.93839 12.5535 -15.9957 
9.78995 11.9975 -16.057 10.0992 11.7113 -15.7466 8.36967 11.6953 -15.8023 
10.4073 11.4344 -16.057 10.7078 11.0184 -15.7155 8.86782 11.067 -15.7415 
8.58243 11.3875 -16.0687 11.0617 10.4672 -15.6218 10.9907 10.7572 -16.0609 
11.308 10.4025 -15.8561 9.47436 10.4589 -15.7496 9.18476 10.7806 -16.0528 
11.4674 10.0606 -15.7053 11.622 10.1493 -16.0297 11.7481 9.90222 -15.8981 
11.0973 9.9785 -15.538 10.0783 9.83639 -15.7323 9.77564 10.1588 -16.0671 
11.5282 9.60952 -15.9919 10.8394 9.63656 -15.8597 10.3829 9.63736 -15.9943 
5.55136 2.05433 -15.6584 5.57509 2.43296 -15.943 5.86932 2.1166 -15.9398 
5.15294 1.971 -15.7136 5.18526 2.37816 -15.8365 4.76028 2.08453 -16.0314 
6.76154 1.46829 -15.677 6.63925 1.67303 -16.0291 7.09454 1.46708 -15.8214 
6.08667 1.49901 -15.5675 6.25557 1.82289 -15.9624 5.52956 1.68814 -15.6258 
5.2344 1.62124 -15.8099 4.9296 1.75957 -15.9763 7.28823 1.08018 -15.6694 
7.37596 1.21881 -15.9038 7.60356 0.743756 -15.9102 6.66339 0.84093 -15.4002 
5.61345 1.25387 -15.7966 5.8079 0.76604 -15.9331 3.17313 0.949365 -15.754 
3.19854 1.04633 -15.9628 3.28337 0.945712 -15.8749 3.02309 0.883429 -16.025 
7.28807 0.392981 -15.5304 7.66738 0.199594 -15.8673 6.28907 0.40285 -15.5406 
6.02006 0.468274 -15.7642 4.3622 0.244235 -15.7778 4.3405 0.499786 -16.0411 
4.54873 0.271436 -15.8457 4.11844 0.299139 -15.9406 3.23726 0.658832 -15.9801 
7.4497 -0.162946 -15.6948 7.71032 -0.168686 -15.9757 6.98732 -0.216669 -15.5611 
6.52764 -0.296869 -15.8213 6.21752 0.0615692 -15.9915 4.44584 0.114221 -15.9675 
7.39726 -0.577112 -15.947 6.78544 -0.660754 -15.9303 7.42896 19.4389 -16.0274 
7.33448 18.8635 -16.0224 6.72759 18.8478 -16.3546 6.79233 19.0589 -16.4885 
6.92465 18.7754 -16.4916 6.63545 18.8458 -16.6588 7.9851 18.3547 -16.3633 
8.00274 18.4211 -16.5169 8.11604 18.2051 -16.3671 7.3992 18.1535 -16.0488 
7.91837 18.1996 -16.5149 6.76675 18.3458 -16.3117 7.00305 18.2248 -16.4765 
6.55539 18.4813 -16.4819 8.23004 17.6708 -16.5143 7.73677 17.749 -16.5393 
7.47228 17.7592 -16.2189 6.84228 17.6545 -16.346 7.09982 17.8512 -16.65 
6.51767 17.8919 -16.5422 8.3136 17.1172 -16.5265 7.26378 17.4748 -16.4911 
6.83093 16.9755 -16.1918 6.51987 17.2396 -16.5465 8.63217 16.4121 -16.2497 
8.39565 16.6284 -16.5536 6.80488 16.4285 -16.2564 6.55421 16.582 -16.5974 
8.55233 16.1456 -16.597 8.78285 15.9481 -16.3045 6.98029 15.9413 -16.4085 
6.72425 16.1326 -16.5677 8.82167 15.2494 -16.5083 7.38036 15.0825 -16.1737 
7.17398 15.4325 -16.3903 8.87197 14.6026 -16.4229 7.38528 14.5279 -16.2073 
7.17647 14.8665 -16.5892 8.87335 14.0851 -16.5059 7.38574 13.9411 -16.1835 
7.16482 14.2591 -16.5862 8.88178 13.5779 -16.5966 7.40289 13.431 -16.2677 
7.18264 13.5971 -16.6141 9.19989 12.7801 -16.2394 8.96839 13.077 -16.4779 
[...]
CELL_DATA 28056
SCALARS scalars float
LOOKUP_TABLE default
2025 2025 2025 2025 2025 2025 2025 2025 2025 
2025 2025 2025 2025 2025 2025 2025 2025 2025 
2025 2025 2025 2025 2025 2025 2025 2025 2025 
2025 2025 2025 2025 2025 2025 2025 2025 2025 
2025 2025 2025 2025 2025 2025 2025 2025 2025 
2025 2025 2025 2025 2025 2025 2025 2025 2025 
2025 2025 2025 2025 2025 2025 2025 2025 2025 
2025 2025 2025 2025 2025 2025 2025 2025 2025 
2025 2025 2025 2025 2025 2025 2025 2025 2025 
2025 2025 2025 2025 2025 2025 2025 2025 2025 
2025 2025 2025 2025 2025 2025 2025 2025 2025 
2025 2025 2025 2025 2025 2025 2025 2025 2025 
2025 2025 2025 2025 2025 2025 2025 2025 2025 
2025 2025 2025 2025 2025 2025 2025 2025 2025 
2025 2025 2025 2025 2025 2025 2025 2025 2025 
2025 2025 2025 2025 2025 2025 2025 2025 2025 
2025 2025 2025 2025 2025 2025 2025 2025 2025 
2025 2025 2025 2025 2025 2025 2025 2025 2025 
2025 2025 2025 2025 2025 2025 2025 2025 2025 
2025 2025 2025 2025 2025 2025 2025 2025 2025 
2025 2025 2025 2025 2025 2025 2025 2025 2025 
2025 2025 2025 2025 2025 2025 2025 2025 2025 
2025 2025 2025 2025 2025 2025 2025 2025 2025 
2025 2025 2025 2025 2025 2025 2025 2025 2025 
2025 2025 2025 2025 2025 2025 2025 2025 2025 
2025 2025 2025 2025 2025 2025 2025 2025 2025 
2025 2025 2025 2025 2025 2025 2025 2025 2025 
2025 2025 2025 2025 2025 2025 2025 2025 2025 
2025 2025 2025 2025 2025 2025 2025 2025 2025 
2025 2025 2025 2025 2025 2025 2025 2025 2025 
2025 2025 2025 2025 2025 2025 2025 2025 2025 
2025 2025 2025 2025 2025 2025 2025 2025 2025 
2025 2025 2025 2025 2025 2025 2025 2025 2025 
2025 2025 2025 2025 2025 2025 2025 2025 2025 
2025 2025 2025 2025 2025 2025 2025 2025 2025 
2025 2025 2025 2025 2025 2025 2025 2025 2025 
2025 2025 2025 2025 2025 2025 2025 2025 2025 
2025 2025 2025 2025 2025 2025 2025 2025 2025 
2025 2025 2025 2025 2025 2025 2025 2025 2025 
2025 2025 2025 2025 2025 2025 2025 2025 2025 
2025 2025 2025 2025 2025 2025 2025 2025 2025 
2025 2025 2025 2025 2025 2025 2025 2025 2025 
2025 2025 2025 2025 2025 2025 2025 2025 2025 
2025 2025 2025 2025 2025 2025 2025 2025 2025 
2025 2025 2025 2025 2025 2025 2025 2025 2025 
2025 2025 2025 2025 2025 2025 2025 2025 2025 
2025 2025 2025 2025 2025 2025 2025 2025 2025 
2025 2025 2025 2025 2025 2025 2025 2025 2025 
2025 2025 2025 2025 2025 2025 2025 2025 2025 
2025 2025 2025 2025 2025 2025 2025 2025 2025 
2025 2025 2025 2025 2025 2025 2025 2025 2025 
2025 2025 2025 2025 2025 2025 2025 2025 2025 
2025 2025 2025 2025 2025 2025 2025 2025 2025 
2025 2025 2025 2025 2025 2025 2025 2025 2025 
2025 2025 2025 2025 2025 2025 2025 2025 2025 
2025 2025 2025 2025 2025 2025 2025 2025 2025 
2025 2025 2025 2025 2025 2025 2025 2025 2025 
2025 2025 2025 2025 2025 2025 2025 2025 2025 
2025 2025 2025 2025 2025 2025 2025 2025 2025 
2025 2025 2025 2025 2025 2025 2025 2025 2025 
2025 2025 2025 2025 2025 2025 2025 2025 2025 
2025 2025 2025 2025 2025 2025 2025 2025 2025 
2025 2025 2025 2025 2025 2025 2025 2025 2025 
2025 2025 2025 2025 2025 2025 2025 2025 2025 
2025 2025 2025 2025 2025 2025 2025 2025 2025 
2025 2025 2025 2025 2025 2025 2025 2025 2025 
2025 2025 2025 2025 2025 2025 2025 2025 2025 
2025 2025 2025 2025 2025 2025 2025 2025 2025 
2025 2025 2025 2025 2025 2025 2025 2025 2025 
2025 2025 2025 2025 2025 2025 2025 2025 2025 
2025 2025 2025 2025 2025 2025 2025 2025 2025 
2025 2025 2025 2025 2025 2025 2025 2025 2025 
2025 2025 2025 2025 2025 2025 2025 2025 2025 
2025 2025 2025 2025 2025 2025 2025 2025 2025 
2025 2025 2025 2025 2025 2025 2025 2025 2025 
2025 2025 2025 2025 2025 2025 2025 2025 2025 
2025 2025 2025 2025 2025 2025 2025 2025 2025 
2025 2025 2025 2025 2025 2025 2025 2025 2025 
2025 2025 2025 2025 2025 2025 2025 2025 2025 
2025 2025 2025 2025 2025 2025 2025 2025 2025 
2025 2025 2025 2025 2025 2025 2025 2025 2025 
2025 2025 2025 2025 2025 2025 2025 2025 2025 
2025 2025 2025 2025 2025 2025 2025 2025 2025 
2025 2025 2025 2025 2025 2025 2025 2025 2025 
2025 2025 2025 2025 2025 2025 2025 2025 2025 
2025 2025 2025 2025 2025 2025 2025 2025 2025 
2025 2025 2025 2025 2025 2025 2025 2025 2025 
2025 2025 2025 2025 2025 2025 2025 2025 2025 
2025 2025 2025 2025 2025 2025 2025 2025 2025 
2025 2025 2025 2025 2025 2025 2025 2025 2025 
2025 2025 2025 2025 2025 2025 2025 2025 2025 
2025 2025 2025 2025 2025 2025 2025 2025 2025 
2025 2025 2025 2025 2025 2025 2025 2025 2025 
2025 2025 2025 2025 2025 2025 2025 2025 2025 
2025 2025 2025 2025 2025 2025 2025 2025 2025 
2025 2025 2025 2025 2025 2025 2025 2025 2025 
2025 2025 2025 2025 2025 2025 2025 2025 2025 
2025 2025 2025 2025 2025 2025 2025 2025 2025 
2025 2025 2025 2025 2025 2025 2025 2025 2025 
2025 2025 2025 2025 2025 2025 2025 2025 2025 
2025 2025 2025 2025 2025 2025 2025 2025 2025 
2025 2025 2025 2025 2025 2025 2025 2025 2025 
2025 2025 2025 2025 2025 2025 2025 2025 2025 
2025 2025 2025 2025 2025 2025 2025 2025 2025 
2025 2025 2025 2025 2025 2025 2025 2025 2025 
2025 2025 2025 2025 2025 2025 2025 2025 2025 
2025 2025 2025 2025 2025 2025 2025 2025 2025 
2025 2025 2025 2025 2025 2025 2025 2025 2025 
2025 2025 2025 2025 2025 2025 2025 2025 2025 
2025 2025 2025 2025 2025 2025 2025 2025 2025 
2025 2025 2025 2025 2025 2025 2025 2025 2025 
2025 2025 2025 2025 2025 2025 2025 2025 2025 
2025 2025 2025 2025 2025 2025 2025 2025 2025 
2025 2025 2025 2025 2025 2025 2025 2025 2025 
2025 2025 2025 2025 2025 2025 2025 2025 2025 
2025 2025 2025 2025 2025 2025 2025 2025 2025 
2025 2025 2025 2025 2025 2025 2025 2025 2025 
2025 2025 2025 2025 2025 2025 2025 2025 2025 
2025 2025 2025 2025 2025 2025 2025 2025 2025 
2025 2025 2025 2025 2025 2025 2025 2025 2025 
2025 2025 2025 2025 2025 2025 2025 2025 2025 
2025 2025 2025 2025 2025 2025 2025 2025 2025 
2025 2025 2025 2025 2025 2025 2025 2025 2025 
2025 2025 2025 2025 2025 2025 2025 2025 2025 
2025 2025 2025 2025 2025 2025 2025 2025 2025 
2025 2025 2025 2025 2025 2025 2025 2025 2025 
2025 2025 2025 2025 2025 2025 2025 2025 2025 
2025 2025 2025 2025 2025 2025 2025 2025 2025 
2025 2025 2025 2025 2025 2025 2025 2025 2025 
2025 2025 2025 2025 2025 2025 2025 2025 2025 
2025 2025 2025 2025 2025 2025 2025 2025 2025 
2025 2025 2025 2025 2025 2025 2025 2025 2025 
2025 2025 2025 2025 2025 2025 2025 2025 2025 
2025 2025 2025 2025 2025 2025 2025 2025 2025 
2025 2025 2025 2025 2025 2025 2025 2025 2025 
2025 2025 2025 2025 2025 2025 2025 2025 2025 
2025 2025 2025 2025 2025 2025 2025 2025 2025 
2025 2025 2025 2025 2025 2025 2025 2025 2025 
2025 2025 2025 2025 2025 2025 2025 2025 2025 
2025 2025 2025 2025 2025 2025 2025 2025 2025 
2025 2025 2025 2025 2025 2025 2025 2025 2025 
2025 2025 2025 2025 2025 2025 2025 2025 2025 
2025 2025 2025 2025 2025 2025 2025 2025 2025 
2025 2025 2025 2025 2025 2025 2025 2025 2025 
2025 2025 2025 2025 2025 2025 2025 2025 2025 
2025 2025 2025 2025 2025 2025 2025 2025 2025 
2025 2025 2025 2025 2025 2025 2025 2025 2025 
2025 2025 2025 2025 2025 2025 2025 2025 2025 
2025 2025 2025 2025 2025 2025 2025 2025 2025 
2025 2025 2025 2025 2025 2025 2025 2025 2025 
2025 2025 2025 2025 2025 2025 2025 2025 2025 
2025 2025 2025 2025 2025 2025 2025 2025 2025 
2025 2025 2025 2025 2025 2025 2025 2025 2025 
2025 2025 2025 2025 2025 2025 2025 2025 2025 
2025 2025 2025 2025 2025 2025 2025 2025 2025 
2025 2025 2025 2025 2025 2025 2025 2025 2025 
2025 2025 2025 2025 2025 2025 2025 2025 2025 
2025 2025 2025 2025 2025 2025 2025 2025 2025 
2025 2025 2025 2025 2025 2025 2025 2025 2025 
2025 2025 2025 2025 2025 2025 2025 2025 2025 
2025 2025 2025 2025 2025 2025 2025 2025 2025 
2025 2025 2025 2025 2025 2025 2025 2025 2025 
2025 2025 2025 2025 2025 2025 2025 2025 2025 
2025 2025 2025 2025 2025 2025 2025 2025 2025 
2025 2025 2025 2025 2025 2025 2025 2025 2025 
2025 2025 2025 2025 2025 2025 2025 2025 2025 
2025 2025 2025 2025 2025 2025 2025 2025 2025 
2025 2025 2025 2025 2025 2025 2025 2025 2025 
2025 2025 2025 2025 2025 2025 2025 2025 2025 
2025 2025 2025 2025 2025 2025 2025 2025 2025 
2025 2025 2025 2025 2025 2025 2025 2025 2025 
2025 2025 2025 2025 2025 2025 2025 2025 2025 
2025 2025 2025 2025 2025 2025 2025 2025 2025 
2025 2025 2025 2025 2025 2025 2025 2025 2025 
2025 2025 2025 2025 2025 2025 2025 2025 2025 
2025 2025 2025 2025 2025 2025 2025 2025 2025 
2025 2025 2025 2025 2025 2025 2025 2025 2025 
2025 2025 2025 2025 2025 2025 2025 2025 2025 
2025 2025 2025 2025 2025 2025 2025 2025 2025 
2025 2025 2025 2025 2025 2025 2025 2025 2025 
2025 2025 2025 2025 2025 2025 2025 2025 2025 
2025 2025 2025 2025 2025 2025 2025 2025 2025 
2025 2025 2025 2025 2025 2025 2025 2025 2025 
2025 2025 2025 2025 2025 2025 2025 2025 2025 
2025 2025 2025 2025 2025 2025 2025 2025 2025 
2025 2025 2025 2025 2025 2025 2025 2025 2025 
2025 2025 2025 2025 2025 2025 2025 2025 2025 
2025 2025 2025 2025 2025 2025 2025 2025 2025 
2025 2025 2025 2025 2025 2025 2025 2025 2025 
2025 2025 2025 2025 2025 2025 2025 2025 2025 
2025 2025 2025 2025 2025 2025 2025 2025 2025 
2025 2025 2025 2025 2025 2025 2025 2025 2025 
2025 2025 2025 2025 2025 2025 2025 2025 2025 
2025 2025 2025 2025 2025 2025 2025 2025 2025 
2025 2025 2025 2025 2025 2025 2025 2025 2025 
2025 2025 2025 2025 2025 2025 2025 2025 2025 
2025 2025 2025 2025 2025 2025 2025 2025 2025 
2025 2025 2025 2025 2025 2025 2025 2025 2025 
2025 2025 2025 2025 2025 2025 2025 2025 2025 
2025 2025 2025 2025 2025 2025 2025 2025 2025 
2025 2025 2025 2025 2025 2025 2025 2025 2025 
2025 2025 2025 2025 2025 2025 2025 2025 2025 
2025 2025 2025 2025 2025 2025 2025 2025 2025 
2025 2025 2025 2025 2025 2025 2025 2025 2025 
2025 2025 2025 2025 2025 2025 2025 2025 2025 
2025 2025 2025 2025 2025 2025 2025 2025 2025 
2025 2025 2025 2025 2025 2025 2025 2025 2025 
2025 2025 2025 2025 2025 2025 2025 2025 2025 
2025 2025 2025 2025 2025 2025 2025 2025 2025 
2025 2025 2025 2025 2025 2025 2025 2025 2025 
2025 2025 2025 2025 2025 2025 2025 2025 2025 
2025 2025 2025 2025 2025 2025 2025 2025 2025 
2025 2025 2025 2025 2025 2025 2025 2025 2025 
2025 2025 2025 2025 2025 2025 2025 2025 2025 
2025 2025 2025 2025 2025 2025 2025 2025 2025 
2025 2025 2025 2025 2025 2025 2025 2025 2025 
2025 2025 2025 2025 2025 2025 2025 2025 2025 
2025 2025 2025 2025 2025 2025 2025 2025 2025 
2025 2025 2025 2025 2025 2025 2025 2025 2025 
2025 2025 2025 2025 2025 2025 2025 2025 2025 
2025 2025 2025 2025 2025 2025 2025 2025 2025 
2025 2025 2025 2025 2025 2025 2025 2025 2025 
2025 2025 2025 2025 2025 2025 2025 2025 2025 
2025 2025 2025 2025 2025 2025 2025 2025 2025 
2025 2025 2025 2025 2025 2025 2025 2025 2025 
2025 2025 2025 2025 2025 2025 2025 2025 2025 
2025 2025 2025 2025 2025 2025 2025 2025 2025 
2025 2025 2025 2025 2025 2025 2025 2025 2025 
2025 2025 2025 2025 2025 2025 2025 2025 2025 
2025 2025 2025 2025 2025 2025 2025 2025 2025 
2025 2025 2025 2025 2025 2025 2025 2025 2025 
2025 2025 2025 2025 2025 2025 2025 2025 2025 
2025 2025 2025 2025 2025 2025 2025 2025 2025 
2025 2025 2025 2025 2025 2025 2025 2025 2025 
2025 2025 2025 2025 2025 2025 2025 2025 2025 
2025 2025 2025 2025 2025 2025 2025 2025 2025 
2025 2025 2025 2025 2025 2025 2025 2025 2025 
2025 2025 2025 2025 2025 2025 2025 2025 2025 
2025 2025 2025 2025 2025 2025 2025 2025 2025 
2025 2025 2025 2025 2025 2025 2025 2025 2025 
2025 2025 2025 2025 2025 2025 2025 2025 2025 
2025 2025 2025 2025 2025 2025 2025 2025 2025 
2025 2025 2025 2025 2025 2025 2025 2025 2025 
2025 2025 2025 2025 2025 2025 2025 2025 2025 
2025 2025 2025 2025 2025 2025 2025 2025 2025 
2025 2025 2025 2025 2025 2025 2025 2025 2025 
2025 2025 2025 2025 2025 2025 2025 2025 2025 
2025 2025 2025 2025 2025 2025 2025 2025 2025 
2025 2025 2025 2025 2025 2025 2025 2025 2025 
2025 2025 2025 2025 2025 2025 2025 2025 2025 
2025 2025 2025 2025 2025 2025 2025 2025 2025 
2025 2025 2025 2025 2025 2025 2025 2025 2025 
2025 2025 2025 2025 2025 2025 2025 2025 2025 
2025 2025 2025 2025 2025 2025 2025 2025 2025 
2025 2025 2025 2025 2025 2025 2025 2025 2025 
2025 2025 2025 2025 2025 2025 2025 2025 2025 
2025 2025 2025 2025 2025 2025 2025 2025 2025 
2025 2025 2025 2025 2025 2025 2025 2025 2025 
2025 2025 2025 2025 2025 2025 2025 2025 2025 
2025 2025 2025 2025 2025 2025 2025 2025 2025 
2025 2025 2025 2025 2025 2025 2025 2025 2025 
2025 2025 2025 2025 2025 2025 2025 2025 2025 
2025 2025 2025 2025 2025 2025 2025 2025 2025 
2025 2025 2025 2025 2025 2025 2025 2025 2025 
2025 2025 2025 2025 2025 2025 2025 2025 2025 
2025 2025 2025 2025 2025 2025 2025 2025 2025 
2025 2025 2025 2025 2025 2025 2025 2025 2025 
2025 2025 2025 2025 2025 2025 2025 2025 2025 
2025 2025 2025 2025 2025 2025 2025 2025 2025 
2025 2025 2025 2025 2025 2025 2025 2025 2025 
2025 2025 2025 2025 2025 2025 2025 2025 2025 
2025 2025 2025 2025 2025 2025 2025 2025 2025 
2025 2025 2025 2025 2025 2025 2025 2025 2025 
2025 2025 2025 2025 2025 2025 2025 2025 2025 
2025 2025 2025 2025 2025 2025 2025 2025 2025 
2025 2025 2025 2025 2025 2025 2025 2025 2025 
2025 2025 2025 2025 2025 2025 2025 2025 2025 
2025 2025 2025 2025 2025 2025 2025 2025 2025 
2025 2025 2025 2025 2025 2025 2025 2025 2025 
2025 2025 2025 2025 2025 2025 2025 2025 2025 
2025 2025 2025 2025 2025 2025 2025 2025 2025 
2025 2025 2025 2025 2025 2025 2025 2025 2025 
2025 2025 2025 2025 2025 2025 2025 2025 2025 
2025 2025 2025 2025 2025 2025 2025 2025 2025 
2025 2025 2025 2025 2025 2025 2025 2025 2025 
2025 2025 2025 2025 2025 2025 2025 2025 2025 
2025 2025 2025 2025 2025 2025 2025 2025 2025 
2025 2025 2025 2025 2025 2025 2025 2025 2025 
2025 2025 2025 2025 2025 2025 2025 2025 2025 
2025 2025 2025 2025 2025 2025 2025 2025 2025 
2025 2025 2025 2025 2025 2025 2025 2025 2025 
2025 2025 2025 2025 2025 2025 2025 2025 2025 
2025 2025 2025 2025 2025 2025 2025 2025 2025 
2025 2025 2025 2025 2025 2025 2025 2025 2025 
2025 2025 2025 2025 2025 2025 2025 2025 2025 
2025 2025 2025 2025 2025 2025 2025 2025 2025 
2025 2025 2025 2025 2025 2025 2025 2025 2025 
2025 2025 2025 2025 2025 2025 2025 2025 2025 
2025 2025 2025 2025 2025 2025 2025 2025 2025 
2025 2025 2025 2025 2025 2025 2025 2025 2025 
2025 2025 2025 2025 2025 2025 2025 2025 2025 
2025 2025 2025 2025 2025 2025 2025 2025 2025 
2025 2025 2025 2025 2025 2025 2025 2025 2025 
2025 2025 2025 2025 2025 2025 2025 2025 2025 
2025 2025 2025 2025 2025 2025 2025 2025 2025 
2025 2025 2025 2025 2025 2025 2025 2025 2025 
2025 2025 2025 2025 2025 2025 2025 2025 2025 
2025 2025 2025 2025 2025 2025 2025 2025 2025 
2025 2025 2025 2025 2025 2025 2025 2025 2025 
2025 2025 2025 2025 2025 2025 2025 2025 2025 
2025 2025 2025 2025 2025 2025 2025 2025 2025 
2025 2025 2025 2025 2025 2025 2025 2025 2025 
2025 2025 2025 2025 2025 2025 2025 2025 2025 
2025 2025 2025 2025 2025 2025 2025 2025 2025 
2025 2025 2025 2025 2025 2025 2025 2025 2025 
2025 2025 2025 2025 2025 2025 2025 2025 2025 
2025 2025 2025 2025 2025 2025 2025 2025 2025 
2025 2025 2025 2025 2025 2025 2025 2025 2025 
2025 2025 2025 2025 2025 2025 2025 2025 2025 
2025 2025 2025 2025 2025 2025 2025 2025 2025 
2025 2025 2025 2025 2025 2025 2025 2025 2025 
2025 2025 2025 2025 2025 2025 2025 2025 2025 
2025 2025 2025 2025 2025 2025 2025 2025 2025 
2025 2025 2025 2025 2025 2025 2025 2025 2025 
2025 2025 2025 2025 2025 2025 2025 2025 2025 
2025 2025 2025 2025 2025 2025 2025 2025 2025 
2025 2025 2025 2025 2025 2025 2025 2025 2025 
2025 2025 2025 2025 2025 2025 2025 2025 2025 
2025 2025 2025 2025 2025 2025 2025 2025 2025 
2025 2025 2025 2025 2025 2025 2025 2025 2025 
2025 2025 2025 2025 2025 2025 2025 2025 2025 
2025 2025 2025 2025 2025 2025 2025 2025 2025 
2025 2025 2025 2025 2025 2025 2025 2025 2025 
2025 2025 2025 2025 2025 2025 2025 2025 2025 
2025 2025 2025 2025 2025 2025 2025 2025 2025 
2025 2025 2025 2025 2025 2025 2025 2025 2025 
2025 2025 2025 2025 2025 2025 2025 2025 2025 
2025 2025 2025 2025 2025 2025 2025 2025 2025 
2025 2025 2025 2025 2025 2025 2025 2025 2025 
2025 2025 2025 2025 2025 2025 2025 2025 2025 
2025 2025 2025 2025 2025 2025 2025 2025 2025 
2025 2025 2025 2025 2025 2025 2025 2025 2025 
2025 2025 2025 2025 2025 2025 2025 2025 2025 
2025 2025 2025 2025 2025 2025 2025 2025 2025 
2025 2025 2025 2025 2025 2025 2025 2025 2025 
2025 2025 2025 2025 2025 2025 2025 2025 2025 
2025 2025 2025 2025 2025 2025 2025 2025 2025 
2025 2025 2025 2025 2025 2025 2025 2025 2025 
2025 2025 2025 2025 2025 2025 2025 2025 2025 
2025 2025 2025 2025 2025 2025 2025 2025 2025 
2025 2025 2025 2025 2025 2025 2025 2025 2025 
2025 2025 2025 2025 2025 2025 2025 2025 2025 
2025 2025 2025 2025 2025 2025 2025 2025 2025 
2025 2025 2025 2025 2025 2025 2025 2025 2025 
2025 2025 2025 2025 2025 2025 2025 2025 2025 
2025 2025 2025 2025 2025 2025 2025 2025 2025 
2025 2025 2025 2025 2025 2025 2025 2025 2025 
2025 2025 2025 2025 2025 2025 2025 2025 2025 
2025 2025 2025 2025 2025 2025 2025 2025 2025 
2025 2025 2025 2025 2025 2025 2025 2025 2025 
2025 2025 2025 2025 2025 2025 2025 2025 2025 
2025 2025 2025 2025 2025 2025 2025 2025 2025 
2025 2025 2025 2025 2025 2025 2025 2025 2025 
2025 2025 2025 2025 2025 2025 2025 2025 2025 
2025 2025 2025 2025 2025 2025 2025 2025 2025 
2025 2025 2025 2025 2025 2025 2025 2025 2025 
2025 2025 2025 2025 2025 2025 2025 2025 2025 
2025 2025 2025 2025 2025 2025 2025 2025 2025 
2025 2025 2025 2025 2025 2025 2025 2025 2025 
2025 2025 2025 2025 2025 2025 2025 2025 2025 
2025 2025 2025 2025 2025 2025 2025 2025 2025 
2025 2025 2025 2025 2025 2025 2025 2025 2025 
2025 2025 2025 2025 2025 2025 2025 2025 2025 
2025 2025 2025 2025 2025 2025 2025 2025 2025 
2025 2025 2025 2025 2025 2025 2025 2025 2025 
2025 2025 2025 2025 2025 2025 2025 2025 2025 
2025 2025 2025 2025 2025 2025 2025 2025 2025 
2025 2025 2025 2025 2025 2025 2025 2025 2025 
2025 2025 2025 2025 2025 2025 2025 2025 2025 
2025 2025 2025 2025 2025 2025 2025 2025 2025 
2025 2025 2025 2025 2025 2025 2025 2025 2025 
2025 2025 2025 2025 2025 2025 2025 2025 2025 
2025 2025 2025 2025 2025 2025 2025 2025 2025 
2025 2025 2025 2025 2025 2025 2025 2025 2025 
2025 2025 2025 2025 2025 2025 2025 2025 2025 
2025 2025 2025 2025 2025 2025 2025 2025 2025 
2025 2025 2025 2025 2025 2025 2025 2025 2025 
2025 2025 2025 2025 2025 2025 2025 2025 2025 
2025 2025 2025 2025 2025 2025 2025 2025 2025 
2025 2025 2025 2025 2025 2025 2025 2025 2025 
2025 2025 2025 2025 2025 2025 2025 2025 2025 
2025 2025 2025 2025 2025 2025 2025 2025 2025 
2025 2025 2025 2025 2025 2025 2025 2025 2025 
2025 2025 2025 2025 2025 2025 2025 2025 2025 
2025 2025 2025 2025 2025 2025 2025 2025 2025 
2025 2025 2025 2025 2025 2025 2025 2025 2025 
2025 2025 2025 2025 2025 2025 2025 2025 2025 
2025 2025 2025 2025 2025 2025 2025 2025 2025 
2025 2025 2025 2025 2025 2025 2025 2025 2025 
2025 2025 2025 2025 2025 2025 2025 2025 2025 
2025 2025 2025 2025 2025 2025 2025 2025 2025 
2025 2025 2025 2025 2025 2025 2025 2025 2025 
2025 2025 2025 2025 2025 2025 2025 2025 2025 
2025 2025 2025 2025 2025 2025 2025 2025 2025 
2025 2025 2025 2025 2025 2025 2025 2025 2025 
2025 2025 2025 2025 2025 2025 2025 2025 2025 
2025 2025 2025 2025 2025 2025 2025 2025 2025 
2025 2025 2025 2025 2025 2025 2025 2025 2025 
2025 2025 2025 2025 2025 2025 2025 2025 2025 
2025 2025 2025 2025 2025 2025 2025 2025 2025 
2025 2025 2025 2025 2025 2025 2025 2025 2025 
2025 2025 2025 2025 2025 2025 2025 2025 2025 
2025 2025 2025 2025 2025 2025 2025 2025 2025 
2025 2025 2025 2025 2025 2025 2025 2025 2025 
2025 2025 2025 2025 2025 2025 2025 2025 2025 
2025 2025 2025 2025 2025 2025 2025 2025 2025 
2025 2025 2025 2025 2025 2025 2025 2025 2025 
2025 2025 2025 2025 2025 2025 2025 2025 2025 
2025 2025 2025 2025 2025 2025 2025 2025 2025 
2025 2025 2025 2025 2025 2025 2025 2025 2025 
2025 2025 2025 2025 2025 2025 2025 2025 2025 
2025 2025 2025 2025 2025 2025 2025 2025 2025 
2025 2025 2025 2025 2025 2025 2025 2025 2025 
2025 2025 2025 2025 2025 2025 2025 2025 2025 
2025 2025 2025 2025 2025 2025 2025 2025 2025 
2025 2025 2025 2025 2025 2025 2025 2025 2025 
2025 2025 2025 2025 2025 2025 2025 2025 2025 
2025 2025 2025 2025 2025 2025 2025 2025 2025 
2025 2025 2025 2025 2025 2025 2025 2025 2025 
2025 2025 2025 2025 2025 2025 2025 2025 2025 
2025 2025 2025 2025 2025 2025 2025 2025 2025 
2025 2025 2025 2025 2025 2025 2025 2025 2025 
2025 2025 2025 2025 2025 2025 2025 2025 2025 