# vtk DataFile Version 4.2
vtk output
ASCII
DATASET POLYDATA
POINTS 17422 float
31.8142 -12.3291 16.7177 31.9827 -12.0094 16.5308 32.2528 -12.3751 16.491 
31.24 -12.343 16.7708 31.5898 -11.9356 16.5398 30.6605 -12.4286 16.7261 
31.0032 -11.982 16.5355 30.5347 -12.1614 16.5047 31.9215 -12.8907 16.7628 
32.329 -13.0645 16.5436 31.3847 -12.8806 16.8623 30.7668 -12.9034 16.8538 
30.2608 -12.5249 16.5958 30.2363 -12.9341 16.7234 29.9569 -12.8548 16.5094 
31.9378 -13.5174 16.766 32.314 -13.693 16.5556 31.5152 -13.4032 16.8619 
30.9622 -13.5445 16.8061 30.3441 -13.4442 16.7202 29.8531 -13.4669 16.4159 
31.988 -13.995 16.7002 32.2102 -14.1866 16.5084 31.5052 -13.9698 16.7435 
31.0365 -14.0398 16.6036 30.5813 -13.8854 16.5516 30.1539 -13.8263 16.4447 
31.7989 -14.3907 16.4292 31.2738 -14.3028 16.393 31.9624 -11.7648 16.2284 
31.9283 -11.4184 15.9296 32.299 -11.6744 15.9214 31.2589 -11.6458 16.2322 
31.4364 -11.3576 15.8644 30.6073 -11.7673 16.229 30.7904 -11.4451 15.8434 
30.0572 -11.8321 16.1042 30.2397 -11.4935 15.8289 29.8389 -11.6147 15.8365 
32.5921 -12.2598 16.1508 32.7184 -12.0324 15.8766 32.974 -12.3948 15.9529 
30.104 -12.316 16.3473 29.6742 -11.9154 15.9639 29.6724 -12.3206 16.1176 
29.3713 -12.2246 15.8864 33.0195 -12.8546 16.1088 33.2598 -12.569 15.8198 
33.4044 -12.972 15.8357 32.6315 -12.7798 16.3198 29.6307 -12.9765 16.2292 
29.2791 -12.752 15.9299 33.1287 -13.4982 16.1381 33.5191 -13.5757 15.8561 
32.7052 -13.3467 16.3249 29.5464 -13.4908 16.1502 29.2586 -13.4688 15.8063 
33.1326 -14.078 16.1072 33.4187 -14.1669 15.905 32.6326 -14.0466 16.3124 
30.8278 -14.1781 16.3437 30.3683 -14.1294 16.1988 29.9093 -14.0212 16.0806 
29.5603 -13.8463 15.9308 33.106 -14.4892 15.9834 32.8335 -14.8474 15.8999 
32.7064 -14.5729 16.1163 32.1874 -14.6308 16.1947 31.6688 -14.7809 15.8601 
31.3568 -14.5263 16.0008 30.725 -14.4082 15.8911 30.0686 -14.2971 15.7462 
32.3895 -15.0119 15.9127 31.9735 -15.0374 15.8216 31.913 -11.1809 15.6243 
32.0055 -10.8524 15.1377 32.339 -11.1428 15.3754 31.3199 -11.1146 15.5348 
31.5055 -10.9162 15.3251 31.1053 -11.0849 15.1224 33.0607 -11.6763 15.467 
33.1571 -11.4691 15.3107 33.4331 -11.8015 15.2854 32.5988 -11.5997 15.6192 
32.8012 -11.3277 15.3321 30.8999 -11.289 15.4295 30.3667 -11.3149 15.2894 
29.3882 -11.7763 15.6622 29.7621 -11.358 15.4278 28.979 -11.8183 15.4574 
29.1844 -11.4152 15.322 28.7949 -11.6152 15.2593 33.1165 -12.1091 15.6499 
33.5286 -12.4709 15.4316 28.9365 -12.3874 15.6229 28.6221 -12.0847 15.3179 
33.6463 -13.0224 15.4821 28.9701 -13.0102 15.721 28.4635 -12.5437 15.3662 
28.5827 -12.9843 15.4799 28.2199 -12.8298 15.2724 33.7724 -13.4388 15.5268 
33.8505 -13.1338 15.2152 33.9779 -13.5313 15.2351 28.8823 -13.3971 15.5497 
28.5861 -13.5468 15.2035 28.2853 -13.1741 15.2582 33.7381 -14.0179 15.6342 
34.018 -14.1041 15.2449 29.662 -14.1777 15.6616 29.3209 -14.0377 15.4467 
28.9736 -13.8264 15.2905 33.728 -14.6483 15.5191 34.008 -14.7584 15.1403 
33.2872 -14.6913 15.753 31.3331 -14.6953 15.6827 30.9857 -14.6741 15.5829 
30.4985 -14.7357 15.2527 30.1164 -14.496 15.2629 29.5449 -14.324 15.2101 
33.7198 -15.0632 15.3793 33.5018 -15.4262 15.2027 33.3321 -15.1582 15.512 
32.7468 -15.2348 15.621 32.1533 -15.3316 15.5628 31.7013 -15.2095 15.4662 
31.2402 -14.9919 15.391 30.785 -14.972 15.2129 32.9802 -15.5066 15.2347 
32.4695 -15.5318 15.2993 32.0085 -15.5454 15.198 33.1626 -11.1972 15.0386 
33.2457 -10.8762 14.5196 33.5963 -11.1496 14.7751 32.5524 -11.004 15.1314 
32.5193 -10.8185 14.7167 31.8876 -10.7528 14.6271 31.4624 -10.856 14.8583 
31.0762 -11.099 14.5122 29.9748 -11.0876 14.9665 30.107 -10.9269 14.4822 
30.3655 -11.1581 14.7386 29.4362 -11.0654 15.0336 29.6798 -10.8624 14.7007 
28.8184 -11.1639 15.0301 29.1652 -10.7532 14.6497 28.2129 -11.1734 14.9767 
28.4481 -10.7621 14.6867 27.7934 -11.2237 14.9021 27.9348 -10.9229 14.7591 
27.6396 -11.0832 14.6161 33.7171 -11.559 14.9367 33.8824 -11.3153 14.6384 
34.0022 -11.7229 14.611 30.7205 -11.2629 14.7664 28.3589 -11.7515 15.0984 
27.8678 -11.6758 14.9509 27.4948 -11.5069 14.6334 33.8063 -12.1288 14.9987 
34.0297 -12.3032 14.6208 28.2107 -12.4231 15.1455 27.8678 -12.3088 14.9435 
27.4983 -12.1126 14.7189 33.8158 -12.6971 15.055 34.0964 -12.9929 14.7395 
27.9203 -12.9984 15.0069 27.4808 -12.7359 14.7089 34.1869 -13.6649 14.8165 
28.2162 -13.4389 15.0536 27.9108 -13.5025 14.858 27.5209 -13.3062 14.6979 
34.1935 -14.2664 14.8054 29.0804 -14.1627 15.0268 28.7217 -14.0202 14.8464 
28.2303 -13.8244 14.7714 27.726 -13.7113 14.6497 34.2141 -14.8105 14.728 
30.211 -14.679 15.0176 29.9077 -14.7584 14.636 29.5606 -14.5151 14.7565 
29.042 -14.3374 14.7146 33.8592 -15.2715 15.1304 34.1234 -15.3831 14.7977 
31.4907 -15.4664 15.1379 30.9669 -15.4083 14.9933 30.4747 -15.2916 14.701 
30.2049 -14.9708 14.7077 33.7454 -15.7117 14.8736 34.0105 -15.9626 14.6761 
33.2097 -15.7275 14.8046 33.508 -15.8978 14.6929 32.5485 -15.7115 14.8974 
31.9517 -15.7886 14.915 32.3628 -15.9363 14.5937 31.4188 -15.8186 14.8987 
31.0255 -15.8134 14.7774 30.7262 -15.6623 14.6399 33.7117 -16.0689 14.6545 
31.8735 -16.0816 14.5516 31.2526 -16.0772 14.577 28.8143 -10.4663 14.4074 
29.0394 -10.2601 13.95 29.269 -10.4884 14.2558 28.3326 -10.5001 14.3541 
28.4339 -10.2907 14.0586 28.0365 -10.4233 14.044 33.7456 -11.0233 14.4696 
33.6816 -10.8711 14.0177 34.0071 -11.2456 14.2392 33.1302 -10.7728 14.0116 
32.6046 -10.7764 14.1147 31.985 -10.7649 14.1034 31.3833 -10.8524 14.1502 
30.9863 -11.0611 14.0056 30.3143 -10.8859 13.9453 30.5197 -11.1203 14.2725 
29.7336 -10.6868 14.1362 27.7907 -10.7181 14.1924 27.409 -11.1282 14.1624 
34.1876 -11.7763 14.1137 30.8227 -11.2183 14.2056 27.1226 -11.403 14.1184 
27.0651 -11.8317 14.4184 26.4914 -11.8624 14.2833 26.6663 -11.5282 14.0212 
26.2545 -11.6465 14.0016 24.7411 -11.8715 14.2844 24.7186 -11.5049 13.9722 
25.1487 -11.6532 14.0546 24.4398 -11.6069 14.0279 34.2316 -12.4323 14.2644 
27.1022 -12.4436 14.5047 26.5981 -12.297 14.4201 26.0462 -11.893 14.1583 
25.9523 -12.2867 14.3593 25.2512 -12.2579 14.3609 25.6116 -11.9286 14.1407 
24.7173 -12.3801 14.4325 24.2537 -11.8451 14.188 24.16 -12.2756 14.3821 
23.4779 -12.4079 14.3368 23.7806 -11.9837 14.1496 23.2988 -12.164 13.944 
34.3536 -12.8699 14.3169 34.4496 -12.559 14.0209 34.568 -12.9443 14.023 
27.1039 -13.0523 14.4901 26.6072 -12.8856 14.4102 26.003 -12.8788 14.4257 
25.3844 -12.9001 14.4382 24.8005 -12.8923 14.4388 24.2145 -12.8789 14.4377 
23.5801 -12.879 14.4431 23.014 -12.5014 14.1621 22.9001 -12.878 14.3948 
22.3728 -13.0156 14.3104 22.5839 -12.7333 14.053 22.2681 -12.9445 14.066 
34.3923 -13.3442 14.4157 34.6047 -13.501 14.0319 30.682 -13.464 14.3057 
30.998 -13.613 14.1492 30.732 -13.2786 13.9601 30.3131 -13.2451 14.1526 
30.2315 -13.5776 14.3226 29.7945 -13.1984 14.0572 29.7003 -13.5223 14.2553 
29.4127 -13.3646 14.1166 27.2919 -13.6266 14.4812 26.7544 -13.521 14.3249 
26.069 -13.4699 14.3299 25.4056 -13.4956 14.4233 24.7959 -13.5159 14.4321 
24.1862 -13.5125 14.4312 23.5718 -13.515 14.4446 22.9495 -13.5028 14.4639 
22.3764 -13.5012 14.423 22.0351 -13.425 14.1709 34.4008 -13.933 14.4277 
34.6009 -14.1108 14.0277 30.7799 -13.8865 14.2944 31.0713 -14.0666 14.0465 
30.4425 -14.0297 14.2147 29.9604 -13.8716 14.1593 29.5035 -13.6903 14.1107 
28.5161 -14.2691 14.5035 27.7996 -14.1915 14.3967 27.127 -14.0802 14.3121 
26.7791 -14.0236 14.1366 26.3921 -13.8203 14.0947 25.9478 -13.8725 14.1339 
25.6318 -14.1889 14.0535 25.5058 -13.9366 14.2802 24.9202 -14.0254 14.3346 
24.2302 -14.1175 14.3615 23.5758 -14.1314 14.4397 22.9585 -14.1496 14.4612 
22.4453 -14.0535 14.4631 21.9344 -14.1504 14.2999 21.7281 -13.8161 14.158 
21.5685 -13.9756 13.9724 34.3962 -14.5294 14.4144 34.6042 -14.7104 14.0253 
30.7523 -14.2764 14.1153 29.5492 -14.6951 14.4482 29.064 -14.6366 14.3785 
28.428 -14.6159 14.2563 28.0253 -14.613 14.1548 27.6819 -14.5703 14.1661 
27.4318 -14.8159 14.0761 27.3243 -14.5354 14.2341 26.9143 -14.4906 14.1044 
25.163 -14.3626 14.1047 24.6016 -14.4292 14.126 24.1322 -14.5173 14.1694 
23.9276 -14.7608 14.0301 23.7001 -14.5585 14.3095 23.1195 -14.6638 14.3617 
22.4515 -14.6429 14.3474 22.0257 -14.7015 14.1331 21.7006 -14.437 13.93 
34.4049 -15.137 14.4201 34.6184 -15.3073 14.0343 30.1898 -15.2842 14.393 
29.8948 -15.2869 14.0825 29.4783 -14.9949 14.1473 28.8534 -14.9867 14.0769 
28.3417 -14.8973 14.0552 27.0943 -14.8493 14.0644 23.4513 -14.9304 13.9855 
22.8048 -14.9877 14.0538 22.3421 -14.9422 14.0184 34.3401 -15.844 14.4327 
34.6241 -15.9089 14.0316 33.3326 -16.0809 14.5272 32.819 -16.0117 14.4334 
30.8544 -15.9562 14.4792 30.4746 -15.9161 14.0949 30.1868 -15.5982 14.077 
34.3351 -16.4526 14.3045 34.6024 -16.5481 13.9228 33.7839 -16.43 14.4848 
33.05 -16.5344 14.3399 32.7406 -16.3922 14.146 32.4059 -16.2195 14.1836 
31.9125 -16.2959 14.1009 31.3966 -16.2826 14.1858 30.8716 -16.2114 14.129 
34.3174 -16.8599 14.1672 34.0517 -17.2108 14.1044 33.9282 -16.9589 14.3202 
33.3286 -17.0329 14.3519 32.6754 -16.7614 14.1355 32.7701 -17.0853 14.2458 
32.3462 -17.1443 13.9229 33.5884 -17.3906 14.1395 33.01 -17.4421 14.1299 
32.5665 -17.4304 14.0182 29.5213 -10.4138 13.8956 29.4826 -10.2655 13.426 
29.8284 -10.5905 13.4933 28.9329 -10.1495 13.4397 28.4042 -10.1719 13.5321 
27.7672 -10.4612 13.8285 27.8443 -10.2826 13.5569 27.4748 -10.4836 13.509 
33.7686 -10.7827 13.5827 34.1216 -11.1153 13.6561 33.3584 -10.7031 13.5951 
32.6647 -10.7251 13.526 31.9975 -10.7849 13.4958 31.3819 -10.7983 13.4897 
30.7022 -11.0639 13.9054 30.8085 -10.8779 13.6352 30.2041 -10.8373 13.4604 
27.1038 -11.1586 13.7391 27.1906 -10.7984 13.4828 26.8555 -11.0634 13.3673 
25.3373 -11.282 13.7066 25.457 -10.9213 13.2897 25.7213 -11.1983 13.5377 
25.0214 -11.0298 13.4103 34.3919 -11.631 13.6957 34.4719 -11.3391 13.4117 
34.6012 -11.7352 13.4246 26.7339 -11.2884 13.6328 25.7968 -11.5884 13.8587 
26.1964 -11.3518 13.6004 25.4607 -11.6316 13.948 24.7741 -11.2901 13.5939 
23.9915 -11.6435 13.8832 24.2955 -11.4305 13.6505 23.5768 -11.7709 13.8266 
23.764 -11.5418 13.4943 23.3983 -11.8775 13.4456 34.4211 -12.1013 13.8451 
[...]
CELL_DATA 34892
SCALARS scalars float
LOOKUP_TABLE default
2024 2024 2024 2024 2024 2024 2024 2024 2024 
2024 2024 2024 2024 2024 2024 2024 2024 2024 
2024 2024 2024 2024 2024 2024 2024 2024 2024 
2024 2024 2024 2024 2024 2024 2024 2024 2024 
2024 2024 2024 2024 2024 2024 2024 2024 2024 
2024 2024 2024 2024 2024 2024 2024 2024 2024 
2024 2024 2024 2024 2024 2024 2024 2024 2024 
2024 2024 2024 2024 2024 2024 2024 2024 2024 
2024 2024 2024 2024 2024 2024 2024 2024 2024 
2024 2024 2024 2024 2024 2024 2024 2024 2024 
2024 2024 2024 2024 2024 2024 2024 2024 2024 
2024 2024 2024 2024 2024 2024 2024 2024 2024 
2024 2024 2024 2024 2024 2024 2024 2024 2024 
2024 2024 2024 2024 2024 2024 2024 2024 2024 
2024 2024 2024 2024 2024 2024 2024 2024 2024 
2024 2024 2024 2024 2024 2024 2024 2024 2024 
2024 2024 2024 2024 2024 2024 2024 2024 2024 
2024 2024 2024 2024 2024 2024 2024 2024 2024 
2024 2024 2024 2024 2024 2024 2024 2024 2024 
2024 2024 2024 2024 2024 2024 2024 2024 2024 
2024 2024 2024 2024 2024 2024 2024 2024 2024 
2024 2024 2024 2024 2024 2024 2024 2024 2024 
2024 2024 2024 2024 2024 2024 2024 2024 2024 
2024 2024 2024 2024 2024 2024 2024 2024 2024 
2024 2024 2024 2024 2024 2024 2024 2024 2024 
2024 2024 2024 2024 2024 2024 2024 2024 2024 
2024 2024 2024 2024 2024 2024 2024 2024 2024 
2024 2024 2024 2024 2024 2024 2024 2024 2024 
2024 2024 2024 2024 2024 2024 2024 2024 2024 
2024 2024 2024 2024 2024 2024 2024 2024 2024 
2024 2024 2024 2024 2024 2024 2024 2024 2024 
2024 2024 2024 2024 2024 2024 2024 2024 2024 
2024 2024 2024 2024 2024 2024 2024 2024 2024 
2024 2024 2024 2024 2024 2024 2024 2024 2024 
2024 2024 2024 2024 2024 2024 2024 2024 2024 
2024 2024 2024 2024 2024 2024 2024 2024 2024 
2024 2024 2024 2024 2024 2024 2024 2024 2024 
2024 2024 2024 2024 2024 2024 2024 2024 2024 
2024 2024 2024 2024 2024 2024 2024 2024 2024 
2024 2024 2024 2024 2024 2024 2024 2024 2024 
2024 2024 2024 2024 2024 2024 2024 2024 2024 
2024 2024 2024 2024 2024 2024 2024 2024 2024 
2024 2024 2024 2024 2024 2024 2024 2024 2024 
2024 2024 2024 2024 2024 2024 2024 2024 2024 
2024 2024 2024 2024 2024 2024 2024 2024 2024 
2024 2024 2024 2024 2024 2024 2024 2024 2024 
2024 2024 2024 2024 2024 2024 2024 2024 2024 
2024 2024 2024 2024 2024 2024 2024 2024 2024 
2024 2024 2024 2024 2024 2024 2024 2024 2024 
2024 2024 2024 2024 2024 2024 2024 2024 2024 
2024 2024 2024 2024 2024 2024 2024 2024 2024 
2024 2024 2024 2024 2024 2024 2024 2024 2024 
2024 2024 2024 2024 2024 2024 2024 2024 2024 
2024 2024 2024 2024 2024 2024 2024 2024 2024 
2024 2024 2024 2024 2024 2024 2024 2024 2024 
2024 2024 2024 2024 2024 2024 2024 2024 2024 
2024 2024 2024 2024 2024 2024 2024 2024 2024 
2024 2024 2024 2024 2024 2024 2024 2024 2024 
2024 2024 2024 2024 2024 2024 2024 2024 2024 
2024 2024 2024 2024 2024 2024 2024 2024 2024 
2024 2024 2024 2024 2024 2024 2024 2024 2024 
2024 2024 2024 2024 2024 2024 2024 2024 2024 
2024 2024 2024 2024 2024 2024 2024 2024 2024 
2024 2024 2024 2024 2024 2024 2024 2024 2024 
2024 2024 2024 2024 2024 2024 2024 2024 2024 
2024 2024 2024 2024 2024 2024 2024 2024 2024 
2024 2024 2024 2024 2024 2024 2024 2024 2024 
2024 2024 2024 2024 2024 2024 2024 2024 2024 
2024 2024 2024 2024 2024 2024 2024 2024 2024 
2024 2024 2024 2024 2024 2024 2024 2024 2024 
2024 2024 2024 2024 2024 2024 2024 2024 2024 
2024 2024 2024 2024 2024 2024 2024 2024 2024 
2024 2024 2024 2024 2024 2024 2024 2024 2024 
2024 2024 2024 2024 2024 2024 2024 2024 2024 
2024 2024 2024 2024 2024 2024 2024 2024 2024 
2024 2024 2024 2024 2024 2024 2024 2024 2024 
2024 2024 2024 2024 2024 2024 2024 2024 2024 
2024 2024 2024 2024 2024 2024 2024 2024 2024 
2024 2024 2024 2024 2024 2024 2024 2024 2024 
2024 2024 2024 2024 2024 2024 2024 2024 2024 
2024 2024 2024 2024 2024 2024 2024 2024 2024 
2024 2024 2024 2024 2024 2024 2024 2024 2024 
2024 2024 2024 2024 2024 2024 2024 2024 2024 
2024 2024 2024 2024 2024 2024 2024 2024 2024 
2024 2024 2024 2024 2024 2024 2024 2024 2024 
2024 2024 2024 2024 2024 2024 2024 2024 2024 
2024 2024 2024 2024 2024 2024 2024 2024 2024 
2024 2024 2024 2024 2024 2024 2024 2024 2024 
2024 2024 2024 2024 2024 2024 2024 2024 2024 
2024 2024 2024 2024 2024 2024 2024 2024 2024 
2024 2024 2024 2024 2024 2024 2024 2024 2024 
2024 2024 2024 2024 2024 2024 2024 2024 2024 
2024 2024 2024 2024 2024 2024 2024 2024 2024 
2024 2024 2024 2024 2024 2024 2024 2024 2024 
2024 2024 2024 2024 2024 2024 2024 2024 2024 
2024 2024 2024 2024 2024 2024 2024 2024 2024 
2024 2024 2024 2024 2024 2024 2024 2024 2024 
2024 2024 2024 2024 2024 2024 2024 2024 2024 
2024 2024 2024 2024 2024 2024 2024 2024 2024 
2024 2024 2024 2024 2024 2024 2024 2024 2024 
2024 2024 2024 2024 2024 2024 2024 2024 2024 
2024 2024 2024 2024 2024 2024 2024 2024 2024 
2024 2024 2024 2024 2024 2024 2024 2024 2024 
2024 2024 2024 2024 2024 2024 2024 2024 2024 
2024 2024 2024 2024 2024 2024 2024 2024 2024 
2024 2024 2024 2024 2024 2024 2024 2024 2024 
2024 2024 2024 2024 2024 2024 2024 2024 2024 
2024 2024 2024 2024 2024 2024 2024 2024 2024 
2024 2024 2024 2024 2024 2024 2024 2024 2024 
2024 2024 2024 2024 2024 2024 2024 2024 2024 
2024 2024 2024 2024 2024 2024 2024 2024 2024 
2024 2024 2024 2024 2024 2024 2024 2024 2024 
2024 2024 2024 2024 2024 2024 2024 2024 2024 
2024 2024 2024 2024 2024 2024 2024 2024 2024 
2024 2024 2024 2024 2024 2024 2024 2024 2024 
2024 2024 2024 2024 2024 2024 2024 2024 2024 
2024 2024 2024 2024 2024 2024 2024 2024 2024 
2024 2024 2024 2024 2024 2024 2024 2024 2024 
2024 2024 2024 2024 2024 2024 2024 2024 2024 
2024 2024 2024 2024 2024 2024 2024 2024 2024 
2024 2024 2024 2024 2024 2024 2024 2024 2024 
2024 2024 2024 2024 2024 2024 2024 2024 2024 
2024 2024 2024 2024 2024 2024 2024 2024 2024 
2024 2024 2024 2024 2024 2024 2024 2024 2024 
2024 2024 2024 2024 2024 2024 2024 2024 2024 
2024 2024 2024 2024 2024 2024 2024 2024 2024 
2024 2024 2024 2024 2024 2024 2024 2024 2024 
2024 2024 2024 2024 2024 2024 2024 2024 2024 
2024 2024 2024 2024 2024 2024 2024 2024 2024 
2024 2024 2024 2024 2024 2024 2024 2024 2024 
2024 2024 2024 2024 2024 2024 2024 2024 2024 
2024 2024 2024 2024 2024 2024 2024 2024 2024 
2024 2024 2024 2024 2024 2024 2024 2024 2024 
2024 2024 2024 2024 2024 2024 2024 2024 2024 
2024 2024 2024 2024 2024 2024 2024 2024 2024 
2024 2024 2024 2024 2024 2024 2024 2024 2024 
2024 2024 2024 2024 2024 2024 2024 2024 2024 
2024 2024 2024 2024 2024 2024 2024 2024 2024 
2024 2024 2024 2024 2024 2024 2024 2024 2024 
2024 2024 2024 2024 2024 2024 2024 2024 2024 
2024 2024 2024 2024 2024 2024 2024 2024 2024 
2024 2024 2024 2024 2024 2024 2024 2024 2024 
2024 2024 2024 2024 2024 2024 2024 2024 2024 
2024 2024 2024 2024 2024 2024 2024 2024 2024 
2024 2024 2024 2024 2024 2024 2024 2024 2024 
2024 2024 2024 2024 2024 2024 2024 2024 2024 
2024 2024 2024 2024 2024 2024 2024 2024 2024 
2024 2024 2024 2024 2024 2024 2024 2024 2024 
2024 2024 2024 2024 2024 2024 2024 2024 2024 
2024 2024 2024 2024 2024 2024 2024 2024 2024 
2024 2024 2024 2024 2024 2024 2024 2024 2024 
2024 2024 2024 2024 2024 2024 2024 2024 2024 
2024 2024 2024 2024 2024 2024 2024 2024 2024 
2024 2024 2024 2024 2024 2024 2024 2024 2024 
2024 2024 2024 2024 2024 2024 2024 2024 2024 
2024 2024 2024 2024 2024 2024 2024 2024 2024 
2024 2024 2024 2024 2024 2024 2024 2024 2024 
2024 2024 2024 2024 2024 2024 2024 2024 2024 
2024 2024 2024 2024 2024 2024 2024 2024 2024 
2024 2024 2024 2024 2024 2024 2024 2024 2024 
2024 2024 2024 2024 2024 2024 2024 2024 2024 
2024 2024 2024 2024 2024 2024 2024 2024 2024 
2024 2024 2024 2024 2024 2024 2024 2024 2024 
2024 2024 2024 2024 2024 2024 2024 2024 2024 
2024 2024 2024 2024 2024 2024 2024 2024 2024 
2024 2024 2024 2024 2024 2024 2024 2024 2024 
2024 2024 2024 2024 2024 2024 2024 2024 2024 
2024 2024 2024 2024 2024 2024 2024 2024 2024 
2024 2024 2024 2024 2024 2024 2024 2024 2024 
2024 2024 2024 2024 2024 2024 2024 2024 2024 
2024 2024 2024 2024 2024 2024 2024 2024 2024 
2024 2024 2024 2024 2024 2024 2024 2024 2024 
2024 2024 2024 2024 2024 2024 2024 2024 2024 
2024 2024 2024 2024 2024 2024 2024 2024 2024 
2024 2024 2024 2024 2024 2024 2024 2024 2024 
2024 2024 2024 2024 2024 2024 2024 2024 2024 
2024 2024 2024 2024 2024 2024 2024 2024 2024 
2024 2024 2024 2024 2024 2024 2024 2024 2024 
2024 2024 2024 2024 2024 2024 2024 2024 2024 
2024 2024 2024 2024 2024 2024 2024 2024 2024 
2024 2024 2024 2024 2024 2024 2024 2024 2024 
2024 2024 2024 2024 2024 2024 2024 2024 2024 
2024 2024 2024 2024 2024 2024 2024 2024 2024 
2024 2024 2024 2024 2024 2024 2024 2024 2024 
2024 2024 2024 2024 2024 2024 2024 2024 2024 
2024 2024 2024 2024 2024 2024 2024 2024 2024 
2024 2024 2024 2024 2024 2024 2024 2024 2024 
2024 2024 2024 2024 2024 2024 2024 2024 2024 
2024 2024 2024 2024 2024 2024 2024 2024 2024 
2024 2024 2024 2024 2024 2024 2024 2024 2024 
2024 2024 2024 2024 2024 2024 2024 2024 2024 
2024 2024 2024 2024 2024 2024 2024 2024 2024 
2024 2024 2024 2024 2024 2024 2024 2024 2024 
2024 2024 2024 2024 2024 2024 2024 2024 2024 
2024 2024 2024 2024 2024 2024 2024 2024 2024 
2024 2024 2024 2024 2024 2024 2024 2024 2024 
2024 2024 2024 2024 2024 2024 2024 2024 2024 
2024 2024 2024 2024 2024 2024 2024 2024 2024 
2024 2024 2024 2024 2024 2024 2024 2024 2024 
2024 2024 2024 2024 2024 2024 2024 2024 2024 
2024 2024 2024 2024 2024 2024 2024 2024 2024 
2024 2024 2024 2024 2024 2024 2024 2024 2024 
2024 2024 2024 2024 2024 2024 2024 2024 2024 
2024 2024 2024 2024 2024 2024 2024 2024 2024 
2024 2024 2024 2024 2024 2024 2024 2024 2024 
2024 2024 2024 2024 2024 2024 2024 2024 2024 
2024 2024 2024 2024 2024 2024 2024 2024 2024 
2024 2024 2024 2024 2024 2024 2024 2024 2024 
2024 2024 2024 2024 2024 2024 2024 2024 2024 
2024 2024 2024 2024 2024 2024 2024 2024 2024 
2024 2024 2024 2024 2024 2024 2024 2024 2024 
2024 2024 2024 2024 2024 2024 2024 2024 2024 
2024 2024 2024 2024 2024 2024 2024 2024 2024 
2024 2024 2024 2024 2024 2024 2024 2024 2024 
2024 2024 2024 2024 2024 2024 2024 2024 2024 
2024 2024 2024 2024 2024 2024 2024 2024 2024 
2024 2024 2024 2024 2024 2024 2024 2024 2024 
2024 2024 2024 2024 2024 2024 2024 2024 2024 
2024 2024 2024 2024 2024 2024 2024 2024 2024 
2024 2024 2024 2024 2024 2024 2024 2024 2024 
2024 2024 2024 2024 2024 2024 2024 2024 2024 
2024 2024 2024 2024 2024 2024 2024 2024 2024 
2024 2024 2024 2024 2024 2024 2024 2024 2024 
2024 2024 2024 2024 2024 2024 2024 2024 2024 
2024 2024 2024 2024 2024 2024 2024 2024 2024 
2024 2024 2024 2024 2024 2024 2024 2024 2024 
2024 2024 2024 2024 2024 2024 2024 2024 2024 
2024 2024 2024 2024 2024 2024 2024 2024 2024 
2024 2024 2024 2024 2024 2024 2024 2024 2024 
2024 2024 2024 2024 2024 2024 2024 2024 2024 
2024 2024 2024 2024 2024 2024 2024 2024 2024 
2024 2024 2024 2024 2024 2024 2024 2024 2024 
2024 2024 2024 2024 2024 2024 2024 2024 2024 
2024 2024 2024 2024 2024 2024 2024 2024 2024 
2024 2024 2024 2024 2024 2024 2024 2024 2024 
2024 2024 2024 2024 2024 2024 2024 2024 2024 
2024 2024 2024 2024 2024 2024 2024 2024 2024 
2024 2024 2024 2024 2024 2024 2024 2024 2024 
2024 2024 2024 2024 2024 2024 2024 2024 2024 
2024 2024 2024 2024 2024 2024 2024 2024 2024 
2024 2024 2024 2024 2024 2024 2024 2024 2024 
2024 2024 2024 2024 2024 2024 2024 2024 2024 
2024 2024 2024 2024 2024 2024 2024 2024 2024 
2024 2024 2024 2024 2024 2024 2024 2024 2024 
2024 2024 2024 2024 2024 2024 2024 2024 2024 
2024 2024 2024 2024 2024 2024 2024 2024 2024 
2024 2024 2024 2024 2024 2024 2024 2024 2024 
2024 2024 2024 2024 2024 2024 2024 2024 2024 
2024 2024 2024 2024 2024 2024 2024 2024 2024 
2024 2024 2024 2024 2024 2024 2024 2024 2024 
2024 2024 2024 2024 2024 2024 2024 2024 2024 
2024 2024 2024 2024 2024 2024 2024 2024 2024 
2024 2024 2024 2024 2024 2024 2024 2024 2024 
2024 2024 2024 2024 2024 2024 2024 2024 2024 
2024 2024 2024 2024 2024 2024 2024 2024 2024 
2024 2024 2024 2024 2024 2024 2024 2024 2024 
2024 2024 2024 2024 2024 2024 2024 2024 2024 
2024 2024 2024 2024 2024 2024 2024 2024 2024 
2024 2024 2024 2024 2024 2024 2024 2024 2024 
2024 2024 2024 2024 2024 2024 2024 2024 2024 
2024 2024 2024 2024 2024 2024 2024 2024 2024 
2024 2024 2024 2024 2024 2024 2024 2024 2024 
2024 2024 2024 2024 2024 2024 2024 2024 2024 
2024 2024 2024 2024 2024 2024 2024 2024 2024 
2024 2024 2024 2024 2024 2024 2024 2024 2024 
2024 2024 2024 2024 2024 2024 2024 2024 2024 
2024 2024 2024 2024 2024 2024 2024 2024 2024 
2024 2024 2024 2024 2024 2024 2024 2024 2024 
2024 2024 2024 2024 2024 2024 2024 2024 2024 
2024 2024 2024 2024 2024 2024 2024 2024 2024 
2024 2024 2024 2024 2024 2024 2024 2024 2024 
2024 2024 2024 2024 2024 2024 2024 2024 2024 
2024 2024 2024 2024 2024 2024 2024 2024 2024 
2024 2024 2024 2024 2024 2024 2024 2024 2024 
2024 2024 2024 2024 2024 2024 2024 2024 2024 
2024 2024 2024 2024 2024 2024 2024 2024 2024 
2024 2024 2024 2024 2024 2024 2024 2024 2024 
2024 2024 2024 2024 2024 2024 2024 2024 2024 
2024 2024 2024 2024 2024 2024 2024 2024 2024 
2024 2024 2024 2024 2024 2024 2024 2024 2024 
2024 2024 2024 2024 2024 2024 2024 2024 2024 
2024 2024 2024 2024 2024 2024 2024 2024 2024 
2024 2024 2024 2024 2024 2024 2024 2024 2024 
2024 2024 2024 2024 2024 2024 2024 2024 2024 
2024 2024 2024 2024 2024 2024 2024 2024 2024 
2024 2024 2024 2024 2024 2024 2024 2024 2024 
2024 2024 2024 2024 2024 2024 2024 2024 2024 
2024 2024 2024 2024 2024 2024 2024 2024 2024 
2024 2024 2024 2024 2024 2024 2024 2024 2024 
2024 2024 2024 2024 2024 2024 2024 2024 2024 
2024 2024 2024 2024 2024 2024 2024 2024 2024 
2024 2024 2024 2024 2024 2024 2024 2024 2024 
2024 2024 2024 2024 2024 2024 2024 2024 2024 
2024 2024 2024 2024 2024 2024 2024 2024 2024 
2024 2024 2024 2024 2024 2024 2024 2024 2024 
2024 2024 2024 2024 2024 2024 2024 2024 2024 
2024 2024 2024 2024 2024 2024 2024 2024 2024 
2024 2024 2024 2024 2024 2024 2024 2024 2024 
2024 2024 2024 2024 2024 2024 2024 2024 2024 
2024 2024 2024 2024 2024 2024 2024 2024 2024 
2024 2024 2024 2024 2024 2024 2024 2024 2024 
2024 2024 2024 2024 2024 2024 2024 2024 2024 
2024 2024 2024 2024 2024 2024 2024 2024 2024 
2024 2024 2024 2024 2024 2024 2024 2024 2024 
2024 2024 2024 2024 2024 2024 2024 2024 2024 
2024 2024 2024 2024 2024 2024 2024 2024 2024 
2024 2024 2024 2024 2024 2024 2024 2024 2024 
2024 2024 2024 2024 2024 2024 2024 2024 2024 
2024 2024 2024 2024 2024 2024 2024 2024 2024 
2024 2024 2024 2024 2024 2024 2024 2024 2024 
2024 2024 2024 2024 2024 2024 2024 2024 2024 
2024 2024 2024 2024 2024 2024 2024 2024 2024 
2024 2024 2024 2024 2024 2024 2024 2024 2024 
2024 2024 2024 2024 2024 2024 2024 2024 2024 
2024 2024 2024 2024 2024 2024 2024 2024 2024 
2024 2024 2024 2024 2024 2024 2024 2024 2024 
2024 2024 2024 2024 2024 2024 2024 2024 2024 
2024 2024 2024 2024 2024 2024 2024 2024 2024 
2024 2024 2024 2024 2024 2024 2024 2024 2024 
2024 2024 2024 2024 2024 2024 2024 2024 2024 
2024 2024 2024 2024 2024 2024 2024 2024 2024 
2024 2024 2024 2024 2024 2024 2024 2024 2024 
2024 2024 2024 2024 2024 2024 2024 2024 2024 
2024 2024 2024 2024 2024 2024 2024 2024 2024 
2024 2024 2024 2024 2024 2024 2024 2024 2024 
2024 2024 2024 2024 2024 2024 2024 2024 2024 
2024 2024 2024 2024 2024 2024 2024 2024 2024 
2024 2024 2024 2024 2024 2024 2024 2024 2024 
2024 2024 2024 2024 2024 2024 2024 2024 2024 
2024 2024 2024 2024 2024 2024 2024 2024 2024 
2024 2024 2024 2024 2024 2024 2024 2024 2024 
2024 2024 2024 2024 2024 2024 2024 2024 2024 
2024 2024 2024 2024 2024 2024 2024 2024 2024 
2024 2024 2024 2024 2024 2024 2024 2024 2024 
2024 2024 2024 2024 2024 2024 2024 2024 2024 
2024 2024 2024 2024 2024 2024 2024 2024 2024 
2024 2024 2024 2024 2024 2024 2024 2024 2024 
2024 2024 2024 2024 2024 2024 2024 2024 2024 
2024 2024 2024 2024 2024 2024 2024 2024 2024 
2024 2024 2024 2024 2024 2024 2024 2024 2024 
2024 2024 2024 2024 2024 2024 2024 2024 2024 
2024 2024 2024 2024 2024 2024 2024 2024 2024 
2024 2024 2024 2024 2024 2024 2024 2024 2024 
2024 2024 2024 2024 2024 2024 2024 2024 2024 
2024 2024 2024 2024 2024 2024 2024 2024 2024 
2024 2024 2024 2024 2024 2024 2024 2024 2024 
2024 2024 2024 2024 2024 2024 2024 2024 2024 
2024 2024 2024 2024 2024 2024 2024 2024 2024 
2024 2024 2024 2024 2024 2024 2024 2024 2024 
2024 2024 2024 2024 2024 2024 2024 2024 2024 
2024 2024 2024 2024 2024 2024 2024 2024 2024 
2024 2024 2024 2024 2024 2024 2024 2024 2024 
2024 2024 2024 2024 2024 2024 2024 2024 2024 
2024 2024 2024 2024 2024 2024 2024 2024 2024 
2024 2024 2024 2024 2024 2024 2024 2024 2024 
2024 2024 2024 2024 2024 2024 2024 2024 2024 
2024 2024 2024 2024 2024 2024 2024 2024 2024 
2024 2024 2024 2024 2024 2024 2024 2024 2024 
2024 2024 2024 2024 2024 2024 2024 2024 2024 
2024 2024 2024 2024 2024 2024 2024 2024 2024 
2024 2024 2024 2024 2024 2024 2024 2024 2024 
2024 2024 2024 2024 2024 2024 2024 2024 2024 
2024 2024 2024 2024 2024 2024 2024 2024 2024 
2024 2024 2024 2024 2024 2024 2024 2024 2024 
2024 2024 2024 2024 2024 2024 2024 2024 2024 
2024 2024 2024 2024 2024 2024 2024 2024 2024 
2024 2024 2024 2024 2024 2024 2024 2024 2024 
2024 2024 2024 2024 2024 2024 2024 2024 2024 
2024 2024 2024 2024 2024 2024 2024 2024 2024 
2024 2024 2024 2024 2024 2024 2024 2024 2024 
2024 2024 2024 2024 2024 2024 2024 2024 2024 
2024 2024 2024 2024 2024 2024 2024 2024 2024 
2024 2024 2024 2024 2024 2024 2024 2024 2024 
2024 2024 2024 2024 2024 2024 2024 2024 2024 
2024 2024 2024 2024 2024 2024 2024 2024 2024 
2024 2024 2024 2024 2024 2024 2024 2024 2024 
2024 2024 2024 2024 2024 2024 2024 2024 2024 
2024 2024 2024 2024 2024 2024 2024 2024 2024 
2024 2024 2024 2024 2024 2024 2024 2024 2024 
2024 2024 2024 2024 2024 2024 2024 2024 2024 
2024 2024 2024 2024 2024 2024 2024 2024 2024 
2024 2024 2024 2024 2024 2024 2024 2024 2024 
2024 2024 2024 2024 2024 2024 2024 2024 2024 
2024 2024 2024 2024 2024 2024 2024 2024 2024 
2024 2024 2024 2024 2024 2024 2024 2024 2024 
2024 2024 2024 2024 2024 2024 2024 2024 2024 
2024 2024 2024 2024 2024 2024 2024 2024 2024 
2024 2024 2024 2024 2024 2024 2024 2024 2024 
2024 2024 2024 2024 2024 2024 2024 2024 2024 
2024 2024 2024 2024 2024 2024 2024 2024 2024 
2024 2024 2024 2024 2024 2024 2024 2024 2024 
2024 2024 2024 2024 2024 2024 2024 2024 2024 
2024 2024 2024 2024 2024 2024 2024 2024 2024 
2024 2024 2024 2024 2024 2024 2024 2024 2024 
2024 2024 2024 2024 2024 2024 2024 2024 2024 
2024 2024 2024 2024 2024 2024 2024 2024 2024 
2024 2024 2024 2024 2024 2024 2024 2024 2024 
2024 2024 2024 2024 2024 2024 2024 2024 2024 
2024 2024 2024 2024 2024 2024 2024 2024 2024 
2024 2024 2024 2024 2024 2024 2024 2024 2024 
2024 2024 2024 2024 2024 2024 2024 2024 2024 
2024 2024 2024 2024 2024 2024 2024 2024 2024 
2024 2024 2024 2024 2024 2024 2024 2024 2024 
2024 2024 2024 2024 2024 2024 2024 2024 2024 
2024 2024 2024 2024 2024 2024 2024 2024 2024 
2024 2024 2024 2024 2024 2024 2024 2024 2024 
2024 2024 2024 2024 2024 2024 2024 2024 2024 
2024 2024 2024 2024 2024 2024 2024 2024 2024 
2024 2024 2024 2024 2024 2024 2024 2024 2024 
2024 2024 2024 2024 2024 2024 2024 2024 2024 
2024 2024 2024 2024 2024 2024 2024 2024 2024 
2024 2024 2024 2024 2024 2024 2024 2024 2024 
2024 2024 2024 2024 2024 2024 2024 2024 2024 
2024 2024 2024 2024 2024 2024 2024 2024 2024 
2024 2024 2024 2024 2024 2024 2024 2024 2024 
2024 2024 2024 2024 2024 2024 2024 2024 2024 
2024 2024 2024 2024 2024 2024 2024 2024 2024 
2024 2024 2024 2024 2024 2024 2024 2024 2024 
2024 2024 2024 2024 2024 2024 2024 2024 2024 
2024 2024 2024 2024 2024 2024 2024 2024 2024 
2024 2024 2024 2024 2024 2024 2024 2024 2024 
2024 2024 2024 2024 2024 2024 2024 2024 2024 
2024 2024 2024 2024 2024 2024 2024 2024 2024 
2024 2024 2024 2024 2024 2024 2024 2024 2024 
2024 2024 2024 2024 2024 2024 2024 2024 2024 
2024 2024 2024 2024 2024 2024 2024 2024 2024 
2024 2024 2024 2024 2024 2024 2024 2024 2024 
2024 2024 2024 2024 2024 2024 2024 2024 2024 
2024 2024 2024 2024 2024 2024 2024 2024 2024 
2024 2024 2024 2024 2024 2024 2024 2024 2024 
2024 2024 2024 2024 2024 2024 2024 2024 2024 
2024 2024 2024 2024 2024 2024 2024 2024 2024 
2024 2024 2024 2024 2024 2024 2024 2024 2024 