# vtk DataFile Version 4.2
vtk output
ASCII
DATASET POLYDATA
POINTS 19036 float
28.002 50.3823 -19.1469 27.7228 50.915 -19.4785 27.2405 50.3008 -19.5049 
28.9683 50.3625 -19.0945 28.4059 51.0399 -19.4805 29.7624 50.244 -19.2077 
29.3844 50.936 -19.489 30.1215 50.5452 -19.5535 27.7994 49.4393 -19.0567 
27.0691 49.1479 -19.4589 28.7517 49.4604 -18.9027 29.6465 49.4413 -19.0641 
30.2781 49.6857 -19.4748 27.6508 48.633 -19.1981 27.1082 48.4008 -19.6285 
28.6165 48.4329 -19.0192 29.6172 48.4007 -19.0184 30.0475 48.4811 -19.736 
27.7425 48.0869 -19.5812 28.6545 47.7354 -19.4888 29.2086 47.2765 -19.5912 
29.5336 47.6101 -19.1536 30.0369 47.6059 -19.4358 29.7468 47.1024 -19.777 
30.0059 56.3755 -20.1722 29.7158 56.9165 -20.4729 29.2665 56.3433 -20.5349 
30.9727 56.3639 -20.1022 30.3753 57.0252 -20.476 31.9435 56.2163 -20.1956 
31.3606 56.9411 -20.5107 32.1788 56.643 -20.5873 29.8066 55.4807 -20.1018 
29.1226 55.2064 -20.4681 30.7014 55.5156 -19.9402 31.5755 55.6151 -19.9586 
32.6273 56.0448 -20.4336 32.3965 55.3356 -20.228 33.0157 55.6003 -20.5543 
29.6793 54.3699 -20.1008 28.9895 54.3943 -20.4233 30.4871 54.6565 -19.959 
31.4515 54.5139 -20.1281 32.3082 54.383 -20.7039 32.8925 55.0061 -20.5864 
29.0188 53.5204 -20.1986 28.4957 53.8979 -20.5877 28.2222 53.1439 -20.5362 
29.876 53.3076 -20.0051 30.6754 53.5846 -20.0883 31.3383 53.519 -20.4384 
31.7442 53.843 -20.6888 28.7103 52.3599 -20.1276 27.9788 52.373 -20.4449 
29.7301 52.4802 -20.0057 30.7504 52.3912 -20.0915 31.3113 52.7564 -20.4687 
27.7723 51.4511 -19.9944 27.5816 52.0384 -20.6632 27.1614 51.4464 -20.6388 
28.8262 51.521 -19.8367 29.7893 51.4358 -19.8745 30.5827 51.5862 -19.9827 
31.5829 52.014 -20.4033 31.4228 51.3183 -20.2211 32.0428 51.645 -20.7449 
26.8182 50.6457 -20.1027 26.6266 50.879 -20.8147 26.3526 50.2161 -20.4843 
30.7825 50.4489 -19.9647 31.367 50.512 -20.4798 31.7587 51.0192 -20.8455 
26.5682 49.6966 -19.9505 26.3271 49.4938 -20.6594 30.5613 49.307 -20.0581 
30.9785 49.7883 -20.5366 26.5732 48.7556 -20.0433 26.4364 48.6417 -20.5752 
29.6871 48.4114 -20.2629 29.566 48.3924 -20.5433 30.0364 48.7516 -20.5405 
30.6057 49.2573 -20.5201 26.8885 48.1563 -20.2154 27.6343 47.7137 -20.4356 
28.54 47.4031 -20.0388 28.0519 47.2692 -20.6477 29.7195 48.1415 -20.3772 
30.0254 47.6188 -20.4438 28.9416 46.9702 -20.5572 29.7941 46.9758 -20.7053 
35.727 60.2584 -21.3145 35.5255 60.7549 -21.5509 35.2273 60.1281 -21.4926 
36.0188 60.5901 -21.5511 31.8531 59.2974 -21.1294 31.5979 59.8772 -21.8018 
31.0423 59.422 -21.4152 32.9719 59.345 -21.0813 32.5077 59.8582 -21.4639 
33.6992 59.2309 -21.2348 33.3594 59.9303 -21.6451 34.0248 59.5552 -21.5935 
35.6117 59.7032 -21.334 35.3307 59.3781 -21.59 36.1135 59.8361 -21.4957 
30.8517 58.4975 -21.14 30.5448 59.1501 -21.6311 30.134 58.5418 -21.6369 
31.8434 58.3625 -20.995 32.6932 58.4962 -20.9756 33.5741 58.4838 -21.1255 
34.1816 58.7151 -21.5137 35.844 59.224 -21.5944 29.7642 57.4978 -20.9811 
29.6367 57.9581 -21.8229 29.1418 57.3786 -21.4951 30.7789 57.5369 -20.8281 
31.7562 57.4587 -20.8963 32.7135 57.4669 -21.0033 33.5489 57.493 -21.1604 
34.1923 57.7074 -21.5376 28.8307 56.724 -21.1085 28.6788 56.9308 -21.8126 
28.3854 56.2815 -21.4913 32.8685 56.4158 -20.8278 33.7717 56.382 -21.1272 
34.3044 56.7614 -21.511 28.5217 55.6158 -20.9769 28.0725 55.5579 -21.6199 
33.463 55.37 -20.8949 34.5845 56.0144 -21.4347 34.3848 55.3335 -21.2461 
35.1243 55.404 -21.7688 27.8946 54.6921 -21.2124 27.6204 54.9201 -21.8584 
27.3921 54.2222 -21.5312 28.4901 54.5595 -20.7888 32.9727 54.5833 -20.942 
33.6398 54.5935 -21.2169 34.3173 54.6242 -21.4451 34.8422 54.879 -21.6474 
27.8202 53.7477 -21.018 27.2879 53.4743 -21.6452 31.8573 53.1224 -20.9697 
32.2353 53.6195 -21.269 32.9312 53.9643 -21.4157 33.7889 54.1397 -21.5988 
27.6524 52.7896 -20.9599 27.2709 52.4032 -21.4702 31.9916 52.3301 -20.8721 
32.4837 53.0353 -21.4768 32.4372 52.6056 -21.2959 33.0232 52.3945 -21.7973 
26.9561 51.5815 -21.4314 32.5117 51.978 -21.5034 32.1422 51.4485 -21.347 
26.5679 51.1259 -21.557 26.3444 50.4649 -21.4997 31.2263 50.2312 -21.3756 
31.7407 50.9929 -21.7854 26.5666 49.8069 -21.4329 26.6253 49.0973 -21.1103 
26.9036 49.4804 -21.7772 30.6083 49.4132 -21.0862 30.4578 49.2081 -21.755 
30.7763 49.7181 -21.707 26.8346 48.2655 -20.9329 27.0246 48.6903 -21.7129 
29.77 48.246 -20.7609 30.1638 48.4599 -21.3264 27.3507 47.7256 -21.5757 
27.5979 47.3618 -21.0159 30.1058 47.4691 -21.582 27.9285 47.1235 -21.2502 
28.7054 46.9393 -21.663 29.604 46.9144 -21.5881 34.7504 61.4072 -22.213 
34.466 61.818 -22.7813 34.0909 61.3378 -22.4413 35.8072 61.2957 -21.9731 
35.3826 62.0367 -22.6552 36.9302 61.3648 -22.1079 36.4165 62.0467 -22.459 
37.8482 61.247 -22.1821 37.5774 62.0161 -22.6909 38.2609 61.5808 -22.6249 
34.0384 60.5262 -22.0547 33.7025 60.996 -22.482 33.3191 60.5954 -22.4283 
34.9039 60.7078 -21.8448 36.6894 60.3926 -21.8604 37.6868 60.4957 -21.9942 
38.5992 61.1707 -22.3872 38.7796 60.4879 -22.077 39.9161 60.2091 -22.1582 
39.6161 61.017 -22.6877 40.3299 60.557 -22.6038 30.8117 59.6254 -21.8993 
31.0125 59.8064 -22.6035 30.3818 59.2 -22.3529 31.6666 60.0373 -22.5087 
32.4534 60.1865 -22.4221 34.6977 59.4711 -21.7967 36.6711 59.1754 -21.8876 
37.7041 59.4581 -21.9959 38.7071 59.4852 -21.9665 39.745 59.4183 -21.9387 
40.59 60.0456 -22.3828 40.6092 59.3893 -22.1485 41.0252 59.6811 -22.7638 
29.9967 58.5264 -22.3436 34.8137 58.1733 -21.9015 35.7329 58.5706 -21.9393 
36.8447 58.2733 -22.0484 37.7166 58.4381 -22.0351 38.7147 58.4598 -22.003 
39.7332 58.4267 -21.9426 40.8131 58.3617 -22.0341 41.3304 58.7719 -22.6339 
29.6961 57.9974 -22.7829 29.1714 57.3965 -22.4041 34.8517 57.1454 -21.9066 
35.492 57.5725 -22.0763 36.3851 57.4328 -22.1833 37.4486 57.5988 -22.194 
38.4625 57.6027 -22.1566 39.4802 57.5742 -22.1271 40.5005 57.5529 -22.0977 
41.6418 57.9831 -22.3558 41.4173 57.4728 -22.2131 42.0631 57.4712 -22.808 
28.7485 56.8396 -22.5861 28.3448 56.2453 -22.3213 34.9915 56.2424 -21.8034 
35.6631 56.5668 -22.1562 36.3363 56.528 -22.4608 37.0329 56.8749 -22.5193 
37.9979 56.9625 -22.5095 38.9908 56.9426 -22.5064 40.0204 56.9343 -22.6705 
40.9078 57.0771 -22.4581 41.5104 57.0076 -22.6283 27.9758 55.5093 -22.3504 
35.5418 55.7048 -22.1004 36.1757 55.5635 -22.7024 27.6561 54.9892 -22.7954 
27.2686 54.3277 -22.2888 34.5652 54.1387 -21.9482 35.256 54.4624 -22.3859 
35.6826 54.9799 -22.5093 27.1729 53.4477 -22.526 32.9446 53.2007 -21.7537 
33.7078 53.556 -21.8918 34.4908 53.2375 -22.2243 35.0519 53.5209 -22.6388 
27.0635 52.4123 -22.4807 33.778 52.5532 -22.0852 34.4391 52.4747 -22.4301 
34.8515 52.8345 -22.6631 26.7414 51.6245 -22.0769 26.6835 51.8917 -22.8505 
26.3656 51.2253 -22.3126 32.3028 51.4852 -22.1708 33.0933 51.6633 -22.5695 
33.5463 51.6759 -22.2471 33.4588 51.3644 -22.4884 33.9896 51.7409 -22.6064 
26.2889 50.6314 -22.7677 31.3949 50.3476 -22.492 31.8849 50.9898 -22.5711 
33.6891 51.294 -22.4827 26.6636 50.0278 -22.2674 27.0378 49.3297 -22.5417 
28.7316 49.2531 -22.2901 28.3898 49.215 -22.4796 28.6065 49.6952 -22.6781 
29.1009 49.597 -22.6855 30.6444 49.3053 -22.2258 30.9873 49.7133 -22.3712 
27.3007 48.4 -22.6912 28.5655 48.311 -22.2431 28.0833 48.4767 -22.6365 
29.1807 48.6951 -22.5315 30.2331 48.4418 -22.5475 30.7281 49.1137 -22.8611 
27.6614 47.9455 -22.6136 27.9936 47.5229 -21.979 28.7466 47.3324 -22.1579 
29.2634 47.7174 -22.5703 30.0043 47.3266 -22.3784 29.4474 47.0772 -22.3469 
36.0184 62.534 -23.0375 35.8062 62.8066 -23.8141 35.3545 62.4476 -23.3728 
36.9472 62.5441 -22.9471 36.7197 62.8881 -23.6103 37.5831 62.5205 -23.082 
37.4633 62.7767 -23.4722 38.0892 62.4659 -23.6869 33.622 61.3348 -22.8828 
33.8904 61.8525 -23.6822 33.1838 61.3597 -23.5098 34.7827 62.1794 -23.4765 
39.0252 61.513 -22.9118 38.7063 61.9372 -23.4391 39.6264 61.5 -23.1361 
39.4887 61.7351 -23.4971 40.0858 61.4336 -23.7062 32.8762 60.7896 -23.0564 
32.6806 60.935 -23.847 32.3335 60.4497 -23.4273 40.8014 60.3338 -22.8795 
40.5389 60.8622 -23.2989 41.0295 60.3342 -23.5742 30.5848 59.3665 -23.0934 
30.9935 59.6171 -23.46 31.674 60.0139 -23.4819 41.3262 59.4943 -23.6572 
30.6591 59.0866 -23.8725 30.1649 58.5667 -23.36 41.6576 58.7551 -23.4019 
41.84 58.2358 -22.8765 42.0333 58.2823 -23.5927 29.7758 57.8184 -23.6187 
29.4067 57.3426 -23.4344 42.4637 57.6895 -23.7035 28.6154 56.3274 -23.1149 
28.9951 56.7645 -23.3086 32.7268 56.4132 -23.1206 32.2369 56.4242 -23.3604 
32.9307 56.8119 -23.6984 33.6177 56.8723 -23.5964 33.4161 56.312 -23.2035 
34.1011 56.6402 -23.6425 36.7955 56.1056 -22.8027 37.6756 56.2963 -22.8662 
38.5351 56.4325 -22.8312 39.3715 56.2782 -23.0891 40.191 56.3443 -23.6704 
40.8404 56.7346 -23.1618 41.8278 56.6658 -23.0903 41.1965 56.4872 -23.5004 
42.5974 56.9375 -23.2608 42.5277 56.3489 -23.2789 43.0583 56.5018 -23.7865 
28.6882 56.0627 -23.8693 28.1864 55.537 -23.3756 31.8366 55.466 -23.0784 
31.1194 55.4073 -23.5065 31.819 56.0175 -23.8028 32.7758 55.5142 -23.0824 
33.3945 55.6205 -23.3585 33.8828 56.1177 -23.5231 36.7356 55.5202 -23.0096 
37.394 55.5464 -23.1401 38.5026 55.6618 -23.1903 39.3054 55.5775 -23.4566 
39.7701 55.8538 -23.7157 41.7759 56.0439 -23.654 42.7678 55.8814 -23.6155 
27.7542 54.8205 -23.6497 27.3605 54.2397 -23.3938 30.9719 54.5395 -23.1269 
30.3425 54.2512 -23.4916 30.6102 54.9724 -23.8406 31.6405 54.4616 -22.9366 
32.3318 54.3996 -23.1429 33.1415 54.8108 -23.4715 35.6568 54.2897 -23.0811 
36.1983 54.423 -23.5109 36.937 54.9272 -23.5716 37.9747 55.0314 -23.6691 
38.9483 55.1054 -23.8063 27.194 53.3305 -23.3818 30.6549 53.3399 -23.0507 
30.036 53.5534 -23.6006 31.6464 53.551 -23.0747 32.3744 53.5105 -23.4313 
32.8575 54.0098 -23.5878 35.4076 53.512 -23.4058 35.7877 53.8296 -23.6902 
27.0594 52.6189 -23.5719 29.9715 52.5249 -23.112 29.3823 52.2282 -23.4441 
29.6006 52.9268 -23.8394 30.6436 52.4201 -22.9257 31.3174 52.3846 -23.1456 
32.1455 52.7713 -23.5157 34.5803 52.1957 -23.0219 35.0798 52.7124 -23.3206 
26.6771 51.9548 -23.7971 26.2852 51.3166 -23.2606 29.653 51.601 -23.1121 
29.2447 51.4527 -23.5946 30.4549 51.4873 -23.1252 31.2532 51.5678 -23.4736 
[...]
CELL_DATA 38172
SCALARS scalars float
LOOKUP_TABLE default
1008 1008 1008 1008 1008 1008 1008 1008 1008 
1008 1008 1008 1008 1008 1008 1008 1008 1008 
1008 1008 1008 1008 1008 1008 1008 1008 1008 
1008 1008 1008 1008 1008 1008 1008 1008 1008 
1008 1008 1008 1008 1008 1008 1008 1008 1008 
1008 1008 1008 1008 1008 1008 1008 1008 1008 
1008 1008 1008 1008 1008 1008 1008 1008 1008 
1008 1008 1008 1008 1008 1008 1008 1008 1008 
1008 1008 1008 1008 1008 1008 1008 1008 1008 
1008 1008 1008 1008 1008 1008 1008 1008 1008 
1008 1008 1008 1008 1008 1008 1008 1008 1008 
1008 1008 1008 1008 1008 1008 1008 1008 1008 
1008 1008 1008 1008 1008 1008 1008 1008 1008 
1008 1008 1008 1008 1008 1008 1008 1008 1008 
1008 1008 1008 1008 1008 1008 1008 1008 1008 
1008 1008 1008 1008 1008 1008 1008 1008 1008 
1008 1008 1008 1008 1008 1008 1008 1008 1008 
1008 1008 1008 1008 1008 1008 1008 1008 1008 
1008 1008 1008 1008 1008 1008 1008 1008 1008 
1008 1008 1008 1008 1008 1008 1008 1008 1008 
1008 1008 1008 1008 1008 1008 1008 1008 1008 
1008 1008 1008 1008 1008 1008 1008 1008 1008 
1008 1008 1008 1008 1008 1008 1008 1008 1008 
1008 1008 1008 1008 1008 1008 1008 1008 1008 
1008 1008 1008 1008 1008 1008 1008 1008 1008 
1008 1008 1008 1008 1008 1008 1008 1008 1008 
1008 1008 1008 1008 1008 1008 1008 1008 1008 
1008 1008 1008 1008 1008 1008 1008 1008 1008 
1008 1008 1008 1008 1008 1008 1008 1008 1008 
1008 1008 1008 1008 1008 1008 1008 1008 1008 
1008 1008 1008 1008 1008 1008 1008 1008 1008 
1008 1008 1008 1008 1008 1008 1008 1008 1008 
1008 1008 1008 1008 1008 1008 1008 1008 1008 
1008 1008 1008 1008 1008 1008 1008 1008 1008 
1008 1008 1008 1008 1008 1008 1008 1008 1008 
1008 1008 1008 1008 1008 1008 1008 1008 1008 
1008 1008 1008 1008 1008 1008 1008 1008 1008 
1008 1008 1008 1008 1008 1008 1008 1008 1008 
1008 1008 1008 1008 1008 1008 1008 1008 1008 
1008 1008 1008 1008 1008 1008 1008 1008 1008 
1008 1008 1008 1008 1008 1008 1008 1008 1008 
1008 1008 1008 1008 1008 1008 1008 1008 1008 
1008 1008 1008 1008 1008 1008 1008 1008 1008 
1008 1008 1008 1008 1008 1008 1008 1008 1008 
1008 1008 1008 1008 1008 1008 1008 1008 1008 
1008 1008 1008 1008 1008 1008 1008 1008 1008 
1008 1008 1008 1008 1008 1008 1008 1008 1008 
1008 1008 1008 1008 1008 1008 1008 1008 1008 
1008 1008 1008 1008 1008 1008 1008 1008 1008 
1008 1008 1008 1008 1008 1008 1008 1008 1008 
1008 1008 1008 1008 1008 1008 1008 1008 1008 
1008 1008 1008 1008 1008 1008 1008 1008 1008 
1008 1008 1008 1008 1008 1008 1008 1008 1008 
1008 1008 1008 1008 1008 1008 1008 1008 1008 
1008 1008 1008 1008 1008 1008 1008 1008 1008 
1008 1008 1008 1008 1008 1008 1008 1008 1008 
1008 1008 1008 1008 1008 1008 1008 1008 1008 
1008 1008 1008 1008 1008 1008 1008 1008 1008 
1008 1008 1008 1008 1008 1008 1008 1008 1008 
1008 1008 1008 1008 1008 1008 1008 1008 1008 
1008 1008 1008 1008 1008 1008 1008 1008 1008 
1008 1008 1008 1008 1008 1008 1008 1008 1008 
1008 1008 1008 1008 1008 1008 1008 1008 1008 
1008 1008 1008 1008 1008 1008 1008 1008 1008 
1008 1008 1008 1008 1008 1008 1008 1008 1008 
1008 1008 1008 1008 1008 1008 1008 1008 1008 
1008 1008 1008 1008 1008 1008 1008 1008 1008 
1008 1008 1008 1008 1008 1008 1008 1008 1008 
1008 1008 1008 1008 1008 1008 1008 1008 1008 
1008 1008 1008 1008 1008 1008 1008 1008 1008 
1008 1008 1008 1008 1008 1008 1008 1008 1008 
1008 1008 1008 1008 1008 1008 1008 1008 1008 
1008 1008 1008 1008 1008 1008 1008 1008 1008 
1008 1008 1008 1008 1008 1008 1008 1008 1008 
1008 1008 1008 1008 1008 1008 1008 1008 1008 
1008 1008 1008 1008 1008 1008 1008 1008 1008 
1008 1008 1008 1008 1008 1008 1008 1008 1008 
1008 1008 1008 1008 1008 1008 1008 1008 1008 
1008 1008 1008 1008 1008 1008 1008 1008 1008 
1008 1008 1008 1008 1008 1008 1008 1008 1008 
1008 1008 1008 1008 1008 1008 1008 1008 1008 
1008 1008 1008 1008 1008 1008 1008 1008 1008 
1008 1008 1008 1008 1008 1008 1008 1008 1008 
1008 1008 1008 1008 1008 1008 1008 1008 1008 
1008 1008 1008 1008 1008 1008 1008 1008 1008 
1008 1008 1008 1008 1008 1008 1008 1008 1008 
1008 1008 1008 1008 1008 1008 1008 1008 1008 
1008 1008 1008 1008 1008 1008 1008 1008 1008 
1008 1008 1008 1008 1008 1008 1008 1008 1008 
1008 1008 1008 1008 1008 1008 1008 1008 1008 
1008 1008 1008 1008 1008 1008 1008 1008 1008 
1008 1008 1008 1008 1008 1008 1008 1008 1008 
1008 1008 1008 1008 1008 1008 1008 1008 1008 
1008 1008 1008 1008 1008 1008 1008 1008 1008 
1008 1008 1008 1008 1008 1008 1008 1008 1008 
1008 1008 1008 1008 1008 1008 1008 1008 1008 
1008 1008 1008 1008 1008 1008 1008 1008 1008 
1008 1008 1008 1008 1008 1008 1008 1008 1008 
1008 1008 1008 1008 1008 1008 1008 1008 1008 
1008 1008 1008 1008 1008 1008 1008 1008 1008 
1008 1008 1008 1008 1008 1008 1008 1008 1008 
1008 1008 1008 1008 1008 1008 1008 1008 1008 
1008 1008 1008 1008 1008 1008 1008 1008 1008 
1008 1008 1008 1008 1008 1008 1008 1008 1008 
1008 1008 1008 1008 1008 1008 1008 1008 1008 
1008 1008 1008 1008 1008 1008 1008 1008 1008 
1008 1008 1008 1008 1008 1008 1008 1008 1008 
1008 1008 1008 1008 1008 1008 1008 1008 1008 
1008 1008 1008 1008 1008 1008 1008 1008 1008 
1008 1008 1008 1008 1008 1008 1008 1008 1008 
1008 1008 1008 1008 1008 1008 1008 1008 1008 
1008 1008 1008 1008 1008 1008 1008 1008 1008 
1008 1008 1008 1008 1008 1008 1008 1008 1008 
1008 1008 1008 1008 1008 1008 1008 1008 1008 
1008 1008 1008 1008 1008 1008 1008 1008 1008 
1008 1008 1008 1008 1008 1008 1008 1008 1008 
1008 1008 1008 1008 1008 1008 1008 1008 1008 
1008 1008 1008 1008 1008 1008 1008 1008 1008 
1008 1008 1008 1008 1008 1008 1008 1008 1008 
1008 1008 1008 1008 1008 1008 1008 1008 1008 
1008 1008 1008 1008 1008 1008 1008 1008 1008 
1008 1008 1008 1008 1008 1008 1008 1008 1008 
1008 1008 1008 1008 1008 1008 1008 1008 1008 
1008 1008 1008 1008 1008 1008 1008 1008 1008 
1008 1008 1008 1008 1008 1008 1008 1008 1008 
1008 1008 1008 1008 1008 1008 1008 1008 1008 
1008 1008 1008 1008 1008 1008 1008 1008 1008 
1008 1008 1008 1008 1008 1008 1008 1008 1008 
1008 1008 1008 1008 1008 1008 1008 1008 1008 
1008 1008 1008 1008 1008 1008 1008 1008 1008 
1008 1008 1008 1008 1008 1008 1008 1008 1008 
1008 1008 1008 1008 1008 1008 1008 1008 1008 
1008 1008 1008 1008 1008 1008 1008 1008 1008 
1008 1008 1008 1008 1008 1008 1008 1008 1008 
1008 1008 1008 1008 1008 1008 1008 1008 1008 
1008 1008 1008 1008 1008 1008 1008 1008 1008 
1008 1008 1008 1008 1008 1008 1008 1008 1008 
1008 1008 1008 1008 1008 1008 1008 1008 1008 
1008 1008 1008 1008 1008 1008 1008 1008 1008 
1008 1008 1008 1008 1008 1008 1008 1008 1008 
1008 1008 1008 1008 1008 1008 1008 1008 1008 
1008 1008 1008 1008 1008 1008 1008 1008 1008 
1008 1008 1008 1008 1008 1008 1008 1008 1008 
1008 1008 1008 1008 1008 1008 1008 1008 1008 
1008 1008 1008 1008 1008 1008 1008 1008 1008 
1008 1008 1008 1008 1008 1008 1008 1008 1008 
1008 1008 1008 1008 1008 1008 1008 1008 1008 
1008 1008 1008 1008 1008 1008 1008 1008 1008 
1008 1008 1008 1008 1008 1008 1008 1008 1008 
1008 1008 1008 1008 1008 1008 1008 1008 1008 
1008 1008 1008 1008 1008 1008 1008 1008 1008 
1008 1008 1008 1008 1008 1008 1008 1008 1008 
1008 1008 1008 1008 1008 1008 1008 1008 1008 
1008 1008 1008 1008 1008 1008 1008 1008 1008 
1008 1008 1008 1008 1008 1008 1008 1008 1008 
1008 1008 1008 1008 1008 1008 1008 1008 1008 
1008 1008 1008 1008 1008 1008 1008 1008 1008 
1008 1008 1008 1008 1008 1008 1008 1008 1008 
1008 1008 1008 1008 1008 1008 1008 1008 1008 
1008 1008 1008 1008 1008 1008 1008 1008 1008 
1008 1008 1008 1008 1008 1008 1008 1008 1008 
1008 1008 1008 1008 1008 1008 1008 1008 1008 
1008 1008 1008 1008 1008 1008 1008 1008 1008 
1008 1008 1008 1008 1008 1008 1008 1008 1008 
1008 1008 1008 1008 1008 1008 1008 1008 1008 
1008 1008 1008 1008 1008 1008 1008 1008 1008 
1008 1008 1008 1008 1008 1008 1008 1008 1008 
1008 1008 1008 1008 1008 1008 1008 1008 1008 
1008 1008 1008 1008 1008 1008 1008 1008 1008 
1008 1008 1008 1008 1008 1008 1008 1008 1008 
1008 1008 1008 1008 1008 1008 1008 1008 1008 
1008 1008 1008 1008 1008 1008 1008 1008 1008 
1008 1008 1008 1008 1008 1008 1008 1008 1008 
1008 1008 1008 1008 1008 1008 1008 1008 1008 
1008 1008 1008 1008 1008 1008 1008 1008 1008 
1008 1008 1008 1008 1008 1008 1008 1008 1008 
1008 1008 1008 1008 1008 1008 1008 1008 1008 
1008 1008 1008 1008 1008 1008 1008 1008 1008 
1008 1008 1008 1008 1008 1008 1008 1008 1008 
1008 1008 1008 1008 1008 1008 1008 1008 1008 
1008 1008 1008 1008 1008 1008 1008 1008 1008 
1008 1008 1008 1008 1008 1008 1008 1008 1008 
1008 1008 1008 1008 1008 1008 1008 1008 1008 
1008 1008 1008 1008 1008 1008 1008 1008 1008 
1008 1008 1008 1008 1008 1008 1008 1008 1008 
1008 1008 1008 1008 1008 1008 1008 1008 1008 
1008 1008 1008 1008 1008 1008 1008 1008 1008 
1008 1008 1008 1008 1008 1008 1008 1008 1008 
1008 1008 1008 1008 1008 1008 1008 1008 1008 
1008 1008 1008 1008 1008 1008 1008 1008 1008 
1008 1008 1008 1008 1008 1008 1008 1008 1008 
1008 1008 1008 1008 1008 1008 1008 1008 1008 
1008 1008 1008 1008 1008 1008 1008 1008 1008 
1008 1008 1008 1008 1008 1008 1008 1008 1008 
1008 1008 1008 1008 1008 1008 1008 1008 1008 
1008 1008 1008 1008 1008 1008 1008 1008 1008 
1008 1008 1008 1008 1008 1008 1008 1008 1008 
1008 1008 1008 1008 1008 1008 1008 1008 1008 
1008 1008 1008 1008 1008 1008 1008 1008 1008 
1008 1008 1008 1008 1008 1008 1008 1008 1008 
1008 1008 1008 1008 1008 1008 1008 1008 1008 
1008 1008 1008 1008 1008 1008 1008 1008 1008 
1008 1008 1008 1008 1008 1008 1008 1008 1008 
1008 1008 1008 1008 1008 1008 1008 1008 1008 
1008 1008 1008 1008 1008 1008 1008 1008 1008 
1008 1008 1008 1008 1008 1008 1008 1008 1008 
1008 1008 1008 1008 1008 1008 1008 1008 1008 
1008 1008 1008 1008 1008 1008 1008 1008 1008 
1008 1008 1008 1008 1008 1008 1008 1008 1008 
1008 1008 1008 1008 1008 1008 1008 1008 1008 
1008 1008 1008 1008 1008 1008 1008 1008 1008 
1008 1008 1008 1008 1008 1008 1008 1008 1008 
1008 1008 1008 1008 1008 1008 1008 1008 1008 
1008 1008 1008 1008 1008 1008 1008 1008 1008 
1008 1008 1008 1008 1008 1008 1008 1008 1008 
1008 1008 1008 1008 1008 1008 1008 1008 1008 
1008 1008 1008 1008 1008 1008 1008 1008 1008 
1008 1008 1008 1008 1008 1008 1008 1008 1008 
1008 1008 1008 1008 1008 1008 1008 1008 1008 
1008 1008 1008 1008 1008 1008 1008 1008 1008 
1008 1008 1008 1008 1008 1008 1008 1008 1008 
1008 1008 1008 1008 1008 1008 1008 1008 1008 
1008 1008 1008 1008 1008 1008 1008 1008 1008 
1008 1008 1008 1008 1008 1008 1008 1008 1008 
1008 1008 1008 1008 1008 1008 1008 1008 1008 
1008 1008 1008 1008 1008 1008 1008 1008 1008 
1008 1008 1008 1008 1008 1008 1008 1008 1008 
1008 1008 1008 1008 1008 1008 1008 1008 1008 
1008 1008 1008 1008 1008 1008 1008 1008 1008 
1008 1008 1008 1008 1008 1008 1008 1008 1008 
1008 1008 1008 1008 1008 1008 1008 1008 1008 
1008 1008 1008 1008 1008 1008 1008 1008 1008 
1008 1008 1008 1008 1008 1008 1008 1008 1008 
1008 1008 1008 1008 1008 1008 1008 1008 1008 
1008 1008 1008 1008 1008 1008 1008 1008 1008 
1008 1008 1008 1008 1008 1008 1008 1008 1008 
1008 1008 1008 1008 1008 1008 1008 1008 1008 
1008 1008 1008 1008 1008 1008 1008 1008 1008 
1008 1008 1008 1008 1008 1008 1008 1008 1008 
1008 1008 1008 1008 1008 1008 1008 1008 1008 
1008 1008 1008 1008 1008 1008 1008 1008 1008 
1008 1008 1008 1008 1008 1008 1008 1008 1008 
1008 1008 1008 1008 1008 1008 1008 1008 1008 
1008 1008 1008 1008 1008 1008 1008 1008 1008 
1008 1008 1008 1008 1008 1008 1008 1008 1008 
1008 1008 1008 1008 1008 1008 1008 1008 1008 
1008 1008 1008 1008 1008 1008 1008 1008 1008 
1008 1008 1008 1008 1008 1008 1008 1008 1008 
1008 1008 1008 1008 1008 1008 1008 1008 1008 
1008 1008 1008 1008 1008 1008 1008 1008 1008 
1008 1008 1008 1008 1008 1008 1008 1008 1008 
1008 1008 1008 1008 1008 1008 1008 1008 1008 
1008 1008 1008 1008 1008 1008 1008 1008 1008 
1008 1008 1008 1008 1008 1008 1008 1008 1008 
1008 1008 1008 1008 1008 1008 1008 1008 1008 
1008 1008 1008 1008 1008 1008 1008 1008 1008 
1008 1008 1008 1008 1008 1008 1008 1008 1008 
1008 1008 1008 1008 1008 1008 1008 1008 1008 
1008 1008 1008 1008 1008 1008 1008 1008 1008 
1008 1008 1008 1008 1008 1008 1008 1008 1008 
1008 1008 1008 1008 1008 1008 1008 1008 1008 
1008 1008 1008 1008 1008 1008 1008 1008 1008 
1008 1008 1008 1008 1008 1008 1008 1008 1008 
1008 1008 1008 1008 1008 1008 1008 1008 1008 
1008 1008 1008 1008 1008 1008 1008 1008 1008 
1008 1008 1008 1008 1008 1008 1008 1008 1008 
1008 1008 1008 1008 1008 1008 1008 1008 1008 
1008 1008 1008 1008 1008 1008 1008 1008 1008 
1008 1008 1008 1008 1008 1008 1008 1008 1008 
1008 1008 1008 1008 1008 1008 1008 1008 1008 
1008 1008 1008 1008 1008 1008 1008 1008 1008 
1008 1008 1008 1008 1008 1008 1008 1008 1008 
1008 1008 1008 1008 1008 1008 1008 1008 1008 
1008 1008 1008 1008 1008 1008 1008 1008 1008 
1008 1008 1008 1008 1008 1008 1008 1008 1008 
1008 1008 1008 1008 1008 1008 1008 1008 1008 
1008 1008 1008 1008 1008 1008 1008 1008 1008 
1008 1008 1008 1008 1008 1008 1008 1008 1008 
1008 1008 1008 1008 1008 1008 1008 1008 1008 
1008 1008 1008 1008 1008 1008 1008 1008 1008 
1008 1008 1008 1008 1008 1008 1008 1008 1008 
1008 1008 1008 1008 1008 1008 1008 1008 1008 
1008 1008 1008 1008 1008 1008 1008 1008 1008 
1008 1008 1008 1008 1008 1008 1008 1008 1008 
1008 1008 1008 1008 1008 1008 1008 1008 1008 
1008 1008 1008 1008 1008 1008 1008 1008 1008 
1008 1008 1008 1008 1008 1008 1008 1008 1008 
1008 1008 1008 1008 1008 1008 1008 1008 1008 
1008 1008 1008 1008 1008 1008 1008 1008 1008 
1008 1008 1008 1008 1008 1008 1008 1008 1008 
1008 1008 1008 1008 1008 1008 1008 1008 1008 
1008 1008 1008 1008 1008 1008 1008 1008 1008 
1008 1008 1008 1008 1008 1008 1008 1008 1008 
1008 1008 1008 1008 1008 1008 1008 1008 1008 
1008 1008 1008 1008 1008 1008 1008 1008 1008 
1008 1008 1008 1008 1008 1008 1008 1008 1008 
1008 1008 1008 1008 1008 1008 1008 1008 1008 
1008 1008 1008 1008 1008 1008 1008 1008 1008 
1008 1008 1008 1008 1008 1008 1008 1008 1008 
1008 1008 1008 1008 1008 1008 1008 1008 1008 
1008 1008 1008 1008 1008 1008 1008 1008 1008 
1008 1008 1008 1008 1008 1008 1008 1008 1008 
1008 1008 1008 1008 1008 1008 1008 1008 1008 
1008 1008 1008 1008 1008 1008 1008 1008 1008 
1008 1008 1008 1008 1008 1008 1008 1008 1008 
1008 1008 1008 1008 1008 1008 1008 1008 1008 
1008 1008 1008 1008 1008 1008 1008 1008 1008 
1008 1008 1008 1008 1008 1008 1008 1008 1008 
1008 1008 1008 1008 1008 1008 1008 1008 1008 
1008 1008 1008 1008 1008 1008 1008 1008 1008 
1008 1008 1008 1008 1008 1008 1008 1008 1008 
1008 1008 1008 1008 1008 1008 1008 1008 1008 
1008 1008 1008 1008 1008 1008 1008 1008 1008 
1008 1008 1008 1008 1008 1008 1008 1008 1008 
1008 1008 1008 1008 1008 1008 1008 1008 1008 
1008 1008 1008 1008 1008 1008 1008 1008 1008 
1008 1008 1008 1008 1008 1008 1008 1008 1008 
1008 1008 1008 1008 1008 1008 1008 1008 1008 
1008 1008 1008 1008 1008 1008 1008 1008 1008 
1008 1008 1008 1008 1008 1008 1008 1008 1008 
1008 1008 1008 1008 1008 1008 1008 1008 1008 
1008 1008 1008 1008 1008 1008 1008 1008 1008 
1008 1008 1008 1008 1008 1008 1008 1008 1008 
1008 1008 1008 1008 1008 1008 1008 1008 1008 
1008 1008 1008 1008 1008 1008 1008 1008 1008 
1008 1008 1008 1008 1008 1008 1008 1008 1008 
1008 1008 1008 1008 1008 1008 1008 1008 1008 
1008 1008 1008 1008 1008 1008 1008 1008 1008 
1008 1008 1008 1008 1008 1008 1008 1008 1008 
1008 1008 1008 1008 1008 1008 1008 1008 1008 
1008 1008 1008 1008 1008 1008 1008 1008 1008 
1008 1008 1008 1008 1008 1008 1008 1008 1008 
1008 1008 1008 1008 1008 1008 1008 1008 1008 
1008 1008 1008 1008 1008 1008 1008 1008 1008 
1008 1008 1008 1008 1008 1008 1008 1008 1008 
1008 1008 1008 1008 1008 1008 1008 1008 1008 
1008 1008 1008 1008 1008 1008 1008 1008 1008 
1008 1008 1008 1008 1008 1008 1008 1008 1008 
1008 1008 1008 1008 1008 1008 1008 1008 1008 
1008 1008 1008 1008 1008 1008 1008 1008 1008 
1008 1008 1008 1008 1008 1008 1008 1008 1008 
1008 1008 1008 1008 1008 1008 1008 1008 1008 
1008 1008 1008 1008 1008 1008 1008 1008 1008 
1008 1008 1008 1008 1008 1008 1008 1008 1008 
1008 1008 1008 1008 1008 1008 1008 1008 1008 
1008 1008 1008 1008 1008 1008 1008 1008 1008 
1008 1008 1008 1008 1008 1008 1008 1008 1008 
1008 1008 1008 1008 1008 1008 1008 1008 1008 
1008 1008 1008 1008 1008 1008 1008 1008 1008 
1008 1008 1008 1008 1008 1008 1008 1008 1008 
1008 1008 1008 1008 1008 1008 1008 1008 1008 
1008 1008 1008 1008 1008 1008 1008 1008 1008 
1008 1008 1008 1008 1008 1008 1008 1008 1008 
1008 1008 1008 1008 1008 1008 1008 1008 1008 
1008 1008 1008 1008 1008 1008 1008 1008 1008 
1008 1008 1008 1008 1008 1008 1008 1008 1008 
1008 1008 1008 1008 1008 1008 1008 1008 1008 
1008 1008 1008 1008 1008 1008 1008 1008 1008 
1008 1008 1008 1008 1008 1008 1008 1008 1008 
1008 1008 1008 1008 1008 1008 1008 1008 1008 
1008 1008 1008 1008 1008 1008 1008 1008 1008 
1008 1008 1008 1008 1008 1008 1008 1008 1008 
1008 1008 1008 1008 1008 1008 1008 1008 1008 
1008 1008 1008 1008 1008 1008 1008 1008 1008 
1008 1008 1008 1008 1008 1008 1008 1008 1008 
1008 1008 1008 1008 1008 1008 1008 1008 1008 
1008 1008 1008 1008 1008 1008 1008 1008 1008 
1008 1008 1008 1008 1008 1008 1008 1008 1008 
1008 1008 1008 1008 1008 1008 1008 1008 1008 
1008 1008 1008 1008 1008 1008 1008 1008 1008 
1008 1008 1008 1008 1008 1008 1008 1008 1008 
1008 1008 1008 1008 1008 1008 1008 1008 1008 
1008 1008 1008 1008 1008 1008 1008 1008 1008 
1008 1008 1008 1008 1008 1008 1008 1008 1008 
1008 1008 1008 1008 1008 1008 1008 1008 1008 
1008 1008 1008 1008 1008 1008 1008 1008 1008 
1008 1008 1008 1008 1008 1008 1008 1008 1008 
1008 1008 1008 1008 1008 1008 1008 1008 1008 
1008 1008 1008 1008 1008 1008 1008 1008 1008 
1008 1008 1008 1008 1008 1008 1008 1008 1008 
1008 1008 1008 1008 1008 1008 1008 1008 1008 
1008 1008 1008 1008 1008 1008 1008 1008 1008 
1008 1008 1008 1008 1008 1008 1008 1008 1008 
1008 1008 1008 1008 1008 1008 1008 1008 1008 
1008 1008 1008 1008 1008 1008 1008 1008 1008 
1008 1008 1008 1008 1008 1008 1008 1008 1008 
1008 1008 1008 1008 1008 1008 1008 1008 1008 
1008 1008 1008 1008 1008 1008 1008 1008 1008 
1008 1008 1008 1008 1008 1008 1008 1008 1008 
1008 1008 1008 1008 1008 1008 1008 1008 1008 
1008 1008 1008 1008 1008 1008 1008 1008 1008 
1008 1008 1008 1008 1008 1008 1008 1008 1008 
1008 1008 1008 1008 1008 1008 1008 1008 1008 
1008 1008 1008 1008 1008 1008 1008 1008 1008 
1008 1008 1008 1008 1008 1008 1008 1008 1008 
1008 1008 1008 1008 1008 1008 1008 1008 1008 
1008 1008 1008 1008 1008 1008 1008 1008 1008 
1008 1008 1008 1008 1008 1008 1008 1008 1008 
1008 1008 1008 1008 1008 1008 1008 1008 1008 
1008 1008 1008 1008 1008 1008 1008 1008 1008 
1008 1008 1008 1008 1008 1008 1008 1008 1008 
1008 1008 1008 1008 1008 1008 1008 1008 1008 
1008 1008 1008 1008 1008 1008 1008 1008 1008 
1008 1008 1008 1008 1008 1008 1008 1008 1008 
1008 1008 1008 1008 1008 1008 1008 1008 1008 
1008 1008 1008 1008 1008 1008 1008 1008 1008 
1008 1008 1008 1008 1008 1008 1008 1008 1008 
1008 1008 1008 1008 1008 1008 1008 1008 1008 
1008 1008 1008 1008 1008 1008 1008 1008 1008 
1008 1008 1008 1008 1008 1008 1008 1008 1008 
1008 1008 1008 1008 1008 1008 1008 1008 1008 
1008 1008 1008 1008 1008 1008 1008 1008 1008 
1008 1008 1008 1008 1008 1008 1008 1008 1008 
1008 1008 1008 1008 1008 1008 1008 1008 1008 
1008 1008 1008 1008 1008 1008 1008 1008 1008 
1008 1008 1008 1008 1008 1008 1008 1008 1008 
1008 1008 1008 1008 1008 1008 1008 1008 1008 
1008 1008 1008 1008 1008 1008 1008 1008 1008 
1008 1008 1008 1008 1008 1008 1008 1008 1008 
1008 1008 1008 1008 1008 1008 1008 1008 1008 
1008 1008 1008 1008 1008 1008 1008 1008 1008 
1008 1008 1008 1008 1008 1008 1008 1008 1008 
1008 1008 1008 1008 1008 1008 1008 1008 1008 
1008 1008 1008 1008 1008 1008 1008 1008 1008 
1008 1008 1008 1008 1008 1008 1008 1008 1008 
1008 1008 1008 1008 1008 1008 1008 1008 1008 
1008 1008 1008 1008 1008 1008 1008 1008 1008 
1008 1008 1008 1008 1008 1008 1008 1008 1008 
1008 1008 1008 1008 1008 1008 1008 1008 1008 
1008 1008 1008 1008 1008 1008 1008 1008 1008 
1008 1008 1008 1008 1008 1008 1008 1008 1008 
1008 1008 1008 1008 1008 1008 1008 1008 1008 
1008 1008 1008 1008 1008 1008 1008 1008 1008 