# vtk DataFile Version 4.2
vtk output
ASCII
DATASET POLYDATA
POINTS 4080 float
-5.67586 64.7706 -2.49832 -5.59672 64.4115 -2.30649 -5.51585 64.4331 -2.56054 
-5.8388 64.3781 -2.42908 -5.75795 64.3997 -2.68313 -7.65895 63.6803 -1.44921 
-7.75108 63.274 -1.22931 -7.45846 63.51 -1.46728 -8.20396 63.2606 -1.56078 
-5.773 63.4416 -2.21332 -5.42012 63.7835 -2.40782 -6.1957 63.3922 -2.62307 
-7.57365 63.2883 -1.92116 -5.52566 63.4972 -2.94745 -4.94289 62.732 6.23691 
-4.50264 62.4156 6.75939 -4.23986 62.5093 6.1973 -5.0924 62.4139 6.64354 
-4.84232 62.9006 5.49396 -4.18099 62.5246 5.27035 -5.62111 62.5601 6.15889 
-5.83875 62.9082 5.48562 -7.03089 62.8912 5.31178 -6.45525 62.4834 5.97177 
-8.0428 62.8804 5.29396 -7.48215 62.4735 5.95984 -8.76268 62.7603 5.24045 
-8.42124 62.4874 5.90182 -9.09121 62.4313 5.56353 -4.80792 62.9114 4.50174 
-4.20443 62.5238 4.24864 -5.66931 63.0491 4.51321 -6.71159 63.0546 4.47096 
-7.74716 63.0403 4.43129 -8.6303 62.889 4.46801 -9.27966 62.5236 4.74143 
-4.69706 62.8689 3.61406 -4.21339 62.5488 3.189 -5.41398 62.9086 3.43948 
-6.421 62.8917 3.60865 -7.44212 62.891 3.5824 -8.39168 62.8103 3.58367 
-9.19424 62.5189 3.77651 -4.79798 62.8213 2.5373 -4.17099 62.5623 2.12732 
-5.36715 62.6214 2.51666 -6.03193 62.5093 2.86538 -7.0034 62.4974 2.93378 
-8.0227 62.5092 2.92882 -8.84975 62.4308 3.09022 -4.60003 62.7156 1.61509 
-4.16698 62.4097 1.38171 -5.13088 62.5262 1.77655 -4.79244 62.1901 1.12817 
-7.93113 62.3672 -1.1472 -7.32896 62.6301 -1.69808 -9.0706 62.9706 -1.54549 
-8.49861 62.7745 -1.07537 -9.71856 62.7927 -1.7338 -9.36542 62.4357 -0.998695 
-9.98224 62.2714 -1.32031 -11.6797 62.6668 -1.47549 -11.7501 62.2185 -1.28869 
-11.4514 62.4734 -1.52679 -12.104 62.4181 -1.41244 -5.90069 62.4583 -2.21508 
-5.31803 62.6113 -2.67929 -6.97371 62.943 -2.34246 -6.517 62.6159 -2.18207 
-7.50233 62.8147 -2.57256 -8.13044 62.7815 -2.3093 -8.82761 62.781 -2.13474 
-9.20346 62.5571 -2.87641 -9.58075 62.819 -2.4824 -10.1708 62.2607 -2.41692 
-11.6034 62.3604 -1.83888 -4.72654 62.9152 -3.54023 -4.72246 62.3576 -3.1994 
-4.22935 62.335 -3.78316 -5.39654 62.9026 -3.82149 -6.15598 62.3829 -3.15414 
-6.90282 62.5135 -2.78192 -7.73214 62.2662 -2.83147 -9.66754 62.7217 -3.33791 
-9.4422 62.4622 -3.64787 -10.0089 62.3946 -3.49694 -3.87907 62.7221 -4.27537 
-3.63818 62.3592 -4.31695 -3.46323 62.4875 -4.54783 -4.56624 62.8057 -4.41775 
-5.25245 62.5913 -4.45499 -5.8673 62.4311 -3.99875 -9.80973 62.368 -4.01049 
-3.85041 62.4444 -4.7035 -4.66042 62.3284 -4.85521 -3.8787 62.7539 -6.48807 
-3.62206 62.3964 -6.02326 -3.31588 62.2299 -6.64185 -4.45757 62.7614 -6.62821 
-4.32971 62.537 -6.08095 -4.94675 62.4812 -6.40296 -3.99242 62.5984 -6.99531 
-4.76631 62.5146 -6.90433 -5.8093 61.86 10.3291 -5.74939 61.5522 10.959 
-5.17379 61.5206 10.55 -6.91011 61.9065 10.4103 -6.54389 61.4346 11.0466 
-7.96416 61.9211 10.3769 -7.6456 61.4082 10.9105 -8.90091 61.8449 10.2581 
-8.61304 61.3819 10.8342 -9.28062 61.3789 10.6344 -4.84606 61.8443 9.46962 
-4.48619 61.4491 9.95014 -4.04954 61.5825 9.3349 -5.78704 61.9987 9.36745 
-6.64493 62.0265 9.51287 -7.67983 62.0639 9.52515 -8.69328 62.043 9.47015 
-9.56239 61.6046 10.1155 -9.54589 61.8227 9.42992 -10.0558 61.4594 9.62371 
-3.98018 61.8162 8.52918 -3.47502 61.4537 8.87781 -3.18928 61.4984 8.12667 
-4.83003 61.9649 8.33857 -5.65446 61.9592 8.48895 -6.64769 61.9773 8.48535 
-7.67139 62.0008 8.48841 -8.51415 62.0227 8.62471 -9.35901 61.8099 8.41712 
-10.1111 61.4737 8.80813 -3.66736 61.8322 7.64077 -3.1376 61.509 7.18533 
-4.6206 62.0766 7.3723 -5.69281 61.9596 7.45505 -6.70613 61.9302 7.4719 
-7.7424 61.9547 7.45342 -8.85391 61.8646 7.48907 -9.43318 61.5311 7.59704 
-9.86403 61.3831 8.02965 -3.81481 62.0029 6.78197 -3.16762 61.5017 6.1952 
-5.75115 62.1758 6.61494 -6.71909 62.073 6.59424 -7.73068 62.0923 6.59852 
-8.81587 62.0915 6.39947 -9.54197 61.5194 7.03816 -9.76748 61.7856 6.332 
-10.0908 61.3843 6.61675 -3.67842 62.0009 5.77184 -3.17422 61.4866 5.18595 
-9.77739 62.1073 5.3288 -10.5297 61.5217 6.03761 -10.5955 61.7658 5.39042 
-11.0596 61.4019 5.53579 -3.68546 61.9915 4.75687 -3.18632 61.4992 4.17783 
-9.91981 62.1541 4.16019 -10.6428 61.8494 4.4466 -11.2631 61.4737 4.71664 
-3.70224 62.0168 3.72743 -3.17005 61.5164 3.16233 -9.69309 62.1117 3.11326 
-10.6219 61.8453 3.43422 -11.288 61.4984 3.73091 -3.67205 62.044 2.67549 
-3.13902 61.339 2.13513 -5.70093 62.273 2.19506 -6.562 61.9819 2.18521 
-7.71185 62.143 2.31862 -8.74652 62.1524 2.52103 -9.5068 61.8792 2.20294 
-10.4073 61.7709 2.55007 -11.1773 61.4726 2.7966 -3.65859 61.9892 1.72172 
-3.3871 61.3133 1.41432 -5.67356 61.9821 1.55951 -6.31398 61.3198 1.40167 
-6.80796 61.5192 1.73955 -7.10844 61.3242 1.41701 -7.44796 61.7702 1.72924 
-8.50709 61.8266 1.69381 -9.2669 61.6032 1.56461 -10.0341 61.5202 1.83992 
-10.8223 61.4007 2.10724 -3.94526 61.7652 1.09367 -4.64714 61.4359 0.736007 
-5.53446 61.4825 0.906185 -7.8774 61.2445 1.13364 -8.88713 61.2607 1.15509 
-11.6688 61.6213 0.441216 -11.6715 61.2044 0.915192 -11.4674 61.4722 0.47509 
-12.1852 61.193 0.32957 -9.74371 61.9709 -0.611999 -9.75545 61.2039 -0.236475 
-9.3394 61.6388 -0.510216 -10.1748 61.5174 -0.637067 -11.5396 61.2638 0.00770956 
-7.67483 61.9852 -1.44003 -8.01909 61.5456 -1.34771 -8.67142 61.5538 -0.936853 
-10.365 61.6246 -1.46403 -11.7298 61.3252 -1.11866 -11.1467 61.8526 -1.66266 
-12.6637 62.0783 -1.68816 -12.6948 61.547 -1.11821 -13.5218 61.8045 -1.7838 
-13.7651 61.4112 -1.21806 -14.2639 61.3891 -1.44096 -5.85394 62.0998 -2.61281 
-6.42012 62.1593 -2.53258 -7.11954 61.8036 -2.63397 -7.62705 61.2886 -1.88215 
-8.50172 62.2802 -2.78735 -10.568 61.6595 -1.99294 -10.8154 61.9009 -2.51657 
-11.7081 61.9441 -2.49314 -12.6524 61.8746 -2.41993 -13.1135 61.651 -2.38528 
-13.7671 61.2088 -1.97169 -4.64449 61.978 -3.44575 -5.17615 61.4664 -3.46209 
-5.88944 61.4319 -3.08525 -6.58101 61.9388 -3.64539 -6.63884 61.3637 -3.01996 
-7.71064 61.8327 -3.5956 -8.87163 62.1266 -3.54764 -10.3879 61.7729 -3.42863 
-10.9966 61.486 -3.20051 -11.9434 61.3821 -2.99601 -12.6019 61.57 -2.75008 
-3.55016 62.2345 -4.58435 -4.08261 61.8733 -4.63782 -4.64389 61.4915 -3.97691 
-5.66589 62.1379 -4.68147 -6.55116 61.7289 -4.55662 -7.23684 61.4949 -4.35097 
-7.84875 61.521 -4.23986 -8.22223 61.4616 -4.53699 -8.54048 61.7378 -4.23408 
-9.42862 61.9231 -4.39901 -10.2199 61.4488 -4.4847 -3.83187 61.109 -5.02132 
-3.29605 61.6801 -5.7298 -3.9066 61.9567 -5.43191 -4.89221 62.1294 -5.54522 
-5.9772 61.8535 -5.60954 -6.40286 61.5044 -5.33681 -6.80644 61.3771 -4.91096 
-7.64286 61.4807 -5.20929 -7.40998 61.436 -5.34835 -7.64037 61.5356 -5.4509 
-8.86524 61.3908 -4.93736 -8.05315 61.1966 -5.56655 -9.72014 61.2902 -5.11179 
-3.05383 61.373 -6.32486 -5.58345 62.1358 -6.71622 -6.53833 61.5359 -5.94542 
-6.59939 61.7816 -6.60483 -7.6172 61.2728 -5.85632 -7.05363 61.4118 -6.46174 
-3.60447 62.0997 -7.40122 -3.2193 61.3439 -7.48777 -4.55571 62.1028 -7.4324 
-5.7011 61.9079 -7.68899 -6.62366 61.8783 -7.56568 -7.26242 61.4699 -7.28346 
-3.93863 61.375 -7.98575 -4.92381 61.373 -7.87262 -5.90827 61.3751 -8.09951 
-6.439 61.4136 -8.76552 -6.55077 61.7656 -8.55186 -7.04953 61.372 -8.45323 
-6.63976 61.659 -9.42271 -6.56472 61.4114 -9.44601 -6.88602 61.5824 -9.40984 
-6.73301 61.504 -9.77801 -5.81333 61.018 11.3238 -5.7018 60.1427 11.8086 
-5.1788 60.5723 11.3566 -6.77737 60.8755 11.4559 -6.68128 60.349 11.7715 
-7.31468 60.3504 11.5558 -3.75579 60.802 10.3282 -3.61711 60.4209 10.8054 
-3.09266 60.5777 10.3148 -4.69374 61.0175 10.6271 -4.41167 60.4866 11.0494 
-7.62482 60.6381 11.1968 -8.65822 60.5208 11.0172 -10.0471 61.0885 10.3845 
-9.635 60.5595 10.9257 -10.932 60.81 10.2771 -10.4806 60.4773 10.8018 
-11.1532 60.1657 10.5665 -2.93675 60.8097 9.66445 -2.5697 60.3523 10.0586 
-2.34993 60.3552 9.40046 -3.71444 61.1824 9.60011 -10.7642 61.1369 9.40825 
-11.5785 60.5196 10.0255 -11.835 60.8882 9.40163 -12.172 60.2386 9.32581 
-2.8152 61.015 8.75387 -2.28942 60.3598 8.48866 -10.6689 61.0968 8.19873 
-11.7388 61.0291 8.51359 -12.6101 60.6584 8.88608 -12.6347 60.8605 8.4408 
-13.0133 60.3118 8.2216 -2.63483 61.0155 7.70274 -2.2927 60.3459 7.47593 
-10.0362 61.1807 7.3258 -10.8652 60.9574 7.2848 -11.5296 60.9618 7.64547 
-12.3932 60.8347 7.47626 -13.0436 60.3637 7.55143 -2.64701 61.0064 6.68676 
-2.3058 60.3592 6.44403 -10.8173 61.1254 6.39181 -11.7014 60.847 6.61411 
-12.3848 60.557 6.58345 -12.8174 60.344 6.89745 -2.66872 60.9984 5.67645 
-2.30438 60.3721 5.42944 -11.7793 60.9689 5.31257 -12.3109 60.4945 5.81898 
-2.67598 61.0033 4.67252 -2.29092 60.3934 4.4188 -11.8998 61.1156 4.14832 
-12.5778 60.5516 5.062 -12.5947 60.7637 4.38967 -13.1114 60.4183 4.58014 
-2.66681 61.0267 3.66672 -2.26791 60.3935 3.41497 -11.7527 61.1549 3.25437 
-12.4081 60.7907 3.38267 -13.1715 60.4542 3.8211 -2.65194 60.9575 2.71422 
-2.31922 60.2009 2.53322 -11.6548 60.9774 2.30274 -12.3872 60.5194 2.54426 
-12.9079 60.3782 3.05818 -2.69912 60.618 2.05279 -3.11404 60.413 1.50875 
-6.71626 61.1647 1.46297 -9.63339 61.2163 1.35295 -10.7456 61.0231 1.39839 
-11.5628 60.9698 1.54658 -12.218 60.608 1.6894 -3.81035 60.8252 0.896969 
-4.54995 60.8849 0.443338 -4.22157 60.2046 0.416607 -5.32195 60.9465 0.385885 
-6.11311 60.7545 0.617238 -6.9415 60.7384 0.946207 -7.85994 60.5074 0.751981 
-8.76177 60.4603 0.829252 -9.80236 60.5123 1.07211 -10.8043 60.2864 1.00384 
-11.1955 60.7624 0.530138 -12.9552 60.8795 0.465904 -12.5832 60.7928 0.946798 
-13.4984 60.6628 0.336451 -13.3916 60.5196 0.861648 -13.9285 60.2148 0.723805 
-4.9932 60.3453 0.0957413 -5.87683 60.2248 0.100256 -9.91344 60.2968 -0.182157 
-9.26983 60.5419 -0.604413 -10.8286 61.072 -0.534318 -10.6893 60.5111 -8.65084e-05 
-11.5813 60.9406 -0.729667 -12.223 60.7248 -0.382041 -12.9628 60.4133 -0.0950646 
-13.7007 60.2213 0.174968 -8.76291 60.3789 -1.14347 -8.27997 60.4792 -1.61741 
-10.9123 61.241 -1.31058 -12.6272 60.5175 -0.8618 -13.7705 60.4364 -1.00095 
-14.6814 60.947 -1.57976 -14.5923 60.676 -1.21222 -14.9914 60.2574 -1.47454 
[...]
CELL_DATA 8172
SCALARS scalars float
LOOKUP_TABLE default
1026 1026 1026 1026 1026 1026 1026 1026 1026 
1026 1026 1026 1026 1026 1026 1026 1026 1026 
1026 1026 1026 1026 1026 1026 1026 1026 1026 
1026 1026 1026 1026 1026 1026 1026 1026 1026 
1026 1026 1026 1026 1026 1026 1026 1026 1026 
1026 1026 1026 1026 1026 1026 1026 1026 1026 
1026 1026 1026 1026 1026 1026 1026 1026 1026 
1026 1026 1026 1026 1026 1026 1026 1026 1026 
1026 1026 1026 1026 1026 1026 1026 1026 1026 
1026 1026 1026 1026 1026 1026 1026 1026 1026 
1026 1026 1026 1026 1026 1026 1026 1026 1026 
1026 1026 1026 1026 1026 1026 1026 1026 1026 
1026 1026 1026 1026 1026 1026 1026 1026 1026 
1026 1026 1026 1026 1026 1026 1026 1026 1026 
1026 1026 1026 1026 1026 1026 1026 1026 1026 
1026 1026 1026 1026 1026 1026 1026 1026 1026 
1026 1026 1026 1026 1026 1026 1026 1026 1026 
1026 1026 1026 1026 1026 1026 1026 1026 1026 
1026 1026 1026 1026 1026 1026 1026 1026 1026 
1026 1026 1026 1026 1026 1026 1026 1026 1026 
1026 1026 1026 1026 1026 1026 1026 1026 1026 
1026 1026 1026 1026 1026 1026 1026 1026 1026 
1026 1026 1026 1026 1026 1026 1026 1026 1026 
1026 1026 1026 1026 1026 1026 1026 1026 1026 
1026 1026 1026 1026 1026 1026 1026 1026 1026 
1026 1026 1026 1026 1026 1026 1026 1026 1026 
1026 1026 1026 1026 1026 1026 1026 1026 1026 
1026 1026 1026 1026 1026 1026 1026 1026 1026 
1026 1026 1026 1026 1026 1026 1026 1026 1026 
1026 1026 1026 1026 1026 1026 1026 1026 1026 
1026 1026 1026 1026 1026 1026 1026 1026 1026 
1026 1026 1026 1026 1026 1026 1026 1026 1026 
1026 1026 1026 1026 1026 1026 1026 1026 1026 
1026 1026 1026 1026 1026 1026 1026 1026 1026 
1026 1026 1026 1026 1026 1026 1026 1026 1026 
1026 1026 1026 1026 1026 1026 1026 1026 1026 
1026 1026 1026 1026 1026 1026 1026 1026 1026 
1026 1026 1026 1026 1026 1026 1026 1026 1026 
1026 1026 1026 1026 1026 1026 1026 1026 1026 
1026 1026 1026 1026 1026 1026 1026 1026 1026 
1026 1026 1026 1026 1026 1026 1026 1026 1026 
1026 1026 1026 1026 1026 1026 1026 1026 1026 
1026 1026 1026 1026 1026 1026 1026 1026 1026 
1026 1026 1026 1026 1026 1026 1026 1026 1026 
1026 1026 1026 1026 1026 1026 1026 1026 1026 
1026 1026 1026 1026 1026 1026 1026 1026 1026 
1026 1026 1026 1026 1026 1026 1026 1026 1026 
1026 1026 1026 1026 1026 1026 1026 1026 1026 
1026 1026 1026 1026 1026 1026 1026 1026 1026 
1026 1026 1026 1026 1026 1026 1026 1026 1026 
1026 1026 1026 1026 1026 1026 1026 1026 1026 
1026 1026 1026 1026 1026 1026 1026 1026 1026 
1026 1026 1026 1026 1026 1026 1026 1026 1026 
1026 1026 1026 1026 1026 1026 1026 1026 1026 
1026 1026 1026 1026 1026 1026 1026 1026 1026 
1026 1026 1026 1026 1026 1026 1026 1026 1026 
1026 1026 1026 1026 1026 1026 1026 1026 1026 
1026 1026 1026 1026 1026 1026 1026 1026 1026 
1026 1026 1026 1026 1026 1026 1026 1026 1026 
1026 1026 1026 1026 1026 1026 1026 1026 1026 
1026 1026 1026 1026 1026 1026 1026 1026 1026 
1026 1026 1026 1026 1026 1026 1026 1026 1026 
1026 1026 1026 1026 1026 1026 1026 1026 1026 
1026 1026 1026 1026 1026 1026 1026 1026 1026 
1026 1026 1026 1026 1026 1026 1026 1026 1026 
1026 1026 1026 1026 1026 1026 1026 1026 1026 
1026 1026 1026 1026 1026 1026 1026 1026 1026 
1026 1026 1026 1026 1026 1026 1026 1026 1026 
1026 1026 1026 1026 1026 1026 1026 1026 1026 
1026 1026 1026 1026 1026 1026 1026 1026 1026 
1026 1026 1026 1026 1026 1026 1026 1026 1026 
1026 1026 1026 1026 1026 1026 1026 1026 1026 
1026 1026 1026 1026 1026 1026 1026 1026 1026 
1026 1026 1026 1026 1026 1026 1026 1026 1026 
1026 1026 1026 1026 1026 1026 1026 1026 1026 
1026 1026 1026 1026 1026 1026 1026 1026 1026 
1026 1026 1026 1026 1026 1026 1026 1026 1026 
1026 1026 1026 1026 1026 1026 1026 1026 1026 
1026 1026 1026 1026 1026 1026 1026 1026 1026 
1026 1026 1026 1026 1026 1026 1026 1026 1026 
1026 1026 1026 1026 1026 1026 1026 1026 1026 
1026 1026 1026 1026 1026 1026 1026 1026 1026 
1026 1026 1026 1026 1026 1026 1026 1026 1026 
1026 1026 1026 1026 1026 1026 1026 1026 1026 
1026 1026 1026 1026 1026 1026 1026 1026 1026 
1026 1026 1026 1026 1026 1026 1026 1026 1026 
1026 1026 1026 1026 1026 1026 1026 1026 1026 
1026 1026 1026 1026 1026 1026 1026 1026 1026 
1026 1026 1026 1026 1026 1026 1026 1026 1026 
1026 1026 1026 1026 1026 1026 1026 1026 1026 
1026 1026 1026 1026 1026 1026 1026 1026 1026 
1026 1026 1026 1026 1026 1026 1026 1026 1026 
1026 1026 1026 1026 1026 1026 1026 1026 1026 
1026 1026 1026 1026 1026 1026 1026 1026 1026 
1026 1026 1026 1026 1026 1026 1026 1026 1026 
1026 1026 1026 1026 1026 1026 1026 1026 1026 
1026 1026 1026 1026 1026 1026 1026 1026 1026 
1026 1026 1026 1026 1026 1026 1026 1026 1026 
1026 1026 1026 1026 1026 1026 1026 1026 1026 
1026 1026 1026 1026 1026 1026 1026 1026 1026 
1026 1026 1026 1026 1026 1026 1026 1026 1026 
1026 1026 1026 1026 1026 1026 1026 1026 1026 
1026 1026 1026 1026 1026 1026 1026 1026 1026 
1026 1026 1026 1026 1026 1026 1026 1026 1026 
1026 1026 1026 1026 1026 1026 1026 1026 1026 
1026 1026 1026 1026 1026 1026 1026 1026 1026 
1026 1026 1026 1026 1026 1026 1026 1026 1026 
1026 1026 1026 1026 1026 1026 1026 1026 1026 
1026 1026 1026 1026 1026 1026 1026 1026 1026 
1026 1026 1026 1026 1026 1026 1026 1026 1026 
1026 1026 1026 1026 1026 1026 1026 1026 1026 
1026 1026 1026 1026 1026 1026 1026 1026 1026 
1026 1026 1026 1026 1026 1026 1026 1026 1026 
1026 1026 1026 1026 1026 1026 1026 1026 1026 
1026 1026 1026 1026 1026 1026 1026 1026 1026 
1026 1026 1026 1026 1026 1026 1026 1026 1026 
1026 1026 1026 1026 1026 1026 1026 1026 1026 
1026 1026 1026 1026 1026 1026 1026 1026 1026 
1026 1026 1026 1026 1026 1026 1026 1026 1026 
1026 1026 1026 1026 1026 1026 1026 1026 1026 
1026 1026 1026 1026 1026 1026 1026 1026 1026 
1026 1026 1026 1026 1026 1026 1026 1026 1026 
1026 1026 1026 1026 1026 1026 1026 1026 1026 
1026 1026 1026 1026 1026 1026 1026 1026 1026 
1026 1026 1026 1026 1026 1026 1026 1026 1026 
1026 1026 1026 1026 1026 1026 1026 1026 1026 
1026 1026 1026 1026 1026 1026 1026 1026 1026 
1026 1026 1026 1026 1026 1026 1026 1026 1026 
1026 1026 1026 1026 1026 1026 1026 1026 1026 
1026 1026 1026 1026 1026 1026 1026 1026 1026 
1026 1026 1026 1026 1026 1026 1026 1026 1026 
1026 1026 1026 1026 1026 1026 1026 1026 1026 
1026 1026 1026 1026 1026 1026 1026 1026 1026 
1026 1026 1026 1026 1026 1026 1026 1026 1026 
1026 1026 1026 1026 1026 1026 1026 1026 1026 
1026 1026 1026 1026 1026 1026 1026 1026 1026 
1026 1026 1026 1026 1026 1026 1026 1026 1026 
1026 1026 1026 1026 1026 1026 1026 1026 1026 
1026 1026 1026 1026 1026 1026 1026 1026 1026 
1026 1026 1026 1026 1026 1026 1026 1026 1026 
1026 1026 1026 1026 1026 1026 1026 1026 1026 
1026 1026 1026 1026 1026 1026 1026 1026 1026 
1026 1026 1026 1026 1026 1026 1026 1026 1026 
1026 1026 1026 1026 1026 1026 1026 1026 1026 
1026 1026 1026 1026 1026 1026 1026 1026 1026 
1026 1026 1026 1026 1026 1026 1026 1026 1026 
1026 1026 1026 1026 1026 1026 1026 1026 1026 
1026 1026 1026 1026 1026 1026 1026 1026 1026 
1026 1026 1026 1026 1026 1026 1026 1026 1026 
1026 1026 1026 1026 1026 1026 1026 1026 1026 
1026 1026 1026 1026 1026 1026 1026 1026 1026 
1026 1026 1026 1026 1026 1026 1026 1026 1026 
1026 1026 1026 1026 1026 1026 1026 1026 1026 
1026 1026 1026 1026 1026 1026 1026 1026 1026 
1026 1026 1026 1026 1026 1026 1026 1026 1026 
1026 1026 1026 1026 1026 1026 1026 1026 1026 
1026 1026 1026 1026 1026 1026 1026 1026 1026 
1026 1026 1026 1026 1026 1026 1026 1026 1026 
1026 1026 1026 1026 1026 1026 1026 1026 1026 
1026 1026 1026 1026 1026 1026 1026 1026 1026 
1026 1026 1026 1026 1026 1026 1026 1026 1026 
1026 1026 1026 1026 1026 1026 1026 1026 1026 
1026 1026 1026 1026 1026 1026 1026 1026 1026 
1026 1026 1026 1026 1026 1026 1026 1026 1026 
1026 1026 1026 1026 1026 1026 1026 1026 1026 
1026 1026 1026 1026 1026 1026 1026 1026 1026 
1026 1026 1026 1026 1026 1026 1026 1026 1026 
1026 1026 1026 1026 1026 1026 1026 1026 1026 
1026 1026 1026 1026 1026 1026 1026 1026 1026 
1026 1026 1026 1026 1026 1026 1026 1026 1026 
1026 1026 1026 1026 1026 1026 1026 1026 1026 
1026 1026 1026 1026 1026 1026 1026 1026 1026 
1026 1026 1026 1026 1026 1026 1026 1026 1026 
1026 1026 1026 1026 1026 1026 1026 1026 1026 
1026 1026 1026 1026 1026 1026 1026 1026 1026 
1026 1026 1026 1026 1026 1026 1026 1026 1026 
1026 1026 1026 1026 1026 1026 1026 1026 1026 
1026 1026 1026 1026 1026 1026 1026 1026 1026 
1026 1026 1026 1026 1026 1026 1026 1026 1026 
1026 1026 1026 1026 1026 1026 1026 1026 1026 
1026 1026 1026 1026 1026 1026 1026 1026 1026 
1026 1026 1026 1026 1026 1026 1026 1026 1026 
1026 1026 1026 1026 1026 1026 1026 1026 1026 
1026 1026 1026 1026 1026 1026 1026 1026 1026 
1026 1026 1026 1026 1026 1026 1026 1026 1026 
1026 1026 1026 1026 1026 1026 1026 1026 1026 
1026 1026 1026 1026 1026 1026 1026 1026 1026 
1026 1026 1026 1026 1026 1026 1026 1026 1026 
1026 1026 1026 1026 1026 1026 1026 1026 1026 
1026 1026 1026 1026 1026 1026 1026 1026 1026 
1026 1026 1026 1026 1026 1026 1026 1026 1026 
1026 1026 1026 1026 1026 1026 1026 1026 1026 
1026 1026 1026 1026 1026 1026 1026 1026 1026 
1026 1026 1026 1026 1026 1026 1026 1026 1026 
1026 1026 1026 1026 1026 1026 1026 1026 1026 
1026 1026 1026 1026 1026 1026 1026 1026 1026 
1026 1026 1026 1026 1026 1026 1026 1026 1026 
1026 1026 1026 1026 1026 1026 1026 1026 1026 
1026 1026 1026 1026 1026 1026 1026 1026 1026 
1026 1026 1026 1026 1026 1026 1026 1026 1026 
1026 1026 1026 1026 1026 1026 1026 1026 1026 
1026 1026 1026 1026 1026 1026 1026 1026 1026 
1026 1026 1026 1026 1026 1026 1026 1026 1026 
1026 1026 1026 1026 1026 1026 1026 1026 1026 
1026 1026 1026 1026 1026 1026 1026 1026 1026 
1026 1026 1026 1026 1026 1026 1026 1026 1026 
1026 1026 1026 1026 1026 1026 1026 1026 1026 
1026 1026 1026 1026 1026 1026 1026 1026 1026 
1026 1026 1026 1026 1026 1026 1026 1026 1026 
1026 1026 1026 1026 1026 1026 1026 1026 1026 
1026 1026 1026 1026 1026 1026 1026 1026 1026 
1026 1026 1026 1026 1026 1026 1026 1026 1026 
1026 1026 1026 1026 1026 1026 1026 1026 1026 
1026 1026 1026 1026 1026 1026 1026 1026 1026 
1026 1026 1026 1026 1026 1026 1026 1026 1026 
1026 1026 1026 1026 1026 1026 1026 1026 1026 
1026 1026 1026 1026 1026 1026 1026 1026 1026 
1026 1026 1026 1026 1026 1026 1026 1026 1026 
1026 1026 1026 1026 1026 1026 1026 1026 1026 
1026 1026 1026 1026 1026 1026 1026 1026 1026 
1026 1026 1026 1026 1026 1026 1026 1026 1026 
1026 1026 1026 1026 1026 1026 1026 1026 1026 
1026 1026 1026 1026 1026 1026 1026 1026 1026 
1026 1026 1026 1026 1026 1026 1026 1026 1026 
1026 1026 1026 1026 1026 1026 1026 1026 1026 
1026 1026 1026 1026 1026 1026 1026 1026 1026 
1026 1026 1026 1026 1026 1026 1026 1026 1026 
1026 1026 1026 1026 1026 1026 1026 1026 1026 
1026 1026 1026 1026 1026 1026 1026 1026 1026 
1026 1026 1026 1026 1026 1026 1026 1026 1026 
1026 1026 1026 1026 1026 1026 1026 1026 1026 
1026 1026 1026 1026 1026 1026 1026 1026 1026 
1026 1026 1026 1026 1026 1026 1026 1026 1026 
1026 1026 1026 1026 1026 1026 1026 1026 1026 
1026 1026 1026 1026 1026 1026 1026 1026 1026 
1026 1026 1026 1026 1026 1026 1026 1026 1026 
1026 1026 1026 1026 1026 1026 1026 1026 1026 
1026 1026 1026 1026 1026 1026 1026 1026 1026 
1026 1026 1026 1026 1026 1026 1026 1026 1026 
1026 1026 1026 1026 1026 1026 1026 1026 1026 
1026 1026 1026 1026 1026 1026 1026 1026 1026 
1026 1026 1026 1026 1026 1026 1026 1026 1026 
1026 1026 1026 1026 1026 1026 1026 1026 1026 
1026 1026 1026 1026 1026 1026 1026 1026 1026 
1026 1026 1026 1026 1026 1026 1026 1026 1026 
1026 1026 1026 1026 1026 1026 1026 1026 1026 
1026 1026 1026 1026 1026 1026 1026 1026 1026 
1026 1026 1026 1026 1026 1026 1026 1026 1026 
1026 1026 1026 1026 1026 1026 1026 1026 1026 
1026 1026 1026 1026 1026 1026 1026 1026 1026 
1026 1026 1026 1026 1026 1026 1026 1026 1026 
1026 1026 1026 1026 1026 1026 1026 1026 1026 
1026 1026 1026 1026 1026 1026 1026 1026 1026 
1026 1026 1026 1026 1026 1026 1026 1026 1026 
1026 1026 1026 1026 1026 1026 1026 1026 1026 
1026 1026 1026 1026 1026 1026 1026 1026 1026 
1026 1026 1026 1026 1026 1026 1026 1026 1026 
1026 1026 1026 1026 1026 1026 1026 1026 1026 
1026 1026 1026 1026 1026 1026 1026 1026 1026 
1026 1026 1026 1026 1026 1026 1026 1026 1026 
1026 1026 1026 1026 1026 1026 1026 1026 1026 
1026 1026 1026 1026 1026 1026 1026 1026 1026 
1026 1026 1026 1026 1026 1026 1026 1026 1026 
1026 1026 1026 1026 1026 1026 1026 1026 1026 
1026 1026 1026 1026 1026 1026 1026 1026 1026 
1026 1026 1026 1026 1026 1026 1026 1026 1026 
1026 1026 1026 1026 1026 1026 1026 1026 1026 
1026 1026 1026 1026 1026 1026 1026 1026 1026 
1026 1026 1026 1026 1026 1026 1026 1026 1026 
1026 1026 1026 1026 1026 1026 1026 1026 1026 
1026 1026 1026 1026 1026 1026 1026 1026 1026 
1026 1026 1026 1026 1026 1026 1026 1026 1026 
1026 1026 1026 1026 1026 1026 1026 1026 1026 
1026 1026 1026 1026 1026 1026 1026 1026 1026 
1026 1026 1026 1026 1026 1026 1026 1026 1026 
1026 1026 1026 1026 1026 1026 1026 1026 1026 
1026 1026 1026 1026 1026 1026 1026 1026 1026 
1026 1026 1026 1026 1026 1026 1026 1026 1026 
1026 1026 1026 1026 1026 1026 1026 1026 1026 
1026 1026 1026 1026 1026 1026 1026 1026 1026 
1026 1026 1026 1026 1026 1026 1026 1026 1026 
1026 1026 1026 1026 1026 1026 1026 1026 1026 
1026 1026 1026 1026 1026 1026 1026 1026 1026 
1026 1026 1026 1026 1026 1026 1026 1026 1026 
1026 1026 1026 1026 1026 1026 1026 1026 1026 
1026 1026 1026 1026 1026 1026 1026 1026 1026 
1026 1026 1026 1026 1026 1026 1026 1026 1026 
1026 1026 1026 1026 1026 1026 1026 1026 1026 
1026 1026 1026 1026 1026 1026 1026 1026 1026 
1026 1026 1026 1026 1026 1026 1026 1026 1026 
1026 1026 1026 1026 1026 1026 1026 1026 1026 
1026 1026 1026 1026 1026 1026 1026 1026 1026 
1026 1026 1026 1026 1026 1026 1026 1026 1026 
1026 1026 1026 1026 1026 1026 1026 1026 1026 
1026 1026 1026 1026 1026 1026 1026 1026 1026 
1026 1026 1026 1026 1026 1026 1026 1026 1026 
1026 1026 1026 1026 1026 1026 1026 1026 1026 
1026 1026 1026 1026 1026 1026 1026 1026 1026 
1026 1026 1026 1026 1026 1026 1026 1026 1026 
1026 1026 1026 1026 1026 1026 1026 1026 1026 
1026 1026 1026 1026 1026 1026 1026 1026 1026 
1026 1026 1026 1026 1026 1026 1026 1026 1026 
1026 1026 1026 1026 1026 1026 1026 1026 1026 
1026 1026 1026 1026 1026 1026 1026 1026 1026 
1026 1026 1026 1026 1026 1026 1026 1026 1026 
1026 1026 1026 1026 1026 1026 1026 1026 1026 
1026 1026 1026 1026 1026 1026 1026 1026 1026 
1026 1026 1026 1026 1026 1026 1026 1026 1026 
1026 1026 1026 1026 1026 1026 1026 1026 1026 
1026 1026 1026 1026 1026 1026 1026 1026 1026 
1026 1026 1026 1026 1026 1026 1026 1026 1026 
1026 1026 1026 1026 1026 1026 1026 1026 1026 
1026 1026 1026 1026 1026 1026 1026 1026 1026 
1026 1026 1026 1026 1026 1026 1026 1026 1026 
1026 1026 1026 1026 1026 1026 1026 1026 1026 
1026 1026 1026 1026 1026 1026 1026 1026 1026 
1026 1026 1026 1026 1026 1026 1026 1026 1026 
1026 1026 1026 1026 1026 1026 1026 1026 1026 
1026 1026 1026 1026 1026 1026 1026 1026 1026 
1026 1026 1026 1026 1026 1026 1026 1026 1026 
1026 1026 1026 1026 1026 1026 1026 1026 1026 
1026 1026 1026 1026 1026 1026 1026 1026 1026 
1026 1026 1026 1026 1026 1026 1026 1026 1026 
1026 1026 1026 1026 1026 1026 1026 1026 1026 
1026 1026 1026 1026 1026 1026 1026 1026 1026 
1026 1026 1026 1026 1026 1026 1026 1026 1026 
1026 1026 1026 1026 1026 1026 1026 1026 1026 
1026 1026 1026 1026 1026 1026 1026 1026 1026 
1026 1026 1026 1026 1026 1026 1026 1026 1026 
1026 1026 1026 1026 1026 1026 1026 1026 1026 
1026 1026 1026 1026 1026 1026 1026 1026 1026 
1026 1026 1026 1026 1026 1026 1026 1026 1026 
1026 1026 1026 1026 1026 1026 1026 1026 1026 
1026 1026 1026 1026 1026 1026 1026 1026 1026 
1026 1026 1026 1026 1026 1026 1026 1026 1026 
1026 1026 1026 1026 1026 1026 1026 1026 1026 
1026 1026 1026 1026 1026 1026 1026 1026 1026 
1026 1026 1026 1026 1026 1026 1026 1026 1026 
1026 1026 1026 1026 1026 1026 1026 1026 1026 
1026 1026 1026 1026 1026 1026 1026 1026 1026 
1026 1026 1026 1026 1026 1026 1026 1026 1026 
1026 1026 1026 1026 1026 1026 1026 1026 1026 
1026 1026 1026 1026 1026 1026 1026 1026 1026 
1026 1026 1026 1026 1026 1026 1026 1026 1026 
1026 1026 1026 1026 1026 1026 1026 1026 1026 
1026 1026 1026 1026 1026 1026 1026 1026 1026 
1026 1026 1026 1026 1026 1026 1026 1026 1026 
1026 1026 1026 1026 1026 1026 1026 1026 1026 
1026 1026 1026 1026 1026 1026 1026 1026 1026 
1026 1026 1026 1026 1026 1026 1026 1026 1026 
1026 1026 1026 1026 1026 1026 1026 1026 1026 
1026 1026 1026 1026 1026 1026 1026 1026 1026 
1026 1026 1026 1026 1026 1026 1026 1026 1026 
1026 1026 1026 1026 1026 1026 1026 1026 1026 
1026 1026 1026 1026 1026 1026 1026 1026 1026 
1026 1026 1026 1026 1026 1026 1026 1026 1026 
1026 1026 1026 1026 1026 1026 1026 1026 1026 
1026 1026 1026 1026 1026 1026 1026 1026 1026 
1026 1026 1026 1026 1026 1026 1026 1026 1026 
1026 1026 1026 1026 1026 1026 1026 1026 1026 
1026 1026 1026 1026 1026 1026 1026 1026 1026 
1026 1026 1026 1026 1026 1026 1026 1026 1026 
1026 1026 1026 1026 1026 1026 1026 1026 1026 
1026 1026 1026 1026 1026 1026 1026 1026 1026 
1026 1026 1026 1026 1026 1026 1026 1026 1026 
1026 1026 1026 1026 1026 1026 1026 1026 1026 
1026 1026 1026 1026 1026 1026 1026 1026 1026 
1026 1026 1026 1026 1026 1026 1026 1026 1026 
1026 1026 1026 1026 1026 1026 1026 1026 1026 
1026 1026 1026 1026 1026 1026 1026 1026 1026 
1026 1026 1026 1026 1026 1026 1026 1026 1026 
1026 1026 1026 1026 1026 1026 1026 1026 1026 
1026 1026 1026 1026 1026 1026 1026 1026 1026 
1026 1026 1026 1026 1026 1026 1026 1026 1026 
1026 1026 1026 1026 1026 1026 1026 1026 1026 
1026 1026 1026 1026 1026 1026 1026 1026 1026 
1026 1026 1026 1026 1026 1026 1026 1026 1026 
1026 1026 1026 1026 1026 1026 1026 1026 1026 
1026 1026 1026 1026 1026 1026 1026 1026 1026 
1026 1026 1026 1026 1026 1026 1026 1026 1026 
1026 1026 1026 1026 1026 1026 1026 1026 1026 
1026 1026 1026 1026 1026 1026 1026 1026 1026 
1026 1026 1026 1026 1026 1026 1026 1026 1026 
1026 1026 1026 1026 1026 1026 1026 1026 1026 
1026 1026 1026 1026 1026 1026 1026 1026 1026 
1026 1026 1026 1026 1026 1026 1026 1026 1026 
1026 1026 1026 1026 1026 1026 1026 1026 1026 
1026 1026 1026 1026 1026 1026 1026 1026 1026 
1026 1026 1026 1026 1026 1026 1026 1026 1026 
1026 1026 1026 1026 1026 1026 1026 1026 1026 
1026 1026 1026 1026 1026 1026 1026 1026 1026 
1026 1026 1026 1026 1026 1026 1026 1026 1026 
1026 1026 1026 1026 1026 1026 1026 1026 1026 
1026 1026 1026 1026 1026 1026 1026 1026 1026 
1026 1026 1026 1026 1026 1026 1026 1026 1026 
1026 1026 1026 1026 1026 1026 1026 1026 1026 
1026 1026 1026 1026 1026 1026 1026 1026 1026 
1026 1026 1026 1026 1026 1026 1026 1026 1026 
1026 1026 1026 1026 1026 1026 1026 1026 1026 
1026 1026 1026 1026 1026 1026 1026 1026 1026 
1026 1026 1026 1026 1026 1026 1026 1026 1026 
1026 1026 1026 1026 1026 1026 1026 1026 1026 
1026 1026 1026 1026 1026 1026 1026 1026 1026 
1026 1026 1026 1026 1026 1026 1026 1026 1026 
1026 1026 1026 1026 1026 1026 1026 1026 1026 
1026 1026 1026 1026 1026 1026 1026 1026 1026 
1026 1026 1026 1026 1026 1026 1026 1026 1026 
1026 1026 1026 1026 1026 1026 1026 1026 1026 
1026 1026 1026 1026 1026 1026 1026 1026 1026 
1026 1026 1026 1026 1026 1026 1026 1026 1026 
1026 1026 1026 1026 1026 1026 1026 1026 1026 
1026 1026 1026 1026 1026 1026 1026 1026 1026 
1026 1026 1026 1026 1026 1026 1026 1026 1026 
1026 1026 1026 1026 1026 1026 1026 1026 1026 
1026 1026 1026 1026 1026 1026 1026 1026 1026 
1026 1026 1026 1026 1026 1026 1026 1026 1026 
1026 1026 1026 1026 1026 1026 1026 1026 1026 
1026 1026 1026 1026 1026 1026 1026 1026 1026 
1026 1026 1026 1026 1026 1026 1026 1026 1026 
1026 1026 1026 1026 1026 1026 1026 1026 1026 
1026 1026 1026 1026 1026 1026 1026 1026 1026 
1026 1026 1026 1026 1026 1026 1026 1026 1026 
1026 1026 1026 1026 1026 1026 1026 1026 1026 
1026 1026 1026 1026 1026 1026 1026 1026 1026 
1026 1026 1026 1026 1026 1026 1026 1026 1026 
1026 1026 1026 1026 1026 1026 1026 1026 1026 
1026 1026 1026 1026 1026 1026 1026 1026 1026 
1026 1026 1026 1026 1026 1026 1026 1026 1026 
1026 1026 1026 1026 1026 1026 1026 1026 1026 
1026 1026 1026 1026 1026 1026 1026 1026 1026 
1026 1026 1026 1026 1026 1026 1026 1026 1026 
1026 1026 1026 1026 1026 1026 1026 1026 1026 
1026 1026 1026 1026 1026 1026 1026 1026 1026 