# vtk DataFile Version 4.2
vtk output
ASCII
DATASET POLYDATA
POINTS 2942 float
-3.02949 10.5086 53.7264 -3.36084 10.7599 53.4754 -3.68285 10.3509 53.3852 
-2.48854 10.4049 53.7199 -2.58216 10.8635 53.5478 -1.90426 10.3846 53.3507 
-3.07586 10.1131 53.3275 -2.34306 10.1532 53.4734 -3.16604 17.3138 52.8496 
-3.27032 17.9219 52.5191 -3.83692 17.5431 52.5149 -2.07316 17.3847 52.891 
-2.59885 18.0496 52.5292 -1.28467 17.2861 52.7838 -1.62969 17.9879 52.5326 
-0.934512 17.5975 52.456 -5.18207 16.3013 52.8385 -5.25062 16.9005 52.5306 
-5.81541 16.5019 52.5036 -4.08513 16.5808 52.8898 -4.66122 17.1005 52.5232 
-3.18698 16.3655 53.0103 -2.30368 16.5022 53.0344 -1.20402 16.4123 52.9307 
-0.679922 16.7845 52.555 -6.14885 15.4466 52.8419 -6.49286 15.9472 52.4398 
-6.94075 15.3669 52.585 -5.20044 15.353 52.9961 -4.35031 15.5134 52.9967 
-3.35134 15.5162 52.9989 -2.34301 15.5015 53.0296 -1.30897 15.4559 53.0406 
-0.40365 15.9978 52.6299 -0.415514 15.3584 52.8284 0.0466799 15.5956 52.263 
-8.2054 14.2655 52.8488 -8.29317 14.8747 52.4971 -8.97464 14.2565 52.2756 
-7.07842 14.5635 52.8914 -7.66721 15.0876 52.5349 -6.17495 14.3638 52.9854 
-5.34827 14.5057 52.9907 -4.35668 14.5082 52.9898 -3.3486 14.4978 52.9754 
-2.3223 14.4836 52.9857 -1.28503 14.4495 53.0153 -0.385186 14.4494 52.8961 
0.248749 14.6953 52.3357 -9.06502 13.5671 52.7842 -9.44196 13.7799 52.5236 
-9.50862 13.5062 52.5261 -8.22523 13.2992 53.0765 -7.33457 13.469 53.0578 
-6.31608 13.4894 53.0044 -5.32112 13.4788 52.9752 -4.31299 13.493 52.9522 
-3.3024 13.4832 52.9424 -2.29087 13.4693 52.9558 -1.24765 13.4465 52.9981 
-0.170372 13.3724 52.9289 0.352898 13.749 52.5532 -9.09064 13.1027 52.3305 
-8.59587 12.5469 52.3117 -8.42849 12.5818 52.8583 -7.40721 12.4193 53.0896 
-6.31934 12.4088 53.0443 -5.27767 12.4319 52.9794 -4.26624 12.4568 52.9525 
-3.24475 12.4618 52.9562 -2.24472 12.4576 52.9552 -1.24716 12.462 52.9918 
-0.232574 12.4245 53.0309 0.638491 13.0015 52.6373 0.636527 12.3431 52.8455 
1.08812 12.6155 52.2973 -8.0597 12.0722 52.315 -7.57247 11.5464 52.3487 
-7.55996 11.7078 52.8444 -6.4549 11.3987 52.9229 -5.31974 11.3963 53.0013 
-4.42078 11.5782 52.9861 -3.38022 11.4375 53.1274 -2.1633 11.3778 53.1284 
-1.19852 11.441 53.0137 -0.391314 11.6018 53.0295 0.456166 11.3589 52.8902 
1.1076 11.5856 52.3244 -6.97213 11.2167 52.4434 -6.1272 10.8718 52.3733 
-5.58079 10.5223 52.2885 -5.51796 10.6762 52.7801 -4.36017 10.6634 53.019 
-1.13885 10.4172 53.09 -0.2334 10.5269 52.9408 0.423676 10.3203 52.5112 
0.854629 10.8225 52.4121 -4.97602 10.2218 52.4236 -4.0866 10.0597 52.7236 
-3.28934 9.78953 52.4051 -2.26358 9.82511 52.8846 -1.35454 9.67497 52.9064 
-1.81811 9.3432 52.3933 -0.559807 9.56222 52.8297 0.0345777 9.63924 52.5546 
-1.04352 9.0711 52.2877 -0.249478 9.13508 52.3078 -3.22158 18.3459 52.0211 
-3.22011 18.8793 51.5123 -3.8046 18.5011 51.5012 -2.03936 18.5641 52.0113 
-2.40041 19.0252 51.3788 -0.954371 18.3564 52.0171 -1.23836 18.925 51.3757 
-0.194694 18.2845 51.7522 -0.432533 18.7826 51.4846 0.0581187 18.5234 51.2394 
-5.2207 17.291 52.0129 -5.292 17.6854 51.2561 -5.75486 17.2983 51.5151 
-4.22457 17.7732 52.0163 -4.64766 18.0185 51.3095 -0.319154 17.3738 52.0411 
0.160851 17.7513 51.3498 -7.20292 16.3883 51.8157 -7.32388 16.8281 51.1556 
-7.87938 16.3512 51.5929 -6.28409 16.6209 52.0237 -6.39977 16.9975 51.3769 
-0.169184 16.3444 52.2229 0.142253 16.532 51.529 -8.19198 15.4804 52.0088 
-8.32494 16.0285 51.5535 -8.84096 15.5212 51.521 -7.13508 15.7809 52.2216 
0.352373 15.4586 51.4023 -9.14245 14.736 51.7773 -9.34208 14.9851 51.4881 
-9.56607 14.482 51.3669 0.668386 14.7569 51.592 0.773882 14.0942 51.9519 
0.997382 14.4547 51.2568 -9.35211 13.6221 52.2403 -9.28424 14.0456 51.6232 
-8.99805 13.4235 51.654 0.867993 13.3438 52.2158 1.16469 13.5581 51.4876 
-8.52272 12.7702 51.6992 -8.29576 12.4517 51.947 -7.92793 12.2796 51.5151 
1.287 12.4498 51.5245 -9.06402 11.1962 51.8122 -9.32196 11.7611 51.5575 
-9.64755 11.3699 51.5516 -8.84795 11.6365 51.4682 -7.47421 11.764 51.7039 
-7.12174 11.3965 51.9005 -6.85643 11.3088 51.3603 1.27868 11.5783 51.3932 
-9.31218 10.6593 51.8309 -9.66993 10.6786 51.3309 -8.41169 11.0131 51.5955 
-8.62436 10.4563 51.7818 -7.92143 10.3255 51.2782 -6.31676 10.9528 51.6447 
-5.54343 10.6793 51.7171 -5.12902 10.3667 51.8673 -4.88054 10.2743 51.3748 
0.731397 10.2056 51.9745 1.12343 10.609 51.4761 -8.9804 10.145 51.4944 
-8.38779 10.0375 51.4542 -4.28595 9.86936 51.7833 -3.38021 9.48287 51.7671 
-3.86285 9.32644 51.2644 -2.60478 9.40854 52.06 0.359184 9.3664 51.6246 
0.833362 9.78293 51.3687 -3.18747 9.09621 51.3113 -2.09411 8.89395 51.5612 
-1.0827 8.72202 51.5594 -0.350606 8.81578 51.6037 -3.21009 19.2828 50.9988 
-3.38417 19.7933 50.4473 -3.90575 19.2959 50.5912 -2.22052 19.431 50.8249 
-2.35048 19.9641 50.2861 -1.6757 19.5493 50.2952 -4.13708 18.71 50.9261 
-4.32302 18.9467 50.5127 -4.69164 18.5295 50.5525 -1.33104 19.1844 50.6004 
-0.379835 18.893 50.7677 0.157415 18.3749 50.4826 -5.21723 18.0615 50.5388 
-5.74785 17.5687 50.6168 0.26338 17.4597 50.4968 -8.38355 16.3553 51.1392 
-8.03587 16.8298 50.333 -8.83416 16.3794 50.5404 -7.11206 16.9998 50.3098 
-6.39844 17.1362 50.4817 0.240011 16.4351 50.4972 -9.36084 15.4875 51.0217 
-9.48852 15.9832 50.1786 -9.94139 15.3926 50.595 0.434449 15.7351 50.3074 
-10.0697 14.5505 50.888 -10.4283 15.1026 50.3966 -10.686 14.4119 50.3784 
0.748677 15.0691 50.8114 1.13894 14.5758 50.3863 -10.2127 13.5308 50.7644 
-10.6759 13.598 50.1532 -9.45601 13.5338 51.1504 1.29573 13.5064 50.4697 
-10.1324 12.9605 50.3424 -9.91443 12.3956 50.3859 -9.4555 12.3172 51.036 
-8.41486 12.5352 51.1267 1.2951 12.4592 50.4812 -10.1484 11.4982 50.8237 
-10.2421 11.8869 50.3677 -10.5322 11.4765 50.4487 -8.10886 11.437 51.1465 
-7.33696 11.533 51.0947 1.28953 11.4443 50.4728 -10.3747 11.2569 50.4696 
-9.77231 10.9278 50.5567 -9.20475 10.2944 50.9208 -8.95563 10.498 50.3731 
-7.25656 10.58 50.9928 -6.40359 10.3272 50.9076 -5.3564 10.3161 51.1264 
1.25681 10.5815 50.3333 -8.31827 9.92405 50.8125 -7.30124 9.66903 50.7525 
-7.67871 9.48603 50.3613 -6.82207 9.48605 50.5011 -6.25691 9.69742 50.4073 
-5.66674 9.49894 50.3149 -5.43405 9.65568 50.6888 -4.60083 9.58466 50.9701 
0.755705 9.36821 51.004 1.01772 9.73273 50.5958 -7.24921 9.22928 50.4035 
-5.01915 9.22302 50.4827 -4.19107 9.1006 50.6033 -3.15002 8.94071 50.5419 
-2.36084 8.47456 50.8705 -2.75692 8.55878 50.3694 -1.52566 8.41636 51.0659 
-0.596363 8.38885 50.9864 0.139631 8.52238 50.4516 0.628424 9.14399 50.5029 
-2.21967 8.07469 50.3055 -1.11917 8.14957 50.6136 -0.408924 7.87752 50.2132 
-4.0747 20.4869 49.7519 -4.30937 21.014 49.3041 -4.6266 20.3978 49.3508 
-3.18674 20.3674 49.9988 -3.57836 21.0185 49.4996 -2.35758 20.4773 49.8927 
-2.61567 20.9135 49.53 -1.90206 20.5403 49.5568 -4.30487 19.5421 50.084 
-4.94992 19.5605 49.384 -1.08322 19.396 49.8567 -1.25063 19.96 49.4474 
-0.651173 19.4995 49.2646 -5.09864 18.7224 49.901 -5.34488 19.035 49.2492 
-5.58184 18.3115 49.5206 -0.389759 19.0276 49.7937 0.157089 18.5099 49.3949 
-5.93382 17.5967 49.5193 0.230855 17.434 49.4983 -8.00742 16.7556 49.302 
-8.70337 16.4954 49.813 -7.40771 16.9674 49.6147 -6.57561 17.1442 49.4039 
0.298518 16.3342 49.3362 -10.2061 15.6089 50.0987 -10.2281 15.8352 49.275 
-10.828 15.1468 49.7329 -9.10718 16.1071 49.2768 0.624763 15.758 49.6063 
0.808747 15.36 50.0404 1.0008 15.1653 49.3311 -10.9815 14.2874 49.7644 
-6.16655 14.2969 49.876 -6.88544 14.396 49.6415 -6.50801 14.8114 49.2795 
-5.62878 15.0234 49.3739 -5.08561 14.3885 49.9171 -4.58969 15.0692 49.5611 
-4.02515 14.4011 49.9462 -3.51902 15.0573 49.5551 -2.96605 14.3575 49.9192 
-2.51994 14.7794 49.401 -2.19792 14.1992 49.7989 -1.99665 14.2346 49.4504 
1.26093 14.3539 49.5587 -10.731 13.7027 49.3501 -8.13841 13.3116 49.7975 
-8.90005 13.3544 49.5367 -8.48686 13.8101 49.171 -7.62777 14.1064 49.3476 
-7.03451 13.6083 49.9234 -6.17097 13.3811 50.0332 -5.32276 13.4972 50.0483 
-4.2845 13.4903 50.0697 -3.39651 13.6248 50.075 -2.53443 13.3913 49.8802 
-2.00861 13.6866 49.6056 1.27213 13.4879 49.4299 -10.3422 13.208 49.6969 
-9.68204 13.0463 49.6599 -9.27582 12.4043 49.9578 -8.16436 12.3735 49.9539 
-7.30945 12.5469 49.9898 -6.33453 12.5375 50.0068 -5.33224 12.4921 50.0255 
-4.29006 12.4529 50.0466 -3.2564 12.5562 49.9383 -2.63304 12.6141 49.3629 
-2.2624 13.1938 49.3605 1.26955 12.4422 49.4274 -10.1147 11.5238 50.222 
-9.18741 11.2404 50.0552 -8.33321 11.4744 49.9087 -7.35677 11.4941 49.9338 
-6.34433 11.4691 49.9527 -5.30084 11.459 49.9609 -4.24681 11.4167 49.9899 
-3.33432 11.4366 49.8644 -2.82392 11.6899 49.3577 1.26495 11.395 49.4553 
-8.19899 10.3314 50.085 -7.49023 10.5917 49.9126 -6.35541 10.2289 50.0162 
-5.29356 10.382 49.9307 -4.25295 10.4061 49.9394 -3.34603 10.4155 49.84 
-2.81776 10.6522 49.3407 1.06984 10.3599 49.5698 -7.16701 9.66325 50.1459 
-5.19216 9.48328 50.1274 -4.26351 9.50527 50.0812 -3.47859 9.61747 49.9719 
-2.9365 9.39 49.6126 0.801896 9.55298 49.8977 0.439343 9.29447 49.4976 
0.681046 9.98176 49.2917 -3.45419 8.86704 49.1526 -3.72906 8.37114 49.3602 
-3.0772 8.48826 49.8744 -1.26207 8.19986 49.894 -1.48573 8.40247 49.4807 
-1.29224 8.59902 49.4756 -1.09041 8.38617 49.479 0.270364 8.55138 49.2978 
-3.10029 7.92078 49.4102 -2.51487 7.52092 49.7338 -2.59841 7.44962 49.3414 
-1.97442 7.79931 49.5056 -0.599783 7.74228 49.4667 -0.223466 7.3436 49.7687 
0.0427561 7.66666 49.5687 -2.37692 7.30874 49.4799 -0.189543 7.23418 49.4801 
-3.09574 22.3015 48.8154 -3.53616 22.8483 48.2072 -3.92081 22.3901 48.5371 
-1.97319 22.3394 48.8916 -2.43513 23.0387 48.2837 -1.23566 22.2508 48.7888 
-1.50224 22.7652 48.5771 -1.00058 22.5145 48.3133 -3.98434 21.7149 48.938 
-4.32701 22.0526 48.4991 -4.71926 21.3178 48.5765 -3.1363 21.5144 49.1745 
-2.19471 21.4243 49.1347 -1.35384 21.5037 48.8846 -0.732864 21.7534 48.31 
-5.02312 20.28 48.7197 -1.41703 20.7162 49.0884 -0.738757 20.6853 48.6082 
-5.24145 19.6126 48.832 -5.44623 19.9039 48.3686 -5.71549 19.1103 48.5923 
-0.171469 19.3021 48.9865 -0.425561 19.8751 48.6962 0.0947251 19.5146 48.3255 
[...]
CELL_DATA 5880
SCALARS scalars float
LOOKUP_TABLE default
2002 2002 2002 2002 2002 2002 2002 2002 2002 
2002 2002 2002 2002 2002 2002 2002 2002 2002 
2002 2002 2002 2002 2002 2002 2002 2002 2002 
2002 2002 2002 2002 2002 2002 2002 2002 2002 
2002 2002 2002 2002 2002 2002 2002 2002 2002 
2002 2002 2002 2002 2002 2002 2002 2002 2002 
2002 2002 2002 2002 2002 2002 2002 2002 2002 
2002 2002 2002 2002 2002 2002 2002 2002 2002 
2002 2002 2002 2002 2002 2002 2002 2002 2002 
2002 2002 2002 2002 2002 2002 2002 2002 2002 
2002 2002 2002 2002 2002 2002 2002 2002 2002 
2002 2002 2002 2002 2002 2002 2002 2002 2002 
2002 2002 2002 2002 2002 2002 2002 2002 2002 
2002 2002 2002 2002 2002 2002 2002 2002 2002 
2002 2002 2002 2002 2002 2002 2002 2002 2002 
2002 2002 2002 2002 2002 2002 2002 2002 2002 
2002 2002 2002 2002 2002 2002 2002 2002 2002 
2002 2002 2002 2002 2002 2002 2002 2002 2002 
2002 2002 2002 2002 2002 2002 2002 2002 2002 
2002 2002 2002 2002 2002 2002 2002 2002 2002 
2002 2002 2002 2002 2002 2002 2002 2002 2002 
2002 2002 2002 2002 2002 2002 2002 2002 2002 
2002 2002 2002 2002 2002 2002 2002 2002 2002 
2002 2002 2002 2002 2002 2002 2002 2002 2002 
2002 2002 2002 2002 2002 2002 2002 2002 2002 
2002 2002 2002 2002 2002 2002 2002 2002 2002 
2002 2002 2002 2002 2002 2002 2002 2002 2002 
2002 2002 2002 2002 2002 2002 2002 2002 2002 
2002 2002 2002 2002 2002 2002 2002 2002 2002 
2002 2002 2002 2002 2002 2002 2002 2002 2002 
2002 2002 2002 2002 2002 2002 2002 2002 2002 
2002 2002 2002 2002 2002 2002 2002 2002 2002 
2002 2002 2002 2002 2002 2002 2002 2002 2002 
2002 2002 2002 2002 2002 2002 2002 2002 2002 
2002 2002 2002 2002 2002 2002 2002 2002 2002 
2002 2002 2002 2002 2002 2002 2002 2002 2002 
2002 2002 2002 2002 2002 2002 2002 2002 2002 
2002 2002 2002 2002 2002 2002 2002 2002 2002 
2002 2002 2002 2002 2002 2002 2002 2002 2002 
2002 2002 2002 2002 2002 2002 2002 2002 2002 
2002 2002 2002 2002 2002 2002 2002 2002 2002 
2002 2002 2002 2002 2002 2002 2002 2002 2002 
2002 2002 2002 2002 2002 2002 2002 2002 2002 
2002 2002 2002 2002 2002 2002 2002 2002 2002 
2002 2002 2002 2002 2002 2002 2002 2002 2002 
2002 2002 2002 2002 2002 2002 2002 2002 2002 
2002 2002 2002 2002 2002 2002 2002 2002 2002 
2002 2002 2002 2002 2002 2002 2002 2002 2002 
2002 2002 2002 2002 2002 2002 2002 2002 2002 
2002 2002 2002 2002 2002 2002 2002 2002 2002 
2002 2002 2002 2002 2002 2002 2002 2002 2002 
2002 2002 2002 2002 2002 2002 2002 2002 2002 
2002 2002 2002 2002 2002 2002 2002 2002 2002 
2002 2002 2002 2002 2002 2002 2002 2002 2002 
2002 2002 2002 2002 2002 2002 2002 2002 2002 
2002 2002 2002 2002 2002 2002 2002 2002 2002 
2002 2002 2002 2002 2002 2002 2002 2002 2002 
2002 2002 2002 2002 2002 2002 2002 2002 2002 
2002 2002 2002 2002 2002 2002 2002 2002 2002 
2002 2002 2002 2002 2002 2002 2002 2002 2002 
2002 2002 2002 2002 2002 2002 2002 2002 2002 
2002 2002 2002 2002 2002 2002 2002 2002 2002 
2002 2002 2002 2002 2002 2002 2002 2002 2002 
2002 2002 2002 2002 2002 2002 2002 2002 2002 
2002 2002 2002 2002 2002 2002 2002 2002 2002 
2002 2002 2002 2002 2002 2002 2002 2002 2002 
2002 2002 2002 2002 2002 2002 2002 2002 2002 
2002 2002 2002 2002 2002 2002 2002 2002 2002 
2002 2002 2002 2002 2002 2002 2002 2002 2002 
2002 2002 2002 2002 2002 2002 2002 2002 2002 
2002 2002 2002 2002 2002 2002 2002 2002 2002 
2002 2002 2002 2002 2002 2002 2002 2002 2002 
2002 2002 2002 2002 2002 2002 2002 2002 2002 
2002 2002 2002 2002 2002 2002 2002 2002 2002 
2002 2002 2002 2002 2002 2002 2002 2002 2002 
2002 2002 2002 2002 2002 2002 2002 2002 2002 
2002 2002 2002 2002 2002 2002 2002 2002 2002 
2002 2002 2002 2002 2002 2002 2002 2002 2002 
2002 2002 2002 2002 2002 2002 2002 2002 2002 
2002 2002 2002 2002 2002 2002 2002 2002 2002 
2002 2002 2002 2002 2002 2002 2002 2002 2002 
2002 2002 2002 2002 2002 2002 2002 2002 2002 
2002 2002 2002 2002 2002 2002 2002 2002 2002 
2002 2002 2002 2002 2002 2002 2002 2002 2002 
2002 2002 2002 2002 2002 2002 2002 2002 2002 
2002 2002 2002 2002 2002 2002 2002 2002 2002 
2002 2002 2002 2002 2002 2002 2002 2002 2002 
2002 2002 2002 2002 2002 2002 2002 2002 2002 
2002 2002 2002 2002 2002 2002 2002 2002 2002 
2002 2002 2002 2002 2002 2002 2002 2002 2002 
2002 2002 2002 2002 2002 2002 2002 2002 2002 
2002 2002 2002 2002 2002 2002 2002 2002 2002 
2002 2002 2002 2002 2002 2002 2002 2002 2002 
2002 2002 2002 2002 2002 2002 2002 2002 2002 
2002 2002 2002 2002 2002 2002 2002 2002 2002 
2002 2002 2002 2002 2002 2002 2002 2002 2002 
2002 2002 2002 2002 2002 2002 2002 2002 2002 
2002 2002 2002 2002 2002 2002 2002 2002 2002 
2002 2002 2002 2002 2002 2002 2002 2002 2002 
2002 2002 2002 2002 2002 2002 2002 2002 2002 
2002 2002 2002 2002 2002 2002 2002 2002 2002 
2002 2002 2002 2002 2002 2002 2002 2002 2002 
2002 2002 2002 2002 2002 2002 2002 2002 2002 
2002 2002 2002 2002 2002 2002 2002 2002 2002 
2002 2002 2002 2002 2002 2002 2002 2002 2002 
2002 2002 2002 2002 2002 2002 2002 2002 2002 
2002 2002 2002 2002 2002 2002 2002 2002 2002 
2002 2002 2002 2002 2002 2002 2002 2002 2002 
2002 2002 2002 2002 2002 2002 2002 2002 2002 
2002 2002 2002 2002 2002 2002 2002 2002 2002 
2002 2002 2002 2002 2002 2002 2002 2002 2002 
2002 2002 2002 2002 2002 2002 2002 2002 2002 
2002 2002 2002 2002 2002 2002 2002 2002 2002 
2002 2002 2002 2002 2002 2002 2002 2002 2002 
2002 2002 2002 2002 2002 2002 2002 2002 2002 
2002 2002 2002 2002 2002 2002 2002 2002 2002 
2002 2002 2002 2002 2002 2002 2002 2002 2002 
2002 2002 2002 2002 2002 2002 2002 2002 2002 
2002 2002 2002 2002 2002 2002 2002 2002 2002 
2002 2002 2002 2002 2002 2002 2002 2002 2002 
2002 2002 2002 2002 2002 2002 2002 2002 2002 
2002 2002 2002 2002 2002 2002 2002 2002 2002 
2002 2002 2002 2002 2002 2002 2002 2002 2002 
2002 2002 2002 2002 2002 2002 2002 2002 2002 
2002 2002 2002 2002 2002 2002 2002 2002 2002 
2002 2002 2002 2002 2002 2002 2002 2002 2002 
2002 2002 2002 2002 2002 2002 2002 2002 2002 
2002 2002 2002 2002 2002 2002 2002 2002 2002 
2002 2002 2002 2002 2002 2002 2002 2002 2002 
2002 2002 2002 2002 2002 2002 2002 2002 2002 
2002 2002 2002 2002 2002 2002 2002 2002 2002 
2002 2002 2002 2002 2002 2002 2002 2002 2002 
2002 2002 2002 2002 2002 2002 2002 2002 2002 
2002 2002 2002 2002 2002 2002 2002 2002 2002 
2002 2002 2002 2002 2002 2002 2002 2002 2002 
2002 2002 2002 2002 2002 2002 2002 2002 2002 
2002 2002 2002 2002 2002 2002 2002 2002 2002 
2002 2002 2002 2002 2002 2002 2002 2002 2002 
2002 2002 2002 2002 2002 2002 2002 2002 2002 
2002 2002 2002 2002 2002 2002 2002 2002 2002 
2002 2002 2002 2002 2002 2002 2002 2002 2002 
2002 2002 2002 2002 2002 2002 2002 2002 2002 
2002 2002 2002 2002 2002 2002 2002 2002 2002 
2002 2002 2002 2002 2002 2002 2002 2002 2002 
2002 2002 2002 2002 2002 2002 2002 2002 2002 
2002 2002 2002 2002 2002 2002 2002 2002 2002 
2002 2002 2002 2002 2002 2002 2002 2002 2002 
2002 2002 2002 2002 2002 2002 2002 2002 2002 
2002 2002 2002 2002 2002 2002 2002 2002 2002 
2002 2002 2002 2002 2002 2002 2002 2002 2002 
2002 2002 2002 2002 2002 2002 2002 2002 2002 
2002 2002 2002 2002 2002 2002 2002 2002 2002 
2002 2002 2002 2002 2002 2002 2002 2002 2002 
2002 2002 2002 2002 2002 2002 2002 2002 2002 
2002 2002 2002 2002 2002 2002 2002 2002 2002 
2002 2002 2002 2002 2002 2002 2002 2002 2002 
2002 2002 2002 2002 2002 2002 2002 2002 2002 
2002 2002 2002 2002 2002 2002 2002 2002 2002 
2002 2002 2002 2002 2002 2002 2002 2002 2002 
2002 2002 2002 2002 2002 2002 2002 2002 2002 
2002 2002 2002 2002 2002 2002 2002 2002 2002 
2002 2002 2002 2002 2002 2002 2002 2002 2002 
2002 2002 2002 2002 2002 2002 2002 2002 2002 
2002 2002 2002 2002 2002 2002 2002 2002 2002 
2002 2002 2002 2002 2002 2002 2002 2002 2002 
2002 2002 2002 2002 2002 2002 2002 2002 2002 
2002 2002 2002 2002 2002 2002 2002 2002 2002 
2002 2002 2002 2002 2002 2002 2002 2002 2002 
2002 2002 2002 2002 2002 2002 2002 2002 2002 
2002 2002 2002 2002 2002 2002 2002 2002 2002 
2002 2002 2002 2002 2002 2002 2002 2002 2002 
2002 2002 2002 2002 2002 2002 2002 2002 2002 
2002 2002 2002 2002 2002 2002 2002 2002 2002 
2002 2002 2002 2002 2002 2002 2002 2002 2002 
2002 2002 2002 2002 2002 2002 2002 2002 2002 
2002 2002 2002 2002 2002 2002 2002 2002 2002 
2002 2002 2002 2002 2002 2002 2002 2002 2002 
2002 2002 2002 2002 2002 2002 2002 2002 2002 
2002 2002 2002 2002 2002 2002 2002 2002 2002 
2002 2002 2002 2002 2002 2002 2002 2002 2002 
2002 2002 2002 2002 2002 2002 2002 2002 2002 
2002 2002 2002 2002 2002 2002 2002 2002 2002 
2002 2002 2002 2002 2002 2002 2002 2002 2002 
2002 2002 2002 2002 2002 2002 2002 2002 2002 
2002 2002 2002 2002 2002 2002 2002 2002 2002 
2002 2002 2002 2002 2002 2002 2002 2002 2002 
2002 2002 2002 2002 2002 2002 2002 2002 2002 
2002 2002 2002 2002 2002 2002 2002 2002 2002 
2002 2002 2002 2002 2002 2002 2002 2002 2002 
2002 2002 2002 2002 2002 2002 2002 2002 2002 
2002 2002 2002 2002 2002 2002 2002 2002 2002 
2002 2002 2002 2002 2002 2002 2002 2002 2002 
2002 2002 2002 2002 2002 2002 2002 2002 2002 
2002 2002 2002 2002 2002 2002 2002 2002 2002 
2002 2002 2002 2002 2002 2002 2002 2002 2002 
2002 2002 2002 2002 2002 2002 2002 2002 2002 
2002 2002 2002 2002 2002 2002 2002 2002 2002 
2002 2002 2002 2002 2002 2002 2002 2002 2002 
2002 2002 2002 2002 2002 2002 2002 2002 2002 
2002 2002 2002 2002 2002 2002 2002 2002 2002 
2002 2002 2002 2002 2002 2002 2002 2002 2002 
2002 2002 2002 2002 2002 2002 2002 2002 2002 
2002 2002 2002 2002 2002 2002 2002 2002 2002 
2002 2002 2002 2002 2002 2002 2002 2002 2002 
2002 2002 2002 2002 2002 2002 2002 2002 2002 
2002 2002 2002 2002 2002 2002 2002 2002 2002 
2002 2002 2002 2002 2002 2002 2002 2002 2002 
2002 2002 2002 2002 2002 2002 2002 2002 2002 
2002 2002 2002 2002 2002 2002 2002 2002 2002 
2002 2002 2002 2002 2002 2002 2002 2002 2002 
2002 2002 2002 2002 2002 2002 2002 2002 2002 
2002 2002 2002 2002 2002 2002 2002 2002 2002 
2002 2002 2002 2002 2002 2002 2002 2002 2002 
2002 2002 2002 2002 2002 2002 2002 2002 2002 
2002 2002 2002 2002 2002 2002 2002 2002 2002 
2002 2002 2002 2002 2002 2002 2002 2002 2002 
2002 2002 2002 2002 2002 2002 2002 2002 2002 
2002 2002 2002 2002 2002 2002 2002 2002 2002 
2002 2002 2002 2002 2002 2002 2002 2002 2002 
2002 2002 2002 2002 2002 2002 2002 2002 2002 
2002 2002 2002 2002 2002 2002 2002 2002 2002 
2002 2002 2002 2002 2002 2002 2002 2002 2002 
2002 2002 2002 2002 2002 2002 2002 2002 2002 
2002 2002 2002 2002 2002 2002 2002 2002 2002 
2002 2002 2002 2002 2002 2002 2002 2002 2002 
2002 2002 2002 2002 2002 2002 2002 2002 2002 
2002 2002 2002 2002 2002 2002 2002 2002 2002 
2002 2002 2002 2002 2002 2002 2002 2002 2002 
2002 2002 2002 2002 2002 2002 2002 2002 2002 
2002 2002 2002 2002 2002 2002 2002 2002 2002 
2002 2002 2002 2002 2002 2002 2002 2002 2002 
2002 2002 2002 2002 2002 2002 2002 2002 2002 
2002 2002 2002 2002 2002 2002 2002 2002 2002 
2002 2002 2002 2002 2002 2002 2002 2002 2002 
2002 2002 2002 2002 2002 2002 2002 2002 2002 
2002 2002 2002 2002 2002 2002 2002 2002 2002 
2002 2002 2002 2002 2002 2002 2002 2002 2002 
2002 2002 2002 2002 2002 2002 2002 2002 2002 
2002 2002 2002 2002 2002 2002 2002 2002 2002 
2002 2002 2002 2002 2002 2002 2002 2002 2002 
2002 2002 2002 2002 2002 2002 2002 2002 2002 
2002 2002 2002 2002 2002 2002 2002 2002 2002 
2002 2002 2002 2002 2002 2002 2002 2002 2002 
2002 2002 2002 2002 2002 2002 2002 2002 2002 
2002 2002 2002 2002 2002 2002 2002 2002 2002 
2002 2002 2002 2002 2002 2002 2002 2002 2002 
2002 2002 2002 2002 2002 2002 2002 2002 2002 
2002 2002 2002 2002 2002 2002 2002 2002 2002 
2002 2002 2002 2002 2002 2002 2002 2002 2002 
2002 2002 2002 2002 2002 2002 2002 2002 2002 
2002 2002 2002 2002 2002 2002 2002 2002 2002 
2002 2002 2002 2002 2002 2002 2002 2002 2002 
2002 2002 2002 2002 2002 2002 2002 2002 2002 
2002 2002 2002 2002 2002 2002 2002 2002 2002 
2002 2002 2002 2002 2002 2002 2002 2002 2002 
2002 2002 2002 2002 2002 2002 2002 2002 2002 
2002 2002 2002 2002 2002 2002 2002 2002 2002 
2002 2002 2002 2002 2002 2002 2002 2002 2002 
2002 2002 2002 2002 2002 2002 2002 2002 2002 
2002 2002 2002 2002 2002 2002 2002 2002 2002 
2002 2002 2002 2002 2002 2002 2002 2002 2002 
2002 2002 2002 2002 2002 2002 2002 2002 2002 
2002 2002 2002 2002 2002 2002 2002 2002 2002 
2002 2002 2002 2002 2002 2002 2002 2002 2002 
2002 2002 2002 2002 2002 2002 2002 2002 2002 
2002 2002 2002 2002 2002 2002 2002 2002 2002 
2002 2002 2002 2002 2002 2002 2002 2002 2002 
2002 2002 2002 2002 2002 2002 2002 2002 2002 
2002 2002 2002 2002 2002 2002 2002 2002 2002 
2002 2002 2002 2002 2002 2002 2002 2002 2002 
2002 2002 2002 2002 2002 2002 2002 2002 2002 
2002 2002 2002 2002 2002 2002 2002 2002 2002 
2002 2002 2002 2002 2002 2002 2002 2002 2002 
2002 2002 2002 2002 2002 2002 2002 2002 2002 
2002 2002 2002 2002 2002 2002 2002 2002 2002 
2002 2002 2002 2002 2002 2002 2002 2002 2002 
2002 2002 2002 2002 2002 2002 2002 2002 2002 
2002 2002 2002 2002 2002 2002 2002 2002 2002 
2002 2002 2002 2002 2002 2002 2002 2002 2002 
2002 2002 2002 2002 2002 2002 2002 2002 2002 
2002 2002 2002 2002 2002 2002 2002 2002 2002 
2002 2002 2002 2002 2002 2002 2002 2002 2002 
2002 2002 2002 2002 2002 2002 2002 2002 2002 
2002 2002 2002 2002 2002 2002 2002 2002 2002 
2002 2002 2002 2002 2002 2002 2002 2002 2002 
2002 2002 2002 2002 2002 2002 2002 2002 2002 
2002 2002 2002 2002 2002 2002 2002 2002 2002 
2002 2002 2002 2002 2002 2002 2002 2002 2002 
2002 2002 2002 2002 2002 2002 2002 2002 2002 
2002 2002 2002 2002 2002 2002 2002 2002 2002 
2002 2002 2002 2002 2002 2002 2002 2002 2002 
2002 2002 2002 2002 2002 2002 2002 2002 2002 
2002 2002 2002 2002 2002 2002 2002 2002 2002 
2002 2002 2002 2002 2002 2002 2002 2002 2002 
2002 2002 2002 2002 2002 2002 2002 2002 2002 
2002 2002 2002 2002 2002 2002 2002 2002 2002 
2002 2002 2002 2002 2002 2002 2002 2002 2002 
2002 2002 2002 2002 2002 2002 2002 2002 2002 
2002 2002 2002 2002 2002 2002 2002 2002 2002 
2002 2002 2002 2002 2002 2002 2002 2002 2002 
2002 2002 2002 2002 2002 2002 2002 2002 2002 
2002 2002 2002 2002 2002 2002 2002 2002 2002 
2002 2002 2002 2002 2002 2002 2002 2002 2002 
2002 2002 2002 2002 2002 2002 2002 2002 2002 
2002 2002 2002 2002 2002 2002 2002 2002 2002 
2002 2002 2002 2002 2002 2002 2002 2002 2002 
2002 2002 2002 2002 2002 2002 2002 2002 2002 
2002 2002 2002 2002 2002 2002 2002 2002 2002 
2002 2002 2002 2002 2002 2002 2002 2002 2002 
2002 2002 2002 2002 2002 2002 2002 2002 2002 
2002 2002 2002 2002 2002 2002 2002 2002 2002 
2002 2002 2002 2002 2002 2002 2002 2002 2002 
2002 2002 2002 2002 2002 2002 2002 2002 2002 
2002 2002 2002 2002 2002 2002 2002 2002 2002 
2002 2002 2002 2002 2002 2002 2002 2002 2002 
2002 2002 2002 2002 2002 2002 2002 2002 2002 
2002 2002 2002 2002 2002 2002 2002 2002 2002 
2002 2002 2002 2002 2002 2002 2002 2002 2002 
2002 2002 2002 2002 2002 2002 2002 2002 2002 
2002 2002 2002 2002 2002 2002 2002 2002 2002 
2002 2002 2002 2002 2002 2002 2002 2002 2002 
2002 2002 2002 2002 2002 2002 2002 2002 2002 
2002 2002 2002 2002 2002 2002 2002 2002 2002 
2002 2002 2002 2002 2002 2002 2002 2002 2002 
2002 2002 2002 2002 2002 2002 2002 2002 2002 
2002 2002 2002 2002 2002 2002 2002 2002 2002 
2002 2002 2002 2002 2002 2002 2002 2002 2002 
2002 2002 2002 2002 2002 2002 2002 2002 2002 
2002 2002 2002 2002 2002 2002 2002 2002 2002 
2002 2002 2002 2002 2002 2002 2002 2002 2002 
2002 2002 2002 2002 2002 2002 2002 2002 2002 
2002 2002 2002 2002 2002 2002 2002 2002 2002 
2002 2002 2002 2002 2002 2002 2002 2002 2002 
2002 2002 2002 2002 2002 2002 2002 2002 2002 
2002 2002 2002 2002 2002 2002 2002 2002 2002 
2002 2002 2002 2002 2002 2002 2002 2002 2002 
2002 2002 2002 2002 2002 2002 2002 2002 2002 
2002 2002 2002 2002 2002 2002 2002 2002 2002 
2002 2002 2002 2002 2002 2002 2002 2002 2002 
2002 2002 2002 2002 2002 2002 2002 2002 2002 
2002 2002 2002 2002 2002 2002 2002 2002 2002 
2002 2002 2002 2002 2002 2002 2002 2002 2002 
2002 2002 2002 2002 2002 2002 2002 2002 2002 
2002 2002 2002 2002 2002 2002 2002 2002 2002 
2002 2002 2002 2002 2002 2002 2002 2002 2002 
2002 2002 2002 2002 2002 2002 2002 2002 2002 
2002 2002 2002 2002 2002 2002 2002 2002 2002 
2002 2002 2002 2002 2002 2002 2002 2002 2002 
2002 2002 2002 2002 2002 2002 2002 2002 2002 
2002 2002 2002 2002 2002 2002 2002 2002 2002 
2002 2002 2002 2002 2002 2002 2002 2002 2002 
2002 2002 2002 2002 2002 2002 2002 2002 2002 
2002 2002 2002 2002 2002 2002 2002 2002 2002 
2002 2002 2002 2002 2002 2002 2002 2002 2002 
2002 2002 2002 2002 2002 2002 2002 2002 2002 
2002 2002 2002 2002 2002 2002 2002 2002 2002 
2002 2002 2002 2002 2002 2002 2002 2002 2002 
2002 2002 2002 2002 2002 2002 2002 2002 2002 
2002 2002 2002 2002 2002 2002 2002 2002 2002 
2002 2002 2002 2002 2002 2002 2002 2002 2002 
2002 2002 2002 2002 2002 2002 2002 2002 2002 
2002 2002 2002 2002 2002 2002 2002 2002 2002 
2002 2002 2002 2002 2002 2002 2002 2002 2002 
2002 2002 2002 2002 2002 2002 2002 2002 2002 
2002 2002 2002 2002 2002 2002 2002 2002 2002 
2002 2002 2002 2002 2002 2002 2002 2002 2002 
2002 2002 2002 2002 2002 2002 2002 2002 2002 
2002 2002 2002 2002 2002 2002 2002 2002 2002 
2002 2002 2002 2002 2002 2002 2002 2002 2002 
2002 2002 2002 2002 2002 2002 2002 2002 2002 
2002 2002 2002 2002 2002 2002 2002 2002 2002 
2002 2002 2002 2002 2002 2002 2002 2002 2002 
2002 2002 2002 2002 2002 2002 2002 2002 2002 
2002 2002 2002 2002 2002 2002 2002 2002 2002 
2002 2002 2002 2002 2002 2002 2002 2002 2002 
2002 2002 2002 2002 2002 2002 2002 2002 2002 
2002 2002 2002 2002 2002 2002 2002 2002 2002 
2002 2002 2002 2002 2002 2002 2002 2002 2002 
2002 2002 2002 2002 2002 2002 2002 2002 2002 
2002 2002 2002 2002 2002 2002 2002 2002 2002 
2002 2002 2002 2002 2002 2002 2002 2002 2002 
2002 2002 2002 2002 2002 2002 2002 2002 2002 
2002 2002 2002 2002 2002 2002 2002 2002 2002 
2002 2002 2002 2002 2002 2002 2002 2002 2002 
2002 2002 2002 2002 2002 2002 2002 2002 2002 
2002 2002 2002 2002 2002 2002 2002 2002 2002 
2002 2002 2002 2002 2002 2002 2002 2002 2002 
2002 2002 2002 2002 2002 2002 2002 2002 2002 
2002 2002 2002 2002 2002 2002 2002 2002 2002 
2002 2002 2002 2002 2002 2002 2002 2002 2002 
2002 2002 2002 2002 2002 2002 2002 2002 2002 
2002 2002 2002 2002 2002 2002 2002 2002 2002 
2002 2002 2002 2002 2002 2002 2002 2002 2002 
2002 2002 2002 2002 2002 2002 2002 2002 2002 
2002 2002 2002 2002 2002 2002 2002 2002 2002 
2002 2002 2002 2002 2002 2002 2002 2002 2002 
2002 2002 2002 2002 2002 2002 2002 2002 2002 
2002 2002 2002 2002 2002 2002 2002 2002 2002 
2002 2002 2002 2002 2002 2002 2002 2002 2002 
2002 2002 2002 2002 2002 2002 2002 2002 2002 
2002 2002 2002 2002 2002 2002 2002 2002 2002 
2002 2002 2002 2002 2002 2002 2002 2002 2002 
2002 2002 2002 2002 2002 2002 2002 2002 2002 
2002 2002 2002 2002 2002 2002 2002 2002 2002 
2002 2002 2002 2002 2002 2002 2002 2002 2002 
2002 2002 2002 2002 2002 2002 2002 2002 2002 
2002 2002 2002 2002 2002 2002 2002 2002 2002 
2002 2002 2002 2002 2002 2002 2002 2002 2002 
2002 2002 2002 2002 2002 2002 2002 2002 2002 
2002 2002 2002 2002 2002 2002 2002 2002 2002 
2002 2002 2002 2002 2002 2002 2002 2002 2002 
2002 2002 2002 2002 2002 2002 2002 2002 2002 
2002 2002 2002 2002 2002 2002 2002 2002 2002 
2002 2002 2002 2002 2002 2002 2002 2002 2002 
2002 2002 2002 2002 2002 2002 2002 2002 2002 
2002 2002 2002 2002 2002 2002 2002 2002 2002 
2002 2002 2002 2002 2002 2002 2002 2002 2002 
2002 2002 2002 2002 2002 2002 2002 2002 2002 
2002 2002 2002 2002 2002 2002 2002 2002 2002 
2002 2002 2002 2002 2002 2002 2002 2002 2002 
2002 2002 2002 2002 2002 2002 2002 2002 2002 
2002 2002 2002 2002 2002 2002 2002 2002 2002 
2002 2002 2002 2002 2002 2002 2002 2002 2002 
2002 2002 2002 2002 2002 2002 2002 2002 2002 
2002 2002 2002 2002 2002 2002 2002 2002 2002 
2002 2002 2002 2002 2002 2002 2002 2002 2002 
2002 2002 2002 2002 2002 2002 2002 2002 2002 
2002 2002 2002 2002 2002 2002 2002 2002 2002 
2002 2002 2002 2002 2002 2002 2002 2002 2002 
2002 2002 2002 2002 2002 2002 2002 2002 2002 
2002 2002 2002 2002 2002 2002 2002 2002 2002 
2002 2002 2002 2002 2002 2002 2002 2002 2002 
2002 2002 2002 2002 2002 2002 2002 2002 2002 