# vtk DataFile Version 4.2
vtk output
ASCII
DATASET POLYDATA
POINTS 13744 float
17.6136 -43.5178 7.65227 17.6763 -43.3822 7.45074 17.7181 -43.5544 7.43455 
17.4001 -43.3849 7.47776 17.4391 -43.6392 7.43166 17.0628 -43.0707 7.13355 
17.0421 -42.6854 6.73704 17.3076 -42.8486 6.95676 16.6574 -42.8847 6.85808 
17.5482 -43.094 7.05196 17.8051 -43.3797 6.96441 17.0752 -43.4936 7.27748 
16.6457 -43.4354 6.83771 17.6268 -43.7908 6.91054 17.0443 -43.7945 6.98063 
16.8918 -44.8594 7.07948 17.071 -44.504 6.84435 17.1165 -44.8833 6.99788 
16.7545 -44.5835 6.78797 16.9981 -45.2046 7.10142 17.276 -45.2711 6.83174 
16.76 -45.1245 6.86916 17.0008 -45.4993 6.75758 17.4956 -42.7944 6.69568 
17.4753 -42.6663 6.22445 17.7862 -43.0195 6.47884 16.8919 -42.5424 6.23631 
16.3348 -43.0615 6.61728 16.416 -42.6601 6.39422 16.0462 -42.961 6.20094 
18.0352 -43.6108 6.24411 16.3447 -43.4117 6.57557 16.1856 -43.3351 6.34079 
18.0799 -43.9685 6.47591 18.2433 -43.9225 6.29052 18.2875 -44.0669 6.30392 
17.5795 -44.2204 6.58229 17.0552 -44.1425 6.76227 16.6687 -44.0971 6.50691 
16.3981 -43.7072 6.22697 18.0665 -44.1804 6.32397 17.7623 -44.4335 6.19405 
17.4204 -44.7493 6.5434 16.6255 -44.7291 6.32918 17.556 -45.2545 6.48189 
17.6479 -44.9781 6.2129 17.7391 -45.3297 6.08809 16.7174 -45.295 6.31098 
17.3963 -45.588 6.34853 16.9694 -45.6062 6.21758 16.4058 -49.0856 6.47602 
16.4752 -48.7072 6.28909 16.7367 -48.9654 6.39487 16.1724 -48.8169 6.28598 
17.4122 -49.5378 6.46787 17.6756 -49.2996 6.2729 17.7614 -49.6071 6.28655 
16.8278 -49.475 6.5673 17.2059 -49.1347 6.34557 16.3714 -49.5891 6.54269 
16.0614 -49.317 6.34667 17.5118 -49.8749 6.38233 17.2685 -50.2311 6.30363 
17.1014 -49.967 6.52066 16.5754 -50.0314 6.52437 16.1061 -49.9186 6.35066 
16.8108 -50.3953 6.32907 16.3265 -50.3379 6.29577 17.7479 -42.6451 5.59141 
17.9623 -42.9811 5.91893 17.1734 -42.4805 5.68451 16.425 -42.4735 5.76751 
15.788 -42.9805 5.87863 15.9068 -42.6845 5.86609 15.5504 -42.9478 5.54106 
18.1748 -43.3756 5.84764 18.243 -43.1136 5.62046 18.3552 -43.3763 5.55031 
16.0303 -43.4635 5.81597 15.7155 -43.181 5.73687 18.1035 -44.1389 6.0958 
18.2708 -43.753 5.65644 18.0797 -44.1511 5.75317 16.6645 -44.2409 5.82149 
16.5441 -43.8064 5.57357 17.8577 -44.7547 5.81417 17.6191 -44.7055 6.12689 
16.7189 -44.9124 5.75801 17.755 -45.2831 5.63747 16.807 -45.3895 5.8166 
17.5937 -45.5491 5.82242 17.1767 -45.5679 5.77244 22.7873 -47.7774 5.9203 
23.0606 -47.4619 5.69331 23.2516 -47.8872 5.73718 22.3738 -47.8319 5.89731 
22.5953 -47.4088 5.73679 22.173 -47.6462 5.68618 22.8947 -48.2765 5.93207 
23.2127 -48.369 5.72299 22.4544 -48.3044 5.96971 22.0704 -48.2542 5.67672 
17.497 -48.4104 5.91007 17.5576 -48.0679 5.7135 17.9031 -48.2955 5.70793 
16.9068 -48.2571 5.92641 17.1637 -47.9829 5.71531 16.2893 -48.4063 6.02929 
16.5479 -47.9591 5.72764 15.6416 -48.4489 5.9171 15.8264 -47.9619 5.60348 
15.4102 -48.2389 5.65243 22.894 -48.6907 5.8068 22.6723 -49.066 5.6143 
22.5362 -48.7818 5.89164 22.2268 -48.7635 5.75682 19.8878 -49.0276 5.93958 
20.0642 -48.6735 5.69454 20.368 -48.9801 5.77856 19.2378 -48.9734 5.95676 
19.5445 -48.5835 5.72236 18.6459 -48.9707 5.94378 18.9446 -48.6025 5.72204 
18.0882 -48.7854 5.93274 18.4012 -48.556 5.71368 17.6227 -48.9521 6.10448 
16.9585 -48.6658 6.1368 15.7574 -48.9562 6.11506 15.255 -48.5552 5.78566 
15.2596 -48.9338 5.92176 14.9899 -48.7738 5.57369 22.3209 -49.0499 5.58561 
20.4145 -49.4359 5.89777 20.7133 -49.2283 5.68846 20.7724 -49.6001 5.69394 
19.9252 -49.5763 6.04051 19.4126 -49.4981 6.04795 18.7988 -49.4933 6.0278 
18.1193 -49.4137 6.08398 15.6755 -49.6623 6.13784 15.2407 -49.4973 5.97288 
14.8646 -49.3369 5.64792 20.525 -49.8682 5.78424 20.2718 -50.2221 5.70237 
20.1247 -49.9498 5.91796 19.574 -50.0137 5.96338 18.9694 -50.0125 5.94186 
18.2773 -50.0897 5.94337 17.6938 -50.0793 6.12829 15.8124 -50.2939 6.1024 
15.2424 -50.113 5.9672 14.8487 -49.9604 5.76009 19.7996 -50.3808 5.72658 
19.2072 -50.4163 5.72581 18.6048 -50.4208 5.71946 18.1183 -50.5171 5.74236 
17.8167 -50.8168 5.65765 17.7132 -50.5559 5.87978 17.155 -50.6254 6.019 
16.4347 -50.6673 6.02372 15.8646 -50.712 5.93141 15.3606 -50.6257 5.91032 
14.8431 -50.6571 5.63441 17.3904 -50.9734 5.69504 16.8245 -51.0231 5.71052 
16.204 -51.0103 5.7263 15.6108 -50.999 5.74007 15.1526 -51.0077 5.64593 
21.73 -41.7667 5.27921 21.9553 -41.4723 5.00429 22.0765 -41.8402 5.17326 
21.626 -41.6229 5.01288 21.6775 -42.3059 5.35039 22.118 -42.4269 5.1527 
21.46 -42.1133 5.02512 16.793 -42.2571 5.36889 16.9099 -42.0893 4.90439 
17.2162 -42.3024 5.16184 16.2948 -42.2947 5.32488 16.5058 -42.1015 5.07978 
16.0863 -42.2525 4.91575 22.936 -42.9541 5.21231 22.9948 -42.7655 5.11285 
23.0749 -42.9997 5.17551 22.8875 -42.8597 5.11012 21.7031 -42.8508 5.33879 
22.015 -42.9327 5.08881 21.2716 -42.5755 5.18937 21.1596 -42.964 5.3718 
20.9114 -42.9081 4.97297 18.1276 -42.8365 5.46535 18.0765 -42.6839 4.9955 
18.3743 -43.0422 5.24122 17.5589 -42.4839 5.10522 15.8271 -42.5594 5.28624 
15.4102 -42.8855 4.97178 22.8905 -43.4972 5.29243 23.1299 -43.4702 5.15205 
22.8192 -43.2378 5.13127 21.7022 -43.2461 5.1853 21.5264 -43.7216 5.13393 
21.3068 -43.3919 5.36861 20.5789 -43.2068 5.08338 20.7898 -43.5563 5.32378 
20.3293 -43.4533 5.05324 18.5684 -43.4915 5.18422 15.5754 -43.4148 5.54169 
15.229 -43.2334 5.22473 15.3098 -43.6586 5.28824 15.0291 -43.4414 4.99849 
22.9986 -43.9584 5.29423 23.2375 -44.0075 4.9966 22.5792 -43.719 5.01845 
22.5906 -44.0898 5.28158 22.224 -44.0487 5.08897 21.142 -43.9191 5.27444 
21.3886 -44.1819 5.06535 20.8295 -44.0047 5.20029 20.4912 -43.7626 5.11095 
18.5891 -44.0648 5.30085 18.8916 -43.8298 5.04733 18.9439 -44.1833 5.06442 
18.2551 -44.1491 5.51817 16.9024 -44.0574 5.34534 17.1608 -44.1762 5.04603 
16.858 -43.8349 4.97027 16.3217 -43.8108 5.21484 15.8081 -43.9089 5.33899 
16.0537 -44.1911 4.88559 15.5222 -44.0984 5.08894 15.1559 -43.7653 4.90562 
22.8011 -44.3742 5.13255 22.327 -44.3541 5.09382 21.0858 -44.2645 5.08941 
18.6827 -44.4639 5.15951 18.4562 -44.9022 5.07405 18.2277 -44.6104 5.38293 
17.0336 -44.6293 5.34383 17.3994 -44.6555 5.02792 15.7975 -44.2729 5.10074 
15.272 -44.5885 5.05858 15.4352 -44.9213 5.04934 15.1371 -44.8458 5.28027 
15.0328 -44.7012 5.01129 18.1626 -45.2013 5.21854 18.29 -45.2648 5.03076 
17.7916 -45.043 5.25965 17.9694 -45.2547 5.08168 17.4074 -45.2361 5.394 
16.9713 -45.2114 5.48911 15.2039 -45.1885 5.29464 15.352 -45.4621 5.01446 
14.9781 -45.1937 5.03221 22.8755 -46.0028 5.30842 23.0599 -45.6651 5.0755 
23.3435 -45.9653 5.15898 22.2612 -46.0298 5.2986 22.5844 -45.6151 5.09675 
22.1276 -45.7934 5.07529 18.168 -45.4055 5.12686 15.1267 -45.575 5.09447 
23.4012 -46.4501 5.30637 23.6931 -46.23 5.07233 23.8749 -46.6857 5.10721 
22.8791 -46.5419 5.4292 22.3661 -46.4728 5.43464 21.8536 -46.1561 5.17607 
21.747 -46.5691 5.32579 21.5088 -46.4236 5.09844 23.6898 -47.0864 5.3383 
24.0238 -47.1506 5.15279 23.0848 -47.0478 5.49713 22.3698 -47.0931 5.51823 
21.8897 -47.0029 5.43818 21.1324 -46.7511 5.01502 21.372 -47.1881 5.27023 
20.9299 -47.0918 4.99735 24.011 -47.6634 5.31205 24.2548 -47.3646 5.01467 
24.391 -47.7718 5.03912 23.5079 -47.5585 5.51039 21.7067 -47.7357 5.41463 
21.3389 -47.6238 5.15999 21.0883 -47.3805 5.06594 20.4977 -47.4577 4.92394 
20.9118 -47.7193 5.09994 20.5272 -47.9025 5.25965 20.2487 -47.6437 5.00499 
17.5409 -47.7975 5.42124 17.5421 -47.4566 5.10871 17.8777 -47.6913 5.10061 
16.8544 -47.6645 5.43645 17.141 -47.3804 5.12185 16.2213 -47.6644 5.41943 
16.4354 -47.3742 5.05567 15.8116 -47.6593 5.34099 15.8029 -47.4903 5.03363 
15.4589 -47.6732 5.10831 24.1289 -48.2639 5.29746 24.4788 -48.1679 5.03977 
23.6132 -48.2358 5.51208 21.6907 -48.4304 5.36565 21.2812 -47.8573 5.16583 
21.1197 -48.2143 5.3428 20.5889 -48.3001 5.42298 20.0505 -47.8987 5.15489 
20.0038 -48.287 5.42739 19.2343 -48.2982 5.41613 19.5352 -47.9987 5.1085 
18.6405 -48.3093 5.41301 18.9189 -48.0329 5.09306 18.1227 -48.1467 5.41311 
18.3655 -47.9674 5.09605 15.1262 -48.3803 5.4937 15.2633 -48.0131 5.27808 
14.9459 -48.253 5.03425 24.2683 -48.6071 5.0751 23.8496 -49.0318 5.11434 
23.6344 -48.8534 5.34971 23.1574 -48.8176 5.57838 22.0272 -48.8135 5.32748 
21.6984 -48.7455 5.13709 21.5251 -49.0759 4.98383 21.3143 -48.761 5.3062 
20.6533 -48.7483 5.52088 14.7524 -48.8204 5.09471 23.4812 -49.294 5.20522 
23.331 -49.5921 5.05597 23.0124 -49.3428 5.31301 22.3545 -49.2219 5.0594 
22.7471 -49.524 5.06391 21.0694 -49.3934 5.42219 21.376 -49.5921 5.08558 
14.5941 -49.27 5.24598 14.552 -49.7109 5.42836 14.3706 -49.3768 4.95272 
23.0161 -49.6831 4.92602 21.1113 -50.0671 5.31871 21.3781 -50.1405 4.91454 
20.6883 -50.087 5.54628 14.5398 -50.2841 5.46298 14.3166 -49.9615 5.04124 
21.1111 -50.4899 5.17663 20.9539 -50.7907 5.04665 20.7381 -50.5688 5.31927 
20.1629 -50.622 5.4271 19.4228 -50.7936 5.43259 18.7692 -50.7966 5.50123 
18.2126 -50.81 5.53997 14.5345 -50.6909 5.39163 14.3273 -50.6194 4.98856 
20.5442 -50.9136 5.04466 19.9101 -51.0275 5.07096 19.3422 -51.1239 5.17875 
19.121 -51.3555 5.02754 18.9006 -51.1626 5.29139 18.3465 -51.2195 5.33167 
17.747 -51.2178 5.41068 17.1262 -51.3189 5.4038 16.4388 -51.375 5.41802 
15.871 -51.2957 5.53427 15.3524 -51.4209 5.40548 14.8328 -51.3504 5.13046 
14.5231 -51.0407 5.13184 18.6663 -51.5009 4.96582 18.0754 -51.5158 5.11117 
17.5203 -51.6136 5.052 16.8287 -51.626 5.12038 16.3076 -51.7004 5.17388 
16.0624 -51.8979 5.12511 15.8439 -51.7052 5.29068 15.3788 -51.9657 5.02092 
15.092 -51.7003 5.04264 15.8545 -52.1509 4.9788 22.3361 -41.6147 4.83824 
22.3283 -41.4334 4.48705 22.5957 -41.7543 4.506 21.8771 -41.4306 4.57307 
21.5651 -41.8375 4.49291 22.4452 -42.0859 4.83483 22.662 -42.2449 4.41216 
21.3519 -42.2919 4.44059 16.8533 -42.1103 4.47215 17.2664 -42.2652 4.67828 
16.4502 -42.0741 4.66161 16.1065 -42.2439 4.5435 22.9995 -43.0236 5.05001 
22.3534 -42.8076 4.81577 22.5955 -42.9066 4.40806 21.1673 -42.5908 4.70503 
20.8838 -42.9246 4.37341 18.2474 -42.6284 4.30345 18.5515 -42.9888 4.72147 
17.586 -42.4882 4.43694 15.8455 -42.571 4.54093 15.5108 -42.9226 4.45314 
[...]
CELL_DATA 27532
SCALARS scalars float
LOOKUP_TABLE default
2009 2009 2009 2009 2009 2009 2009 2009 2009 
2009 2009 2009 2009 2009 2009 2009 2009 2009 
2009 2009 2009 2009 2009 2009 2009 2009 2009 
2009 2009 2009 2009 2009 2009 2009 2009 2009 
2009 2009 2009 2009 2009 2009 2009 2009 2009 
2009 2009 2009 2009 2009 2009 2009 2009 2009 
2009 2009 2009 2009 2009 2009 2009 2009 2009 
2009 2009 2009 2009 2009 2009 2009 2009 2009 
2009 2009 2009 2009 2009 2009 2009 2009 2009 
2009 2009 2009 2009 2009 2009 2009 2009 2009 
2009 2009 2009 2009 2009 2009 2009 2009 2009 
2009 2009 2009 2009 2009 2009 2009 2009 2009 
2009 2009 2009 2009 2009 2009 2009 2009 2009 
2009 2009 2009 2009 2009 2009 2009 2009 2009 
2009 2009 2009 2009 2009 2009 2009 2009 2009 
2009 2009 2009 2009 2009 2009 2009 2009 2009 
2009 2009 2009 2009 2009 2009 2009 2009 2009 
2009 2009 2009 2009 2009 2009 2009 2009 2009 
2009 2009 2009 2009 2009 2009 2009 2009 2009 
2009 2009 2009 2009 2009 2009 2009 2009 2009 
2009 2009 2009 2009 2009 2009 2009 2009 2009 
2009 2009 2009 2009 2009 2009 2009 2009 2009 
2009 2009 2009 2009 2009 2009 2009 2009 2009 
2009 2009 2009 2009 2009 2009 2009 2009 2009 
2009 2009 2009 2009 2009 2009 2009 2009 2009 
2009 2009 2009 2009 2009 2009 2009 2009 2009 
2009 2009 2009 2009 2009 2009 2009 2009 2009 
2009 2009 2009 2009 2009 2009 2009 2009 2009 
2009 2009 2009 2009 2009 2009 2009 2009 2009 
2009 2009 2009 2009 2009 2009 2009 2009 2009 
2009 2009 2009 2009 2009 2009 2009 2009 2009 
2009 2009 2009 2009 2009 2009 2009 2009 2009 
2009 2009 2009 2009 2009 2009 2009 2009 2009 
2009 2009 2009 2009 2009 2009 2009 2009 2009 
2009 2009 2009 2009 2009 2009 2009 2009 2009 
2009 2009 2009 2009 2009 2009 2009 2009 2009 
2009 2009 2009 2009 2009 2009 2009 2009 2009 
2009 2009 2009 2009 2009 2009 2009 2009 2009 
2009 2009 2009 2009 2009 2009 2009 2009 2009 
2009 2009 2009 2009 2009 2009 2009 2009 2009 
2009 2009 2009 2009 2009 2009 2009 2009 2009 
2009 2009 2009 2009 2009 2009 2009 2009 2009 
2009 2009 2009 2009 2009 2009 2009 2009 2009 
2009 2009 2009 2009 2009 2009 2009 2009 2009 
2009 2009 2009 2009 2009 2009 2009 2009 2009 
2009 2009 2009 2009 2009 2009 2009 2009 2009 
2009 2009 2009 2009 2009 2009 2009 2009 2009 
2009 2009 2009 2009 2009 2009 2009 2009 2009 
2009 2009 2009 2009 2009 2009 2009 2009 2009 
2009 2009 2009 2009 2009 2009 2009 2009 2009 
2009 2009 2009 2009 2009 2009 2009 2009 2009 
2009 2009 2009 2009 2009 2009 2009 2009 2009 
2009 2009 2009 2009 2009 2009 2009 2009 2009 
2009 2009 2009 2009 2009 2009 2009 2009 2009 
2009 2009 2009 2009 2009 2009 2009 2009 2009 
2009 2009 2009 2009 2009 2009 2009 2009 2009 
2009 2009 2009 2009 2009 2009 2009 2009 2009 
2009 2009 2009 2009 2009 2009 2009 2009 2009 
2009 2009 2009 2009 2009 2009 2009 2009 2009 
2009 2009 2009 2009 2009 2009 2009 2009 2009 
2009 2009 2009 2009 2009 2009 2009 2009 2009 
2009 2009 2009 2009 2009 2009 2009 2009 2009 
2009 2009 2009 2009 2009 2009 2009 2009 2009 
2009 2009 2009 2009 2009 2009 2009 2009 2009 
2009 2009 2009 2009 2009 2009 2009 2009 2009 
2009 2009 2009 2009 2009 2009 2009 2009 2009 
2009 2009 2009 2009 2009 2009 2009 2009 2009 
2009 2009 2009 2009 2009 2009 2009 2009 2009 
2009 2009 2009 2009 2009 2009 2009 2009 2009 
2009 2009 2009 2009 2009 2009 2009 2009 2009 
2009 2009 2009 2009 2009 2009 2009 2009 2009 
2009 2009 2009 2009 2009 2009 2009 2009 2009 
2009 2009 2009 2009 2009 2009 2009 2009 2009 
2009 2009 2009 2009 2009 2009 2009 2009 2009 
2009 2009 2009 2009 2009 2009 2009 2009 2009 
2009 2009 2009 2009 2009 2009 2009 2009 2009 
2009 2009 2009 2009 2009 2009 2009 2009 2009 
2009 2009 2009 2009 2009 2009 2009 2009 2009 
2009 2009 2009 2009 2009 2009 2009 2009 2009 
2009 2009 2009 2009 2009 2009 2009 2009 2009 
2009 2009 2009 2009 2009 2009 2009 2009 2009 
2009 2009 2009 2009 2009 2009 2009 2009 2009 
2009 2009 2009 2009 2009 2009 2009 2009 2009 
2009 2009 2009 2009 2009 2009 2009 2009 2009 
2009 2009 2009 2009 2009 2009 2009 2009 2009 
2009 2009 2009 2009 2009 2009 2009 2009 2009 
2009 2009 2009 2009 2009 2009 2009 2009 2009 
2009 2009 2009 2009 2009 2009 2009 2009 2009 
2009 2009 2009 2009 2009 2009 2009 2009 2009 
2009 2009 2009 2009 2009 2009 2009 2009 2009 
2009 2009 2009 2009 2009 2009 2009 2009 2009 
2009 2009 2009 2009 2009 2009 2009 2009 2009 
2009 2009 2009 2009 2009 2009 2009 2009 2009 
2009 2009 2009 2009 2009 2009 2009 2009 2009 
2009 2009 2009 2009 2009 2009 2009 2009 2009 
2009 2009 2009 2009 2009 2009 2009 2009 2009 
2009 2009 2009 2009 2009 2009 2009 2009 2009 
2009 2009 2009 2009 2009 2009 2009 2009 2009 
2009 2009 2009 2009 2009 2009 2009 2009 2009 
2009 2009 2009 2009 2009 2009 2009 2009 2009 
2009 2009 2009 2009 2009 2009 2009 2009 2009 
2009 2009 2009 2009 2009 2009 2009 2009 2009 
2009 2009 2009 2009 2009 2009 2009 2009 2009 
2009 2009 2009 2009 2009 2009 2009 2009 2009 
2009 2009 2009 2009 2009 2009 2009 2009 2009 
2009 2009 2009 2009 2009 2009 2009 2009 2009 
2009 2009 2009 2009 2009 2009 2009 2009 2009 
2009 2009 2009 2009 2009 2009 2009 2009 2009 
2009 2009 2009 2009 2009 2009 2009 2009 2009 
2009 2009 2009 2009 2009 2009 2009 2009 2009 
2009 2009 2009 2009 2009 2009 2009 2009 2009 
2009 2009 2009 2009 2009 2009 2009 2009 2009 
2009 2009 2009 2009 2009 2009 2009 2009 2009 
2009 2009 2009 2009 2009 2009 2009 2009 2009 
2009 2009 2009 2009 2009 2009 2009 2009 2009 
2009 2009 2009 2009 2009 2009 2009 2009 2009 
2009 2009 2009 2009 2009 2009 2009 2009 2009 
2009 2009 2009 2009 2009 2009 2009 2009 2009 
2009 2009 2009 2009 2009 2009 2009 2009 2009 
2009 2009 2009 2009 2009 2009 2009 2009 2009 
2009 2009 2009 2009 2009 2009 2009 2009 2009 
2009 2009 2009 2009 2009 2009 2009 2009 2009 
2009 2009 2009 2009 2009 2009 2009 2009 2009 
2009 2009 2009 2009 2009 2009 2009 2009 2009 
2009 2009 2009 2009 2009 2009 2009 2009 2009 
2009 2009 2009 2009 2009 2009 2009 2009 2009 
2009 2009 2009 2009 2009 2009 2009 2009 2009 
2009 2009 2009 2009 2009 2009 2009 2009 2009 
2009 2009 2009 2009 2009 2009 2009 2009 2009 
2009 2009 2009 2009 2009 2009 2009 2009 2009 
2009 2009 2009 2009 2009 2009 2009 2009 2009 
2009 2009 2009 2009 2009 2009 2009 2009 2009 
2009 2009 2009 2009 2009 2009 2009 2009 2009 
2009 2009 2009 2009 2009 2009 2009 2009 2009 
2009 2009 2009 2009 2009 2009 2009 2009 2009 
2009 2009 2009 2009 2009 2009 2009 2009 2009 
2009 2009 2009 2009 2009 2009 2009 2009 2009 
2009 2009 2009 2009 2009 2009 2009 2009 2009 
2009 2009 2009 2009 2009 2009 2009 2009 2009 
2009 2009 2009 2009 2009 2009 2009 2009 2009 
2009 2009 2009 2009 2009 2009 2009 2009 2009 
2009 2009 2009 2009 2009 2009 2009 2009 2009 
2009 2009 2009 2009 2009 2009 2009 2009 2009 
2009 2009 2009 2009 2009 2009 2009 2009 2009 
2009 2009 2009 2009 2009 2009 2009 2009 2009 
2009 2009 2009 2009 2009 2009 2009 2009 2009 
2009 2009 2009 2009 2009 2009 2009 2009 2009 
2009 2009 2009 2009 2009 2009 2009 2009 2009 
2009 2009 2009 2009 2009 2009 2009 2009 2009 
2009 2009 2009 2009 2009 2009 2009 2009 2009 
2009 2009 2009 2009 2009 2009 2009 2009 2009 
2009 2009 2009 2009 2009 2009 2009 2009 2009 
2009 2009 2009 2009 2009 2009 2009 2009 2009 
2009 2009 2009 2009 2009 2009 2009 2009 2009 
2009 2009 2009 2009 2009 2009 2009 2009 2009 
2009 2009 2009 2009 2009 2009 2009 2009 2009 
2009 2009 2009 2009 2009 2009 2009 2009 2009 
2009 2009 2009 2009 2009 2009 2009 2009 2009 
2009 2009 2009 2009 2009 2009 2009 2009 2009 
2009 2009 2009 2009 2009 2009 2009 2009 2009 
2009 2009 2009 2009 2009 2009 2009 2009 2009 
2009 2009 2009 2009 2009 2009 2009 2009 2009 
2009 2009 2009 2009 2009 2009 2009 2009 2009 
2009 2009 2009 2009 2009 2009 2009 2009 2009 
2009 2009 2009 2009 2009 2009 2009 2009 2009 
2009 2009 2009 2009 2009 2009 2009 2009 2009 
2009 2009 2009 2009 2009 2009 2009 2009 2009 
2009 2009 2009 2009 2009 2009 2009 2009 2009 
2009 2009 2009 2009 2009 2009 2009 2009 2009 
2009 2009 2009 2009 2009 2009 2009 2009 2009 
2009 2009 2009 2009 2009 2009 2009 2009 2009 
2009 2009 2009 2009 2009 2009 2009 2009 2009 
2009 2009 2009 2009 2009 2009 2009 2009 2009 
2009 2009 2009 2009 2009 2009 2009 2009 2009 
2009 2009 2009 2009 2009 2009 2009 2009 2009 
2009 2009 2009 2009 2009 2009 2009 2009 2009 
2009 2009 2009 2009 2009 2009 2009 2009 2009 
2009 2009 2009 2009 2009 2009 2009 2009 2009 
2009 2009 2009 2009 2009 2009 2009 2009 2009 
2009 2009 2009 2009 2009 2009 2009 2009 2009 
2009 2009 2009 2009 2009 2009 2009 2009 2009 
2009 2009 2009 2009 2009 2009 2009 2009 2009 
2009 2009 2009 2009 2009 2009 2009 2009 2009 
2009 2009 2009 2009 2009 2009 2009 2009 2009 
2009 2009 2009 2009 2009 2009 2009 2009 2009 
2009 2009 2009 2009 2009 2009 2009 2009 2009 
2009 2009 2009 2009 2009 2009 2009 2009 2009 
2009 2009 2009 2009 2009 2009 2009 2009 2009 
2009 2009 2009 2009 2009 2009 2009 2009 2009 
2009 2009 2009 2009 2009 2009 2009 2009 2009 
2009 2009 2009 2009 2009 2009 2009 2009 2009 
2009 2009 2009 2009 2009 2009 2009 2009 2009 
2009 2009 2009 2009 2009 2009 2009 2009 2009 
2009 2009 2009 2009 2009 2009 2009 2009 2009 
2009 2009 2009 2009 2009 2009 2009 2009 2009 
2009 2009 2009 2009 2009 2009 2009 2009 2009 
2009 2009 2009 2009 2009 2009 2009 2009 2009 
2009 2009 2009 2009 2009 2009 2009 2009 2009 
2009 2009 2009 2009 2009 2009 2009 2009 2009 
2009 2009 2009 2009 2009 2009 2009 2009 2009 
2009 2009 2009 2009 2009 2009 2009 2009 2009 
2009 2009 2009 2009 2009 2009 2009 2009 2009 
2009 2009 2009 2009 2009 2009 2009 2009 2009 
2009 2009 2009 2009 2009 2009 2009 2009 2009 
2009 2009 2009 2009 2009 2009 2009 2009 2009 
2009 2009 2009 2009 2009 2009 2009 2009 2009 
2009 2009 2009 2009 2009 2009 2009 2009 2009 
2009 2009 2009 2009 2009 2009 2009 2009 2009 
2009 2009 2009 2009 2009 2009 2009 2009 2009 
2009 2009 2009 2009 2009 2009 2009 2009 2009 
2009 2009 2009 2009 2009 2009 2009 2009 2009 
2009 2009 2009 2009 2009 2009 2009 2009 2009 
2009 2009 2009 2009 2009 2009 2009 2009 2009 
2009 2009 2009 2009 2009 2009 2009 2009 2009 
2009 2009 2009 2009 2009 2009 2009 2009 2009 
2009 2009 2009 2009 2009 2009 2009 2009 2009 
2009 2009 2009 2009 2009 2009 2009 2009 2009 
2009 2009 2009 2009 2009 2009 2009 2009 2009 
2009 2009 2009 2009 2009 2009 2009 2009 2009 
2009 2009 2009 2009 2009 2009 2009 2009 2009 
2009 2009 2009 2009 2009 2009 2009 2009 2009 
2009 2009 2009 2009 2009 2009 2009 2009 2009 
2009 2009 2009 2009 2009 2009 2009 2009 2009 
2009 2009 2009 2009 2009 2009 2009 2009 2009 
2009 2009 2009 2009 2009 2009 2009 2009 2009 
2009 2009 2009 2009 2009 2009 2009 2009 2009 
2009 2009 2009 2009 2009 2009 2009 2009 2009 
2009 2009 2009 2009 2009 2009 2009 2009 2009 
2009 2009 2009 2009 2009 2009 2009 2009 2009 
2009 2009 2009 2009 2009 2009 2009 2009 2009 
2009 2009 2009 2009 2009 2009 2009 2009 2009 
2009 2009 2009 2009 2009 2009 2009 2009 2009 
2009 2009 2009 2009 2009 2009 2009 2009 2009 
2009 2009 2009 2009 2009 2009 2009 2009 2009 
2009 2009 2009 2009 2009 2009 2009 2009 2009 
2009 2009 2009 2009 2009 2009 2009 2009 2009 
2009 2009 2009 2009 2009 2009 2009 2009 2009 
2009 2009 2009 2009 2009 2009 2009 2009 2009 
2009 2009 2009 2009 2009 2009 2009 2009 2009 
2009 2009 2009 2009 2009 2009 2009 2009 2009 
2009 2009 2009 2009 2009 2009 2009 2009 2009 
2009 2009 2009 2009 2009 2009 2009 2009 2009 
2009 2009 2009 2009 2009 2009 2009 2009 2009 
2009 2009 2009 2009 2009 2009 2009 2009 2009 
2009 2009 2009 2009 2009 2009 2009 2009 2009 
2009 2009 2009 2009 2009 2009 2009 2009 2009 
2009 2009 2009 2009 2009 2009 2009 2009 2009 
2009 2009 2009 2009 2009 2009 2009 2009 2009 
2009 2009 2009 2009 2009 2009 2009 2009 2009 
2009 2009 2009 2009 2009 2009 2009 2009 2009 
2009 2009 2009 2009 2009 2009 2009 2009 2009 
2009 2009 2009 2009 2009 2009 2009 2009 2009 
2009 2009 2009 2009 2009 2009 2009 2009 2009 
2009 2009 2009 2009 2009 2009 2009 2009 2009 
2009 2009 2009 2009 2009 2009 2009 2009 2009 
2009 2009 2009 2009 2009 2009 2009 2009 2009 
2009 2009 2009 2009 2009 2009 2009 2009 2009 
2009 2009 2009 2009 2009 2009 2009 2009 2009 
2009 2009 2009 2009 2009 2009 2009 2009 2009 
2009 2009 2009 2009 2009 2009 2009 2009 2009 
2009 2009 2009 2009 2009 2009 2009 2009 2009 
2009 2009 2009 2009 2009 2009 2009 2009 2009 
2009 2009 2009 2009 2009 2009 2009 2009 2009 
2009 2009 2009 2009 2009 2009 2009 2009 2009 
2009 2009 2009 2009 2009 2009 2009 2009 2009 
2009 2009 2009 2009 2009 2009 2009 2009 2009 
2009 2009 2009 2009 2009 2009 2009 2009 2009 
2009 2009 2009 2009 2009 2009 2009 2009 2009 
2009 2009 2009 2009 2009 2009 2009 2009 2009 
2009 2009 2009 2009 2009 2009 2009 2009 2009 
2009 2009 2009 2009 2009 2009 2009 2009 2009 
2009 2009 2009 2009 2009 2009 2009 2009 2009 
2009 2009 2009 2009 2009 2009 2009 2009 2009 
2009 2009 2009 2009 2009 2009 2009 2009 2009 
2009 2009 2009 2009 2009 2009 2009 2009 2009 
2009 2009 2009 2009 2009 2009 2009 2009 2009 
2009 2009 2009 2009 2009 2009 2009 2009 2009 
2009 2009 2009 2009 2009 2009 2009 2009 2009 
2009 2009 2009 2009 2009 2009 2009 2009 2009 
2009 2009 2009 2009 2009 2009 2009 2009 2009 
2009 2009 2009 2009 2009 2009 2009 2009 2009 
2009 2009 2009 2009 2009 2009 2009 2009 2009 
2009 2009 2009 2009 2009 2009 2009 2009 2009 
2009 2009 2009 2009 2009 2009 2009 2009 2009 
2009 2009 2009 2009 2009 2009 2009 2009 2009 
2009 2009 2009 2009 2009 2009 2009 2009 2009 
2009 2009 2009 2009 2009 2009 2009 2009 2009 
2009 2009 2009 2009 2009 2009 2009 2009 2009 
2009 2009 2009 2009 2009 2009 2009 2009 2009 
2009 2009 2009 2009 2009 2009 2009 2009 2009 
2009 2009 2009 2009 2009 2009 2009 2009 2009 
2009 2009 2009 2009 2009 2009 2009 2009 2009 
2009 2009 2009 2009 2009 2009 2009 2009 2009 
2009 2009 2009 2009 2009 2009 2009 2009 2009 
2009 2009 2009 2009 2009 2009 2009 2009 2009 
2009 2009 2009 2009 2009 2009 2009 2009 2009 
2009 2009 2009 2009 2009 2009 2009 2009 2009 
2009 2009 2009 2009 2009 2009 2009 2009 2009 
2009 2009 2009 2009 2009 2009 2009 2009 2009 
2009 2009 2009 2009 2009 2009 2009 2009 2009 
2009 2009 2009 2009 2009 2009 2009 2009 2009 
2009 2009 2009 2009 2009 2009 2009 2009 2009 
2009 2009 2009 2009 2009 2009 2009 2009 2009 
2009 2009 2009 2009 2009 2009 2009 2009 2009 
2009 2009 2009 2009 2009 2009 2009 2009 2009 
2009 2009 2009 2009 2009 2009 2009 2009 2009 
2009 2009 2009 2009 2009 2009 2009 2009 2009 
2009 2009 2009 2009 2009 2009 2009 2009 2009 
2009 2009 2009 2009 2009 2009 2009 2009 2009 
2009 2009 2009 2009 2009 2009 2009 2009 2009 
2009 2009 2009 2009 2009 2009 2009 2009 2009 
2009 2009 2009 2009 2009 2009 2009 2009 2009 
2009 2009 2009 2009 2009 2009 2009 2009 2009 
2009 2009 2009 2009 2009 2009 2009 2009 2009 
2009 2009 2009 2009 2009 2009 2009 2009 2009 
2009 2009 2009 2009 2009 2009 2009 2009 2009 
2009 2009 2009 2009 2009 2009 2009 2009 2009 
2009 2009 2009 2009 2009 2009 2009 2009 2009 
2009 2009 2009 2009 2009 2009 2009 2009 2009 
2009 2009 2009 2009 2009 2009 2009 2009 2009 
2009 2009 2009 2009 2009 2009 2009 2009 2009 
2009 2009 2009 2009 2009 2009 2009 2009 2009 
2009 2009 2009 2009 2009 2009 2009 2009 2009 
2009 2009 2009 2009 2009 2009 2009 2009 2009 
2009 2009 2009 2009 2009 2009 2009 2009 2009 
2009 2009 2009 2009 2009 2009 2009 2009 2009 
2009 2009 2009 2009 2009 2009 2009 2009 2009 
2009 2009 2009 2009 2009 2009 2009 2009 2009 
2009 2009 2009 2009 2009 2009 2009 2009 2009 
2009 2009 2009 2009 2009 2009 2009 2009 2009 
2009 2009 2009 2009 2009 2009 2009 2009 2009 
2009 2009 2009 2009 2009 2009 2009 2009 2009 
2009 2009 2009 2009 2009 2009 2009 2009 2009 
2009 2009 2009 2009 2009 2009 2009 2009 2009 
2009 2009 2009 2009 2009 2009 2009 2009 2009 
2009 2009 2009 2009 2009 2009 2009 2009 2009 
2009 2009 2009 2009 2009 2009 2009 2009 2009 
2009 2009 2009 2009 2009 2009 2009 2009 2009 
2009 2009 2009 2009 2009 2009 2009 2009 2009 
2009 2009 2009 2009 2009 2009 2009 2009 2009 
2009 2009 2009 2009 2009 2009 2009 2009 2009 
2009 2009 2009 2009 2009 2009 2009 2009 2009 
2009 2009 2009 2009 2009 2009 2009 2009 2009 
2009 2009 2009 2009 2009 2009 2009 2009 2009 
2009 2009 2009 2009 2009 2009 2009 2009 2009 
2009 2009 2009 2009 2009 2009 2009 2009 2009 
2009 2009 2009 2009 2009 2009 2009 2009 2009 
2009 2009 2009 2009 2009 2009 2009 2009 2009 
2009 2009 2009 2009 2009 2009 2009 2009 2009 
2009 2009 2009 2009 2009 2009 2009 2009 2009 
2009 2009 2009 2009 2009 2009 2009 2009 2009 
2009 2009 2009 2009 2009 2009 2009 2009 2009 
2009 2009 2009 2009 2009 2009 2009 2009 2009 
2009 2009 2009 2009 2009 2009 2009 2009 2009 
2009 2009 2009 2009 2009 2009 2009 2009 2009 
2009 2009 2009 2009 2009 2009 2009 2009 2009 
2009 2009 2009 2009 2009 2009 2009 2009 2009 
2009 2009 2009 2009 2009 2009 2009 2009 2009 
2009 2009 2009 2009 2009 2009 2009 2009 2009 
2009 2009 2009 2009 2009 2009 2009 2009 2009 
2009 2009 2009 2009 2009 2009 2009 2009 2009 
2009 2009 2009 2009 2009 2009 2009 2009 2009 
2009 2009 2009 2009 2009 2009 2009 2009 2009 
2009 2009 2009 2009 2009 2009 2009 2009 2009 
2009 2009 2009 2009 2009 2009 2009 2009 2009 
2009 2009 2009 2009 2009 2009 2009 2009 2009 
2009 2009 2009 2009 2009 2009 2009 2009 2009 
2009 2009 2009 2009 2009 2009 2009 2009 2009 
2009 2009 2009 2009 2009 2009 2009 2009 2009 
2009 2009 2009 2009 2009 2009 2009 2009 2009 
2009 2009 2009 2009 2009 2009 2009 2009 2009 
2009 2009 2009 2009 2009 2009 2009 2009 2009 
2009 2009 2009 2009 2009 2009 2009 2009 2009 
2009 2009 2009 2009 2009 2009 2009 2009 2009 
2009 2009 2009 2009 2009 2009 2009 2009 2009 
2009 2009 2009 2009 2009 2009 2009 2009 2009 
2009 2009 2009 2009 2009 2009 2009 2009 2009 
2009 2009 2009 2009 2009 2009 2009 2009 2009 
2009 2009 2009 2009 2009 2009 2009 2009 2009 
2009 2009 2009 2009 2009 2009 2009 2009 2009 
2009 2009 2009 2009 2009 2009 2009 2009 2009 
2009 2009 2009 2009 2009 2009 2009 2009 2009 
2009 2009 2009 2009 2009 2009 2009 2009 2009 
2009 2009 2009 2009 2009 2009 2009 2009 2009 
2009 2009 2009 2009 2009 2009 2009 2009 2009 
2009 2009 2009 2009 2009 2009 2009 2009 2009 
2009 2009 2009 2009 2009 2009 2009 2009 2009 
2009 2009 2009 2009 2009 2009 2009 2009 2009 
2009 2009 2009 2009 2009 2009 2009 2009 2009 
2009 2009 2009 2009 2009 2009 2009 2009 2009 
2009 2009 2009 2009 2009 2009 2009 2009 2009 
2009 2009 2009 2009 2009 2009 2009 2009 2009 
2009 2009 2009 2009 2009 2009 2009 2009 2009 
2009 2009 2009 2009 2009 2009 2009 2009 2009 
2009 2009 2009 2009 2009 2009 2009 2009 2009 
2009 2009 2009 2009 2009 2009 2009 2009 2009 
2009 2009 2009 2009 2009 2009 2009 2009 2009 
2009 2009 2009 2009 2009 2009 2009 2009 2009 
2009 2009 2009 2009 2009 2009 2009 2009 2009 
2009 2009 2009 2009 2009 2009 2009 2009 2009 
2009 2009 2009 2009 2009 2009 2009 2009 2009 
2009 2009 2009 2009 2009 2009 2009 2009 2009 
2009 2009 2009 2009 2009 2009 2009 2009 2009 
2009 2009 2009 2009 2009 2009 2009 2009 2009 
2009 2009 2009 2009 2009 2009 2009 2009 2009 
2009 2009 2009 2009 2009 2009 2009 2009 2009 
2009 2009 2009 2009 2009 2009 2009 2009 2009 
2009 2009 2009 2009 2009 2009 2009 2009 2009 
2009 2009 2009 2009 2009 2009 2009 2009 2009 
2009 2009 2009 2009 2009 2009 2009 2009 2009 
2009 2009 2009 2009 2009 2009 2009 2009 2009 
2009 2009 2009 2009 2009 2009 2009 2009 2009 
2009 2009 2009 2009 2009 2009 2009 2009 2009 
2009 2009 2009 2009 2009 2009 2009 2009 2009 
2009 2009 2009 2009 2009 2009 2009 2009 2009 
2009 2009 2009 2009 2009 2009 2009 2009 2009 
2009 2009 2009 2009 2009 2009 2009 2009 2009 
2009 2009 2009 2009 2009 2009 2009 2009 2009 
2009 2009 2009 2009 2009 2009 2009 2009 2009 
2009 2009 2009 2009 2009 2009 2009 2009 2009 
2009 2009 2009 2009 2009 2009 2009 2009 2009 
2009 2009 2009 2009 2009 2009 2009 2009 2009 
2009 2009 2009 2009 2009 2009 2009 2009 2009 
2009 2009 2009 2009 2009 2009 2009 2009 2009 
2009 2009 2009 2009 2009 2009 2009 2009 2009 
2009 2009 2009 2009 2009 2009 2009 2009 2009 
2009 2009 2009 2009 2009 2009 2009 2009 2009 
2009 2009 2009 2009 2009 2009 2009 2009 2009 
2009 2009 2009 2009 2009 2009 2009 2009 2009 
2009 2009 2009 2009 2009 2009 2009 2009 2009 
2009 2009 2009 2009 2009 2009 2009 2009 2009 
2009 2009 2009 2009 2009 2009 2009 2009 2009 
2009 2009 2009 2009 2009 2009 2009 2009 2009 