# vtk DataFile Version 4.2
vtk output
ASCII
DATASET POLYDATA
POINTS 15966 float
32.2499 40.659 -30.5763 32.4078 40.5222 -30.3012 32.5243 40.6171 -30.5698 
31.9902 40.1979 -30.452 33.3165 40.6595 -31.5027 33.4947 40.3785 -31.142 
33.5427 40.3536 -31.7845 32.3097 40.3772 -30.9124 32.9205 40.3053 -31.5755 
33.2197 40.4297 -31.9416 37.9751 39.8537 -23.6864 38.4545 39.4889 -23.1494 
38.784 39.5672 -23.8543 37.2787 39.7965 -23.7203 37.6601 39.5498 -23.0312 
36.9725 39.4707 -23.3638 38.1854 39.8716 -24.5154 38.7863 39.5804 -24.4882 
37.3839 39.9156 -24.5136 36.7684 39.5472 -24.2372 38.464 39.4774 -25.0906 
37.851 39.5429 -25.6104 37.5841 39.7886 -25.2977 36.8652 39.5412 -25.2045 
37.4191 39.3197 -25.8479 33.0558 39.8713 -27.7137 33.3282 39.4683 -27.1582 
33.8533 39.5784 -27.6506 32.2288 39.7972 -27.6854 32.5335 39.5457 -27.04 
31.9484 39.2697 -27.2765 33.9834 39.8374 -28.4342 34.4796 39.4239 -28.0783 
34.786 39.4966 -28.8374 33.127 40.0459 -28.6077 32.3686 39.9387 -28.5035 
31.9913 39.2771 -28.4266 34.1954 39.9037 -29.5031 34.845 39.5357 -29.7715 
33.4691 40.0664 -29.2908 32.5246 40.1602 -29.5693 31.8977 39.675 -29.5276 
34.1684 39.8872 -30.5093 34.7567 39.5255 -30.3994 33.0651 40.2963 -30.4792 
31.7401 39.3777 -30.4459 34.588 39.3351 -30.9257 33.9871 39.5597 -31.5801 
32.4326 40.0664 -31.4078 31.9107 39.4538 -31.375 33.3208 40.0508 -32.606 
33.6973 39.7259 -32.5752 32.8051 39.8388 -32.4638 32.2792 39.5413 -32.099 
33.4191 39.723 -33.3148 33.6438 39.213 -33.4765 32.9049 39.5366 -33.2911 
33.0782 39.2461 -33.8216 49.0153 38.8513 -15.6384 49.4147 38.498 -15.1291 
49.7758 38.5511 -15.7878 48.33 38.7879 -15.7041 48.4576 38.3587 -14.9865 
47.8487 38.3562 -15.5045 49.2237 38.9236 -16.4829 49.8666 38.5271 -16.7212 
48.2923 38.9359 -16.517 47.7603 38.5244 -16.1709 49.2344 38.902 -17.4696 
49.8457 38.5146 -17.7297 48.3611 39.0413 -17.4596 47.4425 38.6218 -16.8108 
47.2427 38.9122 -17.5122 46.1311 38.7857 -17.8042 46.6542 38.4901 -17.0863 
45.9048 38.4028 -17.3873 49.1974 38.8993 -18.501 49.84 38.5353 -18.7703 
48.3413 39.0377 -18.4731 47.3366 39.0364 -18.4946 46.2956 39.0018 -18.5403 
45.4599 38.5465 -17.9861 45.2551 38.8152 -18.6507 44.8972 38.4161 -18.3703 
43.1617 38.7694 -18.8561 43.4638 38.4066 -18.2519 43.8734 38.5685 -18.6781 
42.8814 38.4228 -18.3321 49.1963 38.9112 -19.5438 49.8481 38.5573 -19.7899 
48.2972 39.0515 -19.5235 47.2935 39.0474 -19.5368 46.3002 39.0323 -19.5276 
45.2896 39.0173 -19.5262 44.4638 38.5631 -18.7697 44.1171 38.9237 -19.3938 
43.0715 39.0271 -19.7063 42.4426 38.572 -18.8902 42.3955 38.8091 -19.5753 
41.9424 38.4305 -19.398 49.3318 38.8114 -20.3177 49.7475 38.5533 -20.4377 
48.402 38.9445 -20.5478 47.2961 39.0517 -20.5558 46.2769 39.0328 -20.5715 
45.2629 39.0379 -20.5759 44.2488 39.057 -20.551 43.2567 39.053 -20.5648 
42.392 38.8915 -20.5245 41.7533 38.4868 -20.2364 49.2847 38.4222 -20.9413 
48.2519 38.6342 -21.2428 47.862 38.3755 -21.6374 47.4802 38.8277 -21.3013 
46.5296 38.8809 -21.3965 45.3861 38.9113 -21.5599 44.2697 39.0333 -21.576 
43.4314 39.0444 -21.4495 42.5916 38.8416 -21.622 41.8028 38.4938 -21.2028 
38.1412 38.8573 -21.7214 38.3893 38.4487 -21.1572 38.8888 38.5703 -21.6339 
37.1079 38.8224 -21.7519 37.6119 38.516 -21.0925 36.8828 38.4675 -21.3288 
47.0764 38.2814 -21.8461 46.1051 38.5278 -21.8656 45.3373 38.4806 -22.1825 
44.7158 38.4605 -22.7361 44.4495 38.822 -22.3305 43.418 38.8544 -22.3728 
42.6593 38.5889 -22.4516 42.0833 38.4445 -21.9903 39.081 38.8134 -22.3001 
39.5396 38.3279 -22.0023 39.6437 38.5131 -22.7493 38.3578 39.1763 -22.5591 
37.2613 39.165 -22.5281 36.2705 38.3547 -21.8725 36.2305 38.8323 -22.6239 
35.7334 38.3179 -22.4594 43.9589 38.5281 -23.0229 43.1578 38.4714 -22.9533 
39.2245 39.0395 -23.2342 39.7597 38.369 -23.5298 36.2945 39.1539 -23.5961 
35.2607 38.2843 -22.9061 35.2721 38.8251 -23.6165 34.7398 38.3404 -23.4276 
39.2889 39.0501 -24.3167 39.6237 38.2374 -24.3021 36.1459 39.1664 -24.787 
35.2825 38.9928 -24.5293 34.4811 38.5666 -23.9229 34.2662 38.8148 -24.6184 
33.9105 38.4455 -24.3393 39.1098 38.7313 -25.0099 38.3268 39.0626 -25.6187 
38.8031 38.1836 -25.5747 36.3313 39.1038 -25.8594 35.2786 38.9696 -25.5459 
34.2507 38.9558 -25.5124 33.4687 38.5536 -24.9189 33.1903 38.8169 -25.6258 
32.8491 38.445 -25.3391 38.0852 38.7179 -26.1279 37.1602 38.8766 -26.5074 
37.8719 38.5344 -26.5422 36.1349 38.9661 -26.7375 35.2826 38.9688 -26.5508 
34.4109 38.9684 -26.3342 33.3404 39.1222 -26.5019 32.3826 38.5964 -25.9272 
32.3548 39.0322 -26.4785 31.8466 38.4746 -26.6663 37.4712 38.3756 -27.0382 
36.7458 38.4183 -27.7013 36.3472 38.7899 -27.4187 35.4413 38.9681 -27.3475 
34.3428 39.1383 -27.2968 31.9053 38.4931 -27.7936 36.1223 38.5844 -28.1318 
35.8813 38.522 -28.8687 35.3107 38.9925 -28.2247 32.3114 38.7407 -28.3293 
32.4605 38.4962 -28.4689 32.3472 38.4844 -28.2119 35.338 39.0165 -29.2975 
35.8271 38.3291 -29.8354 32.2378 38.6579 -28.7376 31.8128 38.6327 -29.6028 
35.2212 39.0167 -30.3115 35.6067 38.2324 -30.7562 31.7505 38.6645 -30.7657 
35.0515 38.699 -31.1141 34.4946 38.9231 -31.4513 34.8067 38.5128 -31.5436 
31.764 38.3224 -31.4 34.504 38.4671 -31.9346 34.0054 38.6 -32.7581 
32.2806 39.0973 -32.9256 31.7495 38.4755 -32.2672 33.7494 38.3387 -33.8054 
32.4569 38.9992 -33.6049 31.8236 38.5117 -33.2764 33.1906 38.6865 -34.118 
32.3562 38.6232 -33.9539 50.0183 37.8544 -13.6176 50.2754 37.5567 -13.0775 
50.741 37.4758 -13.6507 49.1257 37.8438 -13.765 49.6448 37.5519 -13.0591 
48.8882 37.4672 -13.342 50.3395 37.8877 -14.3251 50.8628 37.5224 -14.7638 
49.4429 38.1647 -14.4635 48.2467 37.3646 -13.8795 48.5485 37.9544 -14.3516 
47.8156 37.5265 -14.5019 50.1922 38.0478 -15.2046 50.8233 37.499 -15.7721 
47.1467 37.9215 -15.841 47.5224 37.7511 -15.0791 46.9118 37.3985 -15.3437 
50.3371 38.0117 -16.2267 50.8121 37.4817 -16.7641 47.0871 38.2429 -16.5186 
46.4355 37.5183 -15.8478 46.1641 37.9622 -16.6008 45.0665 37.8392 -16.6704 
45.6283 37.4909 -15.9952 44.0795 37.8509 -16.6559 44.6002 37.5103 -16 
43.1445 37.8131 -16.7641 43.4417 37.3337 -15.9853 42.7674 37.4026 -16.4178 
50.3372 37.9995 -17.2227 50.8101 37.4976 -17.7613 45.1882 38.1439 -17.5669 
44.4451 37.9949 -17.3531 43.3656 38.0986 -17.6342 42.4147 37.6047 -16.8376 
42.2345 37.9113 -17.5135 41.1602 37.8193 -17.765 41.4537 37.3218 -17.0314 
40.7682 37.3977 -17.4567 50.3357 38.0153 -18.2362 50.8408 37.4962 -18.7722 
44.2284 38.2239 -18.1753 42.2022 38.1922 -18.5198 41.3077 38.0198 -18.5184 
40.3937 37.6273 -17.8506 40.2262 37.91 -18.5336 39.3252 37.763 -18.7511 
39.4305 37.3583 -18.0083 38.842 37.3836 -18.5271 50.3573 38.0227 -19.2833 
50.8534 37.3248 -19.8137 41.2721 38.1085 -19.6335 40.3167 37.9879 -19.5263 
39.2607 37.8812 -19.5854 38.7362 37.5167 -19.2141 50.2102 38.029 -20.3237 
50.6109 37.2799 -20.5498 41.118 38.1258 -20.7975 40.2717 37.9876 -20.5247 
39.4387 37.9851 -20.3425 38.3981 37.5938 -19.8611 38.3053 38.0095 -20.5211 
37.0239 38.0276 -20.6931 37.5386 37.5219 -20.0252 36.2826 37.783 -20.7342 
36.3781 37.2968 -20.0084 35.8062 37.3333 -20.5175 50.0696 37.6459 -21.0386 
49.4177 37.8794 -21.4729 49.7991 37.2011 -21.7433 48.6383 38.1271 -21.5704 
41.4496 38.1478 -21.7528 40.3988 37.9097 -21.6822 39.2548 38.1638 -21.1572 
36.4493 38.1173 -21.2471 35.821 37.6277 -21.2918 49.0487 37.5487 -21.9919 
48.0414 37.682 -22.0555 47.1418 37.5099 -22.1729 46.223 37.8611 -22.2008 
45.3343 38.044 -22.6966 45.893 37.3338 -22.8586 42.3234 38.2036 -22.683 
41.407 37.8458 -22.591 40.8225 37.3537 -22.4947 40.2527 37.2123 -22.0312 
39.8654 37.6785 -22.4412 35.3323 37.9563 -22.5439 35.5191 37.7509 -22.0995 
34.9598 37.5368 -22.4647 45.3411 37.7561 -23.3054 45.5998 37.2415 -23.5287 
44.5942 38.0399 -23.3903 43.4041 38.0451 -23.4721 42.3435 37.8245 -23.428 
41.6367 37.3537 -23.6029 41.2147 37.3514 -23.0894 39.7348 37.3613 -23.5055 
33.9886 38.0419 -23.6845 34.4702 37.7162 -22.9937 33.1013 37.7489 -23.7876 
33.6627 37.4535 -23.0616 32.9186 37.3937 -23.3345 45.0252 37.4067 -23.8501 
44.1771 37.5519 -23.9336 43.2113 37.4324 -24.0948 42.2798 37.3997 -24.0679 
39.4561 37.5811 -24.2295 39.3009 38.0804 -24.7428 39.0624 37.4461 -24.6968 
33.1538 38.1663 -24.5747 32.4388 37.5399 -23.9273 32.1977 37.8354 -24.6646 
31.8474 37.4607 -24.3765 38.8387 37.3198 -25.3813 32.1435 38.1998 -25.5806 
31.4135 37.5786 -24.9777 31.3854 37.8092 -25.619 30.9225 37.2814 -25.3475 
38.3017 38.1495 -26.4744 38.6685 37.3503 -26.3031 31.416 37.8654 -26.497 
30.9233 37.2705 -26.383 38.1014 37.6709 -27.0389 37.341 38.0078 -27.6819 
37.8429 37.38 -27.6907 31.4762 37.4314 -27.6043 31.159 37.3191 -27.1473 
37.2086 37.8153 -28.4662 37.6253 37.1883 -28.4093 36.571 38.2261 -28.3624 
31.9608 38.1955 -28.5823 31.4429 37.6695 -28.1765 31.2644 37.7129 -28.7782 
31.0674 37.3802 -28.7504 37.1611 37.5297 -29.0635 36.7425 37.226 -29.5526 
36.4928 37.9588 -29.2407 31.4421 37.8242 -29.4671 31.0566 37.4871 -29.2901 
36.2391 37.5999 -29.8952 35.9433 37.5091 -30.4328 31.6816 37.6164 -30.4532 
31.3278 37.2972 -29.7962 35.2116 38.1387 -31.4975 35.671 37.3309 -31.3233 
31.6806 37.3525 -31.522 35.061 37.6374 -32.0551 34.4692 37.9257 -32.4817 
34.7592 37.1669 -32.5855 31.3497 37.5599 -32.1694 31.2271 37.9115 -32.8356 
30.9827 37.2687 -32.5023 34.2636 37.5878 -32.8928 33.9799 37.5304 -33.4227 
31.3984 38.038 -33.8493 30.6973 37.2354 -33.3699 33.2262 38.0455 -34.5994 
33.6446 37.3926 -34.2333 32.324 38.2131 -34.4916 31.5564 37.8318 -34.8253 
30.9368 37.3679 -34.4904 33.0941 37.3356 -34.9822 32.5948 37.3622 -35.5418 
32.4493 37.8034 -35.2762 31.9004 37.613 -35.4798 31.4856 37.1574 -35.29 
32.3198 37.5583 -35.7238 50.2713 37.0543 -12.6616 50.2666 36.5333 -12.0712 
50.837 36.4985 -12.446 49.0611 37.043 -12.6542 49.5473 36.534 -11.9719 
48.2718 36.7866 -12.7394 48.3691 36.3368 -11.9844 47.7858 36.374 -12.5407 
51.17 36.8782 -13.2723 51.405 36.3229 -12.9151 51.6459 36.3823 -13.6177 
48.4382 37.1196 -13.261 47.779 36.6356 -13.3143 51.3488 37.0103 -14.2422 
51.8364 36.4097 -14.6474 46.9803 37.0434 -14.6876 47.276 36.6151 -14.0206 
46.108 36.7896 -14.7546 46.3816 36.3601 -14.2223 45.7414 36.355 -14.4204 
[...]
CELL_DATA 31956
SCALARS scalars float
LOOKUP_TABLE default
2030 2030 2030 2030 2030 2030 2030 2030 2030 
2030 2030 2030 2030 2030 2030 2030 2030 2030 
2030 2030 2030 2030 2030 2030 2030 2030 2030 
2030 2030 2030 2030 2030 2030 2030 2030 2030 
2030 2030 2030 2030 2030 2030 2030 2030 2030 
2030 2030 2030 2030 2030 2030 2030 2030 2030 
2030 2030 2030 2030 2030 2030 2030 2030 2030 
2030 2030 2030 2030 2030 2030 2030 2030 2030 
2030 2030 2030 2030 2030 2030 2030 2030 2030 
2030 2030 2030 2030 2030 2030 2030 2030 2030 
2030 2030 2030 2030 2030 2030 2030 2030 2030 
2030 2030 2030 2030 2030 2030 2030 2030 2030 
2030 2030 2030 2030 2030 2030 2030 2030 2030 
2030 2030 2030 2030 2030 2030 2030 2030 2030 
2030 2030 2030 2030 2030 2030 2030 2030 2030 
2030 2030 2030 2030 2030 2030 2030 2030 2030 
2030 2030 2030 2030 2030 2030 2030 2030 2030 
2030 2030 2030 2030 2030 2030 2030 2030 2030 
2030 2030 2030 2030 2030 2030 2030 2030 2030 
2030 2030 2030 2030 2030 2030 2030 2030 2030 
2030 2030 2030 2030 2030 2030 2030 2030 2030 
2030 2030 2030 2030 2030 2030 2030 2030 2030 
2030 2030 2030 2030 2030 2030 2030 2030 2030 
2030 2030 2030 2030 2030 2030 2030 2030 2030 
2030 2030 2030 2030 2030 2030 2030 2030 2030 
2030 2030 2030 2030 2030 2030 2030 2030 2030 
2030 2030 2030 2030 2030 2030 2030 2030 2030 
2030 2030 2030 2030 2030 2030 2030 2030 2030 
2030 2030 2030 2030 2030 2030 2030 2030 2030 
2030 2030 2030 2030 2030 2030 2030 2030 2030 
2030 2030 2030 2030 2030 2030 2030 2030 2030 
2030 2030 2030 2030 2030 2030 2030 2030 2030 
2030 2030 2030 2030 2030 2030 2030 2030 2030 
2030 2030 2030 2030 2030 2030 2030 2030 2030 
2030 2030 2030 2030 2030 2030 2030 2030 2030 
2030 2030 2030 2030 2030 2030 2030 2030 2030 
2030 2030 2030 2030 2030 2030 2030 2030 2030 
2030 2030 2030 2030 2030 2030 2030 2030 2030 
2030 2030 2030 2030 2030 2030 2030 2030 2030 
2030 2030 2030 2030 2030 2030 2030 2030 2030 
2030 2030 2030 2030 2030 2030 2030 2030 2030 
2030 2030 2030 2030 2030 2030 2030 2030 2030 
2030 2030 2030 2030 2030 2030 2030 2030 2030 
2030 2030 2030 2030 2030 2030 2030 2030 2030 
2030 2030 2030 2030 2030 2030 2030 2030 2030 
2030 2030 2030 2030 2030 2030 2030 2030 2030 
2030 2030 2030 2030 2030 2030 2030 2030 2030 
2030 2030 2030 2030 2030 2030 2030 2030 2030 
2030 2030 2030 2030 2030 2030 2030 2030 2030 
2030 2030 2030 2030 2030 2030 2030 2030 2030 
2030 2030 2030 2030 2030 2030 2030 2030 2030 
2030 2030 2030 2030 2030 2030 2030 2030 2030 
2030 2030 2030 2030 2030 2030 2030 2030 2030 
2030 2030 2030 2030 2030 2030 2030 2030 2030 
2030 2030 2030 2030 2030 2030 2030 2030 2030 
2030 2030 2030 2030 2030 2030 2030 2030 2030 
2030 2030 2030 2030 2030 2030 2030 2030 2030 
2030 2030 2030 2030 2030 2030 2030 2030 2030 
2030 2030 2030 2030 2030 2030 2030 2030 2030 
2030 2030 2030 2030 2030 2030 2030 2030 2030 
2030 2030 2030 2030 2030 2030 2030 2030 2030 
2030 2030 2030 2030 2030 2030 2030 2030 2030 
2030 2030 2030 2030 2030 2030 2030 2030 2030 
2030 2030 2030 2030 2030 2030 2030 2030 2030 
2030 2030 2030 2030 2030 2030 2030 2030 2030 
2030 2030 2030 2030 2030 2030 2030 2030 2030 
2030 2030 2030 2030 2030 2030 2030 2030 2030 
2030 2030 2030 2030 2030 2030 2030 2030 2030 
2030 2030 2030 2030 2030 2030 2030 2030 2030 
2030 2030 2030 2030 2030 2030 2030 2030 2030 
2030 2030 2030 2030 2030 2030 2030 2030 2030 
2030 2030 2030 2030 2030 2030 2030 2030 2030 
2030 2030 2030 2030 2030 2030 2030 2030 2030 
2030 2030 2030 2030 2030 2030 2030 2030 2030 
2030 2030 2030 2030 2030 2030 2030 2030 2030 
2030 2030 2030 2030 2030 2030 2030 2030 2030 
2030 2030 2030 2030 2030 2030 2030 2030 2030 
2030 2030 2030 2030 2030 2030 2030 2030 2030 
2030 2030 2030 2030 2030 2030 2030 2030 2030 
2030 2030 2030 2030 2030 2030 2030 2030 2030 
2030 2030 2030 2030 2030 2030 2030 2030 2030 
2030 2030 2030 2030 2030 2030 2030 2030 2030 
2030 2030 2030 2030 2030 2030 2030 2030 2030 
2030 2030 2030 2030 2030 2030 2030 2030 2030 
2030 2030 2030 2030 2030 2030 2030 2030 2030 
2030 2030 2030 2030 2030 2030 2030 2030 2030 
2030 2030 2030 2030 2030 2030 2030 2030 2030 
2030 2030 2030 2030 2030 2030 2030 2030 2030 
2030 2030 2030 2030 2030 2030 2030 2030 2030 
2030 2030 2030 2030 2030 2030 2030 2030 2030 
2030 2030 2030 2030 2030 2030 2030 2030 2030 
2030 2030 2030 2030 2030 2030 2030 2030 2030 
2030 2030 2030 2030 2030 2030 2030 2030 2030 
2030 2030 2030 2030 2030 2030 2030 2030 2030 
2030 2030 2030 2030 2030 2030 2030 2030 2030 
2030 2030 2030 2030 2030 2030 2030 2030 2030 
2030 2030 2030 2030 2030 2030 2030 2030 2030 
2030 2030 2030 2030 2030 2030 2030 2030 2030 
2030 2030 2030 2030 2030 2030 2030 2030 2030 
2030 2030 2030 2030 2030 2030 2030 2030 2030 
2030 2030 2030 2030 2030 2030 2030 2030 2030 
2030 2030 2030 2030 2030 2030 2030 2030 2030 
2030 2030 2030 2030 2030 2030 2030 2030 2030 
2030 2030 2030 2030 2030 2030 2030 2030 2030 
2030 2030 2030 2030 2030 2030 2030 2030 2030 
2030 2030 2030 2030 2030 2030 2030 2030 2030 
2030 2030 2030 2030 2030 2030 2030 2030 2030 
2030 2030 2030 2030 2030 2030 2030 2030 2030 
2030 2030 2030 2030 2030 2030 2030 2030 2030 
2030 2030 2030 2030 2030 2030 2030 2030 2030 
2030 2030 2030 2030 2030 2030 2030 2030 2030 
2030 2030 2030 2030 2030 2030 2030 2030 2030 
2030 2030 2030 2030 2030 2030 2030 2030 2030 
2030 2030 2030 2030 2030 2030 2030 2030 2030 
2030 2030 2030 2030 2030 2030 2030 2030 2030 
2030 2030 2030 2030 2030 2030 2030 2030 2030 
2030 2030 2030 2030 2030 2030 2030 2030 2030 
2030 2030 2030 2030 2030 2030 2030 2030 2030 
2030 2030 2030 2030 2030 2030 2030 2030 2030 
2030 2030 2030 2030 2030 2030 2030 2030 2030 
2030 2030 2030 2030 2030 2030 2030 2030 2030 
2030 2030 2030 2030 2030 2030 2030 2030 2030 
2030 2030 2030 2030 2030 2030 2030 2030 2030 
2030 2030 2030 2030 2030 2030 2030 2030 2030 
2030 2030 2030 2030 2030 2030 2030 2030 2030 
2030 2030 2030 2030 2030 2030 2030 2030 2030 
2030 2030 2030 2030 2030 2030 2030 2030 2030 
2030 2030 2030 2030 2030 2030 2030 2030 2030 
2030 2030 2030 2030 2030 2030 2030 2030 2030 
2030 2030 2030 2030 2030 2030 2030 2030 2030 
2030 2030 2030 2030 2030 2030 2030 2030 2030 
2030 2030 2030 2030 2030 2030 2030 2030 2030 
2030 2030 2030 2030 2030 2030 2030 2030 2030 
2030 2030 2030 2030 2030 2030 2030 2030 2030 
2030 2030 2030 2030 2030 2030 2030 2030 2030 
2030 2030 2030 2030 2030 2030 2030 2030 2030 
2030 2030 2030 2030 2030 2030 2030 2030 2030 
2030 2030 2030 2030 2030 2030 2030 2030 2030 
2030 2030 2030 2030 2030 2030 2030 2030 2030 
2030 2030 2030 2030 2030 2030 2030 2030 2030 
2030 2030 2030 2030 2030 2030 2030 2030 2030 
2030 2030 2030 2030 2030 2030 2030 2030 2030 
2030 2030 2030 2030 2030 2030 2030 2030 2030 
2030 2030 2030 2030 2030 2030 2030 2030 2030 
2030 2030 2030 2030 2030 2030 2030 2030 2030 
2030 2030 2030 2030 2030 2030 2030 2030 2030 
2030 2030 2030 2030 2030 2030 2030 2030 2030 
2030 2030 2030 2030 2030 2030 2030 2030 2030 
2030 2030 2030 2030 2030 2030 2030 2030 2030 
2030 2030 2030 2030 2030 2030 2030 2030 2030 
2030 2030 2030 2030 2030 2030 2030 2030 2030 
2030 2030 2030 2030 2030 2030 2030 2030 2030 
2030 2030 2030 2030 2030 2030 2030 2030 2030 
2030 2030 2030 2030 2030 2030 2030 2030 2030 
2030 2030 2030 2030 2030 2030 2030 2030 2030 
2030 2030 2030 2030 2030 2030 2030 2030 2030 
2030 2030 2030 2030 2030 2030 2030 2030 2030 
2030 2030 2030 2030 2030 2030 2030 2030 2030 
2030 2030 2030 2030 2030 2030 2030 2030 2030 
2030 2030 2030 2030 2030 2030 2030 2030 2030 
2030 2030 2030 2030 2030 2030 2030 2030 2030 
2030 2030 2030 2030 2030 2030 2030 2030 2030 
2030 2030 2030 2030 2030 2030 2030 2030 2030 
2030 2030 2030 2030 2030 2030 2030 2030 2030 
2030 2030 2030 2030 2030 2030 2030 2030 2030 
2030 2030 2030 2030 2030 2030 2030 2030 2030 
2030 2030 2030 2030 2030 2030 2030 2030 2030 
2030 2030 2030 2030 2030 2030 2030 2030 2030 
2030 2030 2030 2030 2030 2030 2030 2030 2030 
2030 2030 2030 2030 2030 2030 2030 2030 2030 
2030 2030 2030 2030 2030 2030 2030 2030 2030 
2030 2030 2030 2030 2030 2030 2030 2030 2030 
2030 2030 2030 2030 2030 2030 2030 2030 2030 
2030 2030 2030 2030 2030 2030 2030 2030 2030 
2030 2030 2030 2030 2030 2030 2030 2030 2030 
2030 2030 2030 2030 2030 2030 2030 2030 2030 
2030 2030 2030 2030 2030 2030 2030 2030 2030 
2030 2030 2030 2030 2030 2030 2030 2030 2030 
2030 2030 2030 2030 2030 2030 2030 2030 2030 
2030 2030 2030 2030 2030 2030 2030 2030 2030 
2030 2030 2030 2030 2030 2030 2030 2030 2030 
2030 2030 2030 2030 2030 2030 2030 2030 2030 
2030 2030 2030 2030 2030 2030 2030 2030 2030 
2030 2030 2030 2030 2030 2030 2030 2030 2030 
2030 2030 2030 2030 2030 2030 2030 2030 2030 
2030 2030 2030 2030 2030 2030 2030 2030 2030 
2030 2030 2030 2030 2030 2030 2030 2030 2030 
2030 2030 2030 2030 2030 2030 2030 2030 2030 
2030 2030 2030 2030 2030 2030 2030 2030 2030 
2030 2030 2030 2030 2030 2030 2030 2030 2030 
2030 2030 2030 2030 2030 2030 2030 2030 2030 
2030 2030 2030 2030 2030 2030 2030 2030 2030 
2030 2030 2030 2030 2030 2030 2030 2030 2030 
2030 2030 2030 2030 2030 2030 2030 2030 2030 
2030 2030 2030 2030 2030 2030 2030 2030 2030 
2030 2030 2030 2030 2030 2030 2030 2030 2030 
2030 2030 2030 2030 2030 2030 2030 2030 2030 
2030 2030 2030 2030 2030 2030 2030 2030 2030 
2030 2030 2030 2030 2030 2030 2030 2030 2030 
2030 2030 2030 2030 2030 2030 2030 2030 2030 
2030 2030 2030 2030 2030 2030 2030 2030 2030 
2030 2030 2030 2030 2030 2030 2030 2030 2030 
2030 2030 2030 2030 2030 2030 2030 2030 2030 
2030 2030 2030 2030 2030 2030 2030 2030 2030 
2030 2030 2030 2030 2030 2030 2030 2030 2030 
2030 2030 2030 2030 2030 2030 2030 2030 2030 
2030 2030 2030 2030 2030 2030 2030 2030 2030 
2030 2030 2030 2030 2030 2030 2030 2030 2030 
2030 2030 2030 2030 2030 2030 2030 2030 2030 
2030 2030 2030 2030 2030 2030 2030 2030 2030 
2030 2030 2030 2030 2030 2030 2030 2030 2030 
2030 2030 2030 2030 2030 2030 2030 2030 2030 
2030 2030 2030 2030 2030 2030 2030 2030 2030 
2030 2030 2030 2030 2030 2030 2030 2030 2030 
2030 2030 2030 2030 2030 2030 2030 2030 2030 
2030 2030 2030 2030 2030 2030 2030 2030 2030 
2030 2030 2030 2030 2030 2030 2030 2030 2030 
2030 2030 2030 2030 2030 2030 2030 2030 2030 
2030 2030 2030 2030 2030 2030 2030 2030 2030 
2030 2030 2030 2030 2030 2030 2030 2030 2030 
2030 2030 2030 2030 2030 2030 2030 2030 2030 
2030 2030 2030 2030 2030 2030 2030 2030 2030 
2030 2030 2030 2030 2030 2030 2030 2030 2030 
2030 2030 2030 2030 2030 2030 2030 2030 2030 
2030 2030 2030 2030 2030 2030 2030 2030 2030 
2030 2030 2030 2030 2030 2030 2030 2030 2030 
2030 2030 2030 2030 2030 2030 2030 2030 2030 
2030 2030 2030 2030 2030 2030 2030 2030 2030 
2030 2030 2030 2030 2030 2030 2030 2030 2030 
2030 2030 2030 2030 2030 2030 2030 2030 2030 
2030 2030 2030 2030 2030 2030 2030 2030 2030 
2030 2030 2030 2030 2030 2030 2030 2030 2030 
2030 2030 2030 2030 2030 2030 2030 2030 2030 
2030 2030 2030 2030 2030 2030 2030 2030 2030 
2030 2030 2030 2030 2030 2030 2030 2030 2030 
2030 2030 2030 2030 2030 2030 2030 2030 2030 
2030 2030 2030 2030 2030 2030 2030 2030 2030 
2030 2030 2030 2030 2030 2030 2030 2030 2030 
2030 2030 2030 2030 2030 2030 2030 2030 2030 
2030 2030 2030 2030 2030 2030 2030 2030 2030 
2030 2030 2030 2030 2030 2030 2030 2030 2030 
2030 2030 2030 2030 2030 2030 2030 2030 2030 
2030 2030 2030 2030 2030 2030 2030 2030 2030 
2030 2030 2030 2030 2030 2030 2030 2030 2030 
2030 2030 2030 2030 2030 2030 2030 2030 2030 
2030 2030 2030 2030 2030 2030 2030 2030 2030 
2030 2030 2030 2030 2030 2030 2030 2030 2030 
2030 2030 2030 2030 2030 2030 2030 2030 2030 
2030 2030 2030 2030 2030 2030 2030 2030 2030 
2030 2030 2030 2030 2030 2030 2030 2030 2030 
2030 2030 2030 2030 2030 2030 2030 2030 2030 
2030 2030 2030 2030 2030 2030 2030 2030 2030 
2030 2030 2030 2030 2030 2030 2030 2030 2030 
2030 2030 2030 2030 2030 2030 2030 2030 2030 
2030 2030 2030 2030 2030 2030 2030 2030 2030 
2030 2030 2030 2030 2030 2030 2030 2030 2030 
2030 2030 2030 2030 2030 2030 2030 2030 2030 
2030 2030 2030 2030 2030 2030 2030 2030 2030 
2030 2030 2030 2030 2030 2030 2030 2030 2030 
2030 2030 2030 2030 2030 2030 2030 2030 2030 
2030 2030 2030 2030 2030 2030 2030 2030 2030 
2030 2030 2030 2030 2030 2030 2030 2030 2030 
2030 2030 2030 2030 2030 2030 2030 2030 2030 
2030 2030 2030 2030 2030 2030 2030 2030 2030 
2030 2030 2030 2030 2030 2030 2030 2030 2030 
2030 2030 2030 2030 2030 2030 2030 2030 2030 
2030 2030 2030 2030 2030 2030 2030 2030 2030 
2030 2030 2030 2030 2030 2030 2030 2030 2030 
2030 2030 2030 2030 2030 2030 2030 2030 2030 
2030 2030 2030 2030 2030 2030 2030 2030 2030 
2030 2030 2030 2030 2030 2030 2030 2030 2030 
2030 2030 2030 2030 2030 2030 2030 2030 2030 
2030 2030 2030 2030 2030 2030 2030 2030 2030 
2030 2030 2030 2030 2030 2030 2030 2030 2030 
2030 2030 2030 2030 2030 2030 2030 2030 2030 
2030 2030 2030 2030 2030 2030 2030 2030 2030 
2030 2030 2030 2030 2030 2030 2030 2030 2030 
2030 2030 2030 2030 2030 2030 2030 2030 2030 
2030 2030 2030 2030 2030 2030 2030 2030 2030 
2030 2030 2030 2030 2030 2030 2030 2030 2030 
2030 2030 2030 2030 2030 2030 2030 2030 2030 
2030 2030 2030 2030 2030 2030 2030 2030 2030 
2030 2030 2030 2030 2030 2030 2030 2030 2030 
2030 2030 2030 2030 2030 2030 2030 2030 2030 
2030 2030 2030 2030 2030 2030 2030 2030 2030 
2030 2030 2030 2030 2030 2030 2030 2030 2030 
2030 2030 2030 2030 2030 2030 2030 2030 2030 
2030 2030 2030 2030 2030 2030 2030 2030 2030 
2030 2030 2030 2030 2030 2030 2030 2030 2030 
2030 2030 2030 2030 2030 2030 2030 2030 2030 
2030 2030 2030 2030 2030 2030 2030 2030 2030 
2030 2030 2030 2030 2030 2030 2030 2030 2030 
2030 2030 2030 2030 2030 2030 2030 2030 2030 
2030 2030 2030 2030 2030 2030 2030 2030 2030 
2030 2030 2030 2030 2030 2030 2030 2030 2030 
2030 2030 2030 2030 2030 2030 2030 2030 2030 
2030 2030 2030 2030 2030 2030 2030 2030 2030 
2030 2030 2030 2030 2030 2030 2030 2030 2030 
2030 2030 2030 2030 2030 2030 2030 2030 2030 
2030 2030 2030 2030 2030 2030 2030 2030 2030 
2030 2030 2030 2030 2030 2030 2030 2030 2030 
2030 2030 2030 2030 2030 2030 2030 2030 2030 
2030 2030 2030 2030 2030 2030 2030 2030 2030 
2030 2030 2030 2030 2030 2030 2030 2030 2030 
2030 2030 2030 2030 2030 2030 2030 2030 2030 
2030 2030 2030 2030 2030 2030 2030 2030 2030 
2030 2030 2030 2030 2030 2030 2030 2030 2030 
2030 2030 2030 2030 2030 2030 2030 2030 2030 
2030 2030 2030 2030 2030 2030 2030 2030 2030 
2030 2030 2030 2030 2030 2030 2030 2030 2030 
2030 2030 2030 2030 2030 2030 2030 2030 2030 
2030 2030 2030 2030 2030 2030 2030 2030 2030 
2030 2030 2030 2030 2030 2030 2030 2030 2030 
2030 2030 2030 2030 2030 2030 2030 2030 2030 
2030 2030 2030 2030 2030 2030 2030 2030 2030 
2030 2030 2030 2030 2030 2030 2030 2030 2030 
2030 2030 2030 2030 2030 2030 2030 2030 2030 
2030 2030 2030 2030 2030 2030 2030 2030 2030 
2030 2030 2030 2030 2030 2030 2030 2030 2030 
2030 2030 2030 2030 2030 2030 2030 2030 2030 
2030 2030 2030 2030 2030 2030 2030 2030 2030 
2030 2030 2030 2030 2030 2030 2030 2030 2030 
2030 2030 2030 2030 2030 2030 2030 2030 2030 
2030 2030 2030 2030 2030 2030 2030 2030 2030 
2030 2030 2030 2030 2030 2030 2030 2030 2030 
2030 2030 2030 2030 2030 2030 2030 2030 2030 
2030 2030 2030 2030 2030 2030 2030 2030 2030 
2030 2030 2030 2030 2030 2030 2030 2030 2030 
2030 2030 2030 2030 2030 2030 2030 2030 2030 
2030 2030 2030 2030 2030 2030 2030 2030 2030 
2030 2030 2030 2030 2030 2030 2030 2030 2030 
2030 2030 2030 2030 2030 2030 2030 2030 2030 
2030 2030 2030 2030 2030 2030 2030 2030 2030 
2030 2030 2030 2030 2030 2030 2030 2030 2030 
2030 2030 2030 2030 2030 2030 2030 2030 2030 
2030 2030 2030 2030 2030 2030 2030 2030 2030 
2030 2030 2030 2030 2030 2030 2030 2030 2030 
2030 2030 2030 2030 2030 2030 2030 2030 2030 
2030 2030 2030 2030 2030 2030 2030 2030 2030 
2030 2030 2030 2030 2030 2030 2030 2030 2030 
2030 2030 2030 2030 2030 2030 2030 2030 2030 
2030 2030 2030 2030 2030 2030 2030 2030 2030 
2030 2030 2030 2030 2030 2030 2030 2030 2030 
2030 2030 2030 2030 2030 2030 2030 2030 2030 
2030 2030 2030 2030 2030 2030 2030 2030 2030 
2030 2030 2030 2030 2030 2030 2030 2030 2030 
2030 2030 2030 2030 2030 2030 2030 2030 2030 
2030 2030 2030 2030 2030 2030 2030 2030 2030 
2030 2030 2030 2030 2030 2030 2030 2030 2030 
2030 2030 2030 2030 2030 2030 2030 2030 2030 
2030 2030 2030 2030 2030 2030 2030 2030 2030 
2030 2030 2030 2030 2030 2030 2030 2030 2030 
2030 2030 2030 2030 2030 2030 2030 2030 2030 
2030 2030 2030 2030 2030 2030 2030 2030 2030 
2030 2030 2030 2030 2030 2030 2030 2030 2030 
2030 2030 2030 2030 2030 2030 2030 2030 2030 
2030 2030 2030 2030 2030 2030 2030 2030 2030 
2030 2030 2030 2030 2030 2030 2030 2030 2030 
2030 2030 2030 2030 2030 2030 2030 2030 2030 
2030 2030 2030 2030 2030 2030 2030 2030 2030 
2030 2030 2030 2030 2030 2030 2030 2030 2030 
2030 2030 2030 2030 2030 2030 2030 2030 2030 
2030 2030 2030 2030 2030 2030 2030 2030 2030 
2030 2030 2030 2030 2030 2030 2030 2030 2030 
2030 2030 2030 2030 2030 2030 2030 2030 2030 
2030 2030 2030 2030 2030 2030 2030 2030 2030 
2030 2030 2030 2030 2030 2030 2030 2030 2030 
2030 2030 2030 2030 2030 2030 2030 2030 2030 
2030 2030 2030 2030 2030 2030 2030 2030 2030 
2030 2030 2030 2030 2030 2030 2030 2030 2030 
2030 2030 2030 2030 2030 2030 2030 2030 2030 
2030 2030 2030 2030 2030 2030 2030 2030 2030 
2030 2030 2030 2030 2030 2030 2030 2030 2030 
2030 2030 2030 2030 2030 2030 2030 2030 2030 
2030 2030 2030 2030 2030 2030 2030 2030 2030 
2030 2030 2030 2030 2030 2030 2030 2030 2030 
2030 2030 2030 2030 2030 2030 2030 2030 2030 
2030 2030 2030 2030 2030 2030 2030 2030 2030 
2030 2030 2030 2030 2030 2030 2030 2030 2030 
2030 2030 2030 2030 2030 2030 2030 2030 2030 
2030 2030 2030 2030 2030 2030 2030 2030 2030 
2030 2030 2030 2030 2030 2030 2030 2030 2030 
2030 2030 2030 2030 2030 2030 2030 2030 2030 
2030 2030 2030 2030 2030 2030 2030 2030 2030 
2030 2030 2030 2030 2030 2030 2030 2030 2030 
2030 2030 2030 2030 2030 2030 2030 2030 2030 
2030 2030 2030 2030 2030 2030 2030 2030 2030 
2030 2030 2030 2030 2030 2030 2030 2030 2030 
2030 2030 2030 2030 2030 2030 2030 2030 2030 
2030 2030 2030 2030 2030 2030 2030 2030 2030 
2030 2030 2030 2030 2030 2030 2030 2030 2030 
2030 2030 2030 2030 2030 2030 2030 2030 2030 
2030 2030 2030 2030 2030 2030 2030 2030 2030 
2030 2030 2030 2030 2030 2030 2030 2030 2030 
2030 2030 2030 2030 2030 2030 2030 2030 2030 
2030 2030 2030 2030 2030 2030 2030 2030 2030 
2030 2030 2030 2030 2030 2030 2030 2030 2030 
2030 2030 2030 2030 2030 2030 2030 2030 2030 
2030 2030 2030 2030 2030 2030 2030 2030 2030 
2030 2030 2030 2030 2030 2030 2030 2030 2030 
2030 2030 2030 2030 2030 2030 2030 2030 2030 
2030 2030 2030 2030 2030 2030 2030 2030 2030 
2030 2030 2030 2030 2030 2030 2030 2030 2030 
2030 2030 2030 2030 2030 2030 2030 2030 2030 
2030 2030 2030 2030 2030 2030 2030 2030 2030 
2030 2030 2030 2030 2030 2030 2030 2030 2030 
2030 2030 2030 2030 2030 2030 2030 2030 2030 
2030 2030 2030 2030 2030 2030 2030 2030 2030 
2030 2030 2030 2030 2030 2030 2030 2030 2030 
2030 2030 2030 2030 2030 2030 2030 2030 2030 
2030 2030 2030 2030 2030 2030 2030 2030 2030 
2030 2030 2030 2030 2030 2030 2030 2030 2030 
2030 2030 2030 2030 2030 2030 2030 2030 2030 
2030 2030 2030 2030 2030 2030 2030 2030 2030 
2030 2030 2030 2030 2030 2030 2030 2030 2030 
2030 2030 2030 2030 2030 2030 2030 2030 2030 
2030 2030 2030 2030 2030 2030 2030 2030 2030 
2030 2030 2030 2030 2030 2030 2030 2030 2030 
2030 2030 2030 2030 2030 2030 2030 2030 2030 
2030 2030 2030 2030 2030 2030 2030 2030 2030 
2030 2030 2030 2030 2030 2030 2030 2030 2030 
2030 2030 2030 2030 2030 2030 2030 2030 2030 
2030 2030 2030 2030 2030 2030 2030 2030 2030 
2030 2030 2030 2030 2030 2030 2030 2030 2030 
2030 2030 2030 2030 2030 2030 2030 2030 2030 
2030 2030 2030 2030 2030 2030 2030 2030 2030 
2030 2030 2030 2030 2030 2030 2030 2030 2030 
2030 2030 2030 2030 2030 2030 2030 2030 2030 
2030 2030 2030 2030 2030 2030 2030 2030 2030 
2030 2030 2030 2030 2030 2030 2030 2030 2030 
2030 2030 2030 2030 2030 2030 2030 2030 2030 
2030 2030 2030 2030 2030 2030 2030 2030 2030 
2030 2030 2030 2030 2030 2030 2030 2030 2030 