# vtk DataFile Version 4.2
vtk output
ASCII
DATASET POLYDATA
POINTS 5390 float
-4.09666 17.6049 1.13601 -4.0588 17.9985 0.946825 -3.70382 17.7501 0.931023 
-4.58075 17.6073 1.09043 -4.41857 18.0026 0.941776 -4.81507 17.7921 0.896141 
-3.49824 17.1035 1.14241 -3.26469 17.3924 0.893884 -3.00593 17.0372 0.976813 
-4.09084 17.0287 1.23438 -4.5281 17.1343 1.14854 -4.90602 17.2922 0.931187 
-2.97047 16.5549 1.12211 -2.75454 16.8143 0.939931 -2.52704 16.4105 0.904756 
-3.47846 16.4368 1.22692 -4.00391 16.5126 1.24359 -4.64148 16.4789 1.16596 
-4.96096 16.7136 0.934062 -2.86098 15.8893 1.15771 -2.45479 15.7094 0.963245 
-3.40267 15.9044 1.23851 -4.01225 15.8993 1.25536 -4.62819 15.8801 1.24229 
-5.14244 16.2386 0.964513 -5.1597 15.8377 1.11415 -5.46248 15.911 0.887293 
-2.84606 15.2592 1.17367 -2.51814 15.1633 0.998396 -3.39063 15.2803 1.24827 
-4.02341 15.2891 1.25363 -4.55137 15.3738 1.25477 -5.07271 15.2316 1.13658 
-5.53294 15.4465 0.93279 -2.77896 14.8167 1.10812 -2.58534 14.8094 0.839589 
-3.22235 14.7505 1.16546 -3.87056 14.7435 1.16664 -4.57612 14.7974 1.14093 
-4.99798 14.6537 0.854979 -5.37816 14.9925 0.731557 -2.92395 14.5499 0.979642 
-3.43487 14.3517 0.855258 -4.21506 14.3404 0.936754 -4.69824 14.3484 0.832503 
-4.06555 18.2322 0.64221 -4.05806 18.5602 0.322435 -3.70226 18.3221 0.311215 
-4.77199 18.2325 0.632259 -4.47035 18.6317 0.327905 -5.22334 18.1975 0.469711 
-5.14373 18.6365 0.20804 -5.49407 18.3354 0.215881 -2.93786 17.6991 0.459343 
-2.7987 17.8376 0.173561 -2.64077 17.5393 0.322334 -3.38259 17.8021 0.622256 
-3.19272 18.0467 0.20094 -5.24643 17.6358 0.627086 -5.56553 17.9176 0.321281 
-2.7742 17.1606 0.687154 -2.39492 17.14 0.292868 -5.31187 16.9319 0.694849 
-5.7185 17.473 0.367397 -5.72919 17.0567 0.481535 -6.02621 17.1515 0.266968 
-2.27519 16.6212 0.552795 -2.12552 16.8416 0.212549 -1.98551 16.4553 0.247682 
-5.39928 16.3475 0.740698 -5.77452 16.4695 0.533281 -6.13282 16.6545 0.303987 
-2.159 16.0386 0.650272 -1.94923 15.8834 0.263237 -5.79577 15.8082 0.632945 
-6.14842 16.0478 0.322943 -2.2482 15.3237 0.621565 -1.99197 15.3456 0.136043 
-5.77831 15.2862 0.640096 -6.01165 15.4986 0.255185 -2.29871 15.0634 0.201498 
-2.5928 14.8912 0.407542 -2.87926 14.5566 0.626358 -3.00318 14.7748 0.19817 
-5.02949 14.6695 0.467963 -5.1225 14.9633 0.144466 -5.69428 15.1489 0.330038 
-3.20918 14.2522 0.367749 -3.51915 13.9643 0.562418 -3.92909 14.0179 0.713411 
-4.45713 13.9193 0.573207 -4.80356 14.2446 0.417252 -3.47335 13.78 0.327704 
-3.74926 13.5107 0.227097 -3.92713 13.6119 0.453543 -4.30247 13.4998 0.318755 
-4.56085 13.7619 0.23671 -4.03037 13.3601 0.271193 -4.06247 18.8122 0.0206451 
-4.04249 19.1609 -0.273134 -3.7049 18.9116 -0.287439 -4.75039 18.9371 0.0222336 
-4.46133 19.2351 -0.265224 -5.16128 18.9366 -0.0442245 -5.15087 19.2461 -0.384366 
-5.49688 18.9323 -0.268895 -3.50759 18.4624 -0.0365982 -3.40397 18.6095 -0.292186 
-3.17272 18.3446 -0.241791 -5.91242 18.1267 -0.026033 -5.68135 18.5947 -0.128618 
-6.06295 18.4264 -0.320773 -2.87363 18.0346 -0.127144 -2.48367 17.683 -0.128856 
-5.98665 17.5833 0.131319 -6.3117 18.0739 -0.262926 -6.35505 17.6579 -0.11813 
-6.62455 17.7764 -0.331338 -2.19519 17.2053 -0.0385986 -2.13381 17.4808 -0.385121 
-1.96825 17.0311 -0.265535 -6.37924 17.0358 0.0212173 -6.7407 17.2676 -0.283607 
-1.8705 16.4891 -0.277588 -6.45667 16.3339 0.034584 -6.77019 16.6342 -0.258545 
-1.86322 15.877 -0.260422 -4.04777 15.7504 -0.124576 -3.682 15.8127 -0.363895 
-3.93638 16.0757 -0.401537 -4.28137 16.0662 -0.379362 -6.33549 15.8039 -0.0340576 
-6.76848 15.9248 -0.388889 -1.81784 15.3493 -0.366824 -3.47131 15.2838 -0.0790054 
-3.21697 15.3234 -0.276704 -3.44128 15.5158 -0.381834 -4.1126 15.2351 0.0166214 
-4.60956 15.7404 -0.371306 -4.55552 15.3233 -0.0366852 -4.91093 15.286 -0.296155 
-5.84938 15.3114 0.0345566 -5.57171 15.102 -0.0973022 -5.86433 15.4545 -0.35679 
-6.43866 15.585 -0.388641 -2.10849 15.0488 -0.263704 -2.77435 15.0263 -0.189267 
-3.4494 14.5425 0.0494705 -4.00532 14.6993 -0.0176102 -4.62609 14.7349 0.121156 
-5.06672 14.7008 -0.230113 -5.29535 14.7066 -0.0126068 -5.63757 14.5889 -0.157649 
-5.63473 14.983 -0.483444 -6.02547 14.7747 -0.476344 -3.5451 13.9196 0.101967 
-3.90615 14.1381 -0.0337189 -4.43629 14.1151 0.0495392 -5.22097 14.2447 -0.143344 
-5.06148 14.1529 -0.327191 -5.44574 14.1765 -0.347342 -5.87255 14.431 -0.440437 
-4.10219 13.6127 0.0989227 -5.1556 13.9518 -0.283063 -4.05314 19.4179 -0.564807 
-3.96692 19.7437 -1.06572 -3.64528 19.4587 -0.821695 -4.76257 19.5457 -0.563676 
-4.62072 19.7632 -0.942737 -5.1604 19.5455 -0.629013 -5.17926 19.7215 -0.937834 
-5.50382 19.5253 -0.876366 -3.39388 18.9147 -0.584697 -3.35636 19.2846 -0.962389 
-3.09779 18.9 -0.972652 -6.01133 18.8243 -0.539392 -5.81125 19.2287 -0.816 
-6.53875 18.7614 -0.708632 -6.36577 19.0954 -0.971086 -6.75526 18.968 -0.994176 
-2.8113 18.3047 -0.579817 -2.81236 18.5449 -1.0972 -2.51718 18.1524 -0.973622 
-6.48347 18.2885 -0.479411 -7.0615 18.6998 -0.980177 -6.95238 18.2823 -0.68497 
-7.34421 18.308 -0.942146 -2.30566 17.8709 -0.629649 -2.2461 17.8681 -0.987401 
-2.02091 17.5151 -0.831445 -6.96749 17.6489 -0.555524 -7.33558 17.8493 -0.848763 
-1.88118 17.0186 -0.787294 -7.05662 16.9219 -0.552077 -7.21458 17.1835 -0.9285 
-1.8644 16.5128 -0.866414 -4.52374 16.3355 -0.685469 -4.33535 16.4211 -0.995018 
-4.61492 16.662 -1.05861 -4.88692 16.5209 -0.963904 -7.07201 16.3045 -0.549953 
-7.1983 16.4376 -0.956071 -1.78542 15.8523 -0.837794 -3.83046 15.9584 -0.714917 
-4.11845 16.1682 -0.787189 -4.57826 16.0378 -0.497369 -4.89466 16.0779 -0.79324 
-7.07632 15.9157 -0.625589 -7.22381 15.9888 -0.857881 -1.60243 15.3607 -0.717023 
-1.56042 15.5354 -1.0936 -1.45879 15.246 -1.04323 -3.30339 15.1312 -0.542921 
-3.70278 15.5053 -0.774142 -5.16107 15.6084 -0.688165 -5.29594 15.1779 -0.44984 
-5.99462 15.1793 -0.579176 -5.59106 15.3401 -0.82695 -6.31969 15.3252 -0.590181 
-6.67376 15.3906 -0.777315 -7.03869 15.6218 -0.996222 -1.77417 15.0734 -0.852397 
-2.32213 14.9052 -0.767683 -2.85797 14.8006 -0.673718 -2.5228 14.7258 -1.04684 
-3.29281 14.7003 -0.726695 -3.68456 14.8861 -0.873408 -5.30385 14.5226 -0.539246 
-5.62026 14.8331 -0.896352 -6.38343 15.0284 -0.894273 -6.07314 14.7051 -0.914639 
-2.87886 14.4261 -0.979385 -3.48125 14.4787 -0.916145 -5.1651 14.0463 -0.404109 
-5.71515 14.4547 -0.747968 -3.48328 19.5874 -1.11815 -3.43696 19.7373 -1.5993 
-3.12268 19.3376 -1.36626 -4.11088 19.8167 -1.57516 -4.6297 19.8268 -1.4804 
-5.22798 19.8209 -1.47589 -5.91167 19.4861 -1.2323 -5.75569 19.7093 -1.45605 
-6.1715 19.5504 -1.60452 -2.94992 18.908 -1.34901 -6.37088 19.3221 -1.43417 
-7.03163 18.9389 -1.1942 -6.92693 19.1232 -1.45553 -7.34149 18.9078 -1.47259 
-2.76012 18.7141 -1.54743 -2.60376 18.3629 -1.49997 -7.65758 18.0885 -1.18634 
-7.55311 18.5549 -1.31154 -7.86994 18.4064 -1.63469 -2.15477 17.6139 -1.255 
-2.40543 17.8817 -1.4584 -7.53891 17.6088 -1.18617 -7.84553 17.8673 -1.54738 
-2.20087 17.4396 -1.70058 -1.96167 17.1422 -1.33636 -7.02478 17.0538 -1.2006 
-6.83225 16.9509 -1.49259 -7.23901 17.2678 -1.49443 -7.63371 17.5277 -1.58901 
-1.89666 16.5219 -1.48439 -4.35012 16.6098 -1.45424 -4.58495 16.8819 -1.49117 
-5.10186 16.8421 -1.49936 -5.29499 16.3364 -1.23046 -5.53369 16.5823 -1.58485 
-6.99045 16.7142 -1.20954 -6.68001 16.6104 -1.56863 -1.92861 15.8903 -1.61262 
-4.00662 15.7465 -1.12794 -4.22204 16.1002 -1.44104 -5.3617 15.7895 -1.09103 
-5.69608 16.2659 -1.48478 -5.71683 15.8555 -1.36268 -6.00179 15.9488 -1.58861 
-6.87967 16.2586 -1.61472 -7.27634 15.967 -1.47009 -1.61523 15.4916 -1.55061 
-1.44067 15.3385 -1.38311 -4.02487 15.1555 -1.18945 -4.31594 15.4696 -1.59424 
-5.82788 15.1871 -1.21837 -6.14767 15.4588 -1.55424 -6.71545 15.3059 -1.45662 
-7.10955 15.5579 -1.62697 -1.61245 15.1509 -1.45969 -2.08869 14.9124 -1.39518 
-2.38103 14.5715 -1.35323 -3.92887 14.5211 -1.17464 -4.35753 14.8464 -1.47761 
-5.82598 14.7081 -1.04965 -6.32202 15.0571 -1.37869 -2.37322 14.1909 -1.29629 
-2.11007 14.3424 -1.53268 -2.04821 14.0003 -1.52623 -2.72124 14.0438 -1.21381 
-3.34892 14.1261 -1.16761 -3.88664 14.0787 -1.32607 -4.30818 14.2849 -1.46899 
-2.37791 13.8189 -1.47107 -2.94227 13.7689 -1.46458 -3.58587 13.7762 -1.47718 
-4.09174 13.8883 -1.51815 -2.8778 19.5266 -1.79808 -2.91414 19.723 -2.22534 
-2.63317 19.3926 -2.10868 -3.46889 19.8208 -2.18681 -4.00198 19.8047 -2.07299 
-4.61703 19.7979 -2.07804 -5.22268 19.8062 -2.08876 -5.81658 19.8035 -2.09337 
-6.51225 19.4744 -1.87107 -6.36165 19.6967 -2.09106 -6.8036 19.5594 -2.22313 
-2.78127 19.1202 -1.74533 -2.57022 18.8679 -2.0675 -6.91094 19.344 -1.95326 
-7.70942 18.8206 -1.74235 -7.46071 19.1868 -2.00072 -7.89532 18.9659 -2.18117 
-2.44787 18.2161 -2.08029 -7.9802 18.3071 -2.08248 -2.36579 17.6852 -1.95435 
-7.82562 17.7664 -2.01896 -2.17095 17.4753 -2.15567 -1.98779 17.1155 -2.05822 
-4.77007 17.1324 -1.80468 -4.38138 17.0729 -2.01934 -4.66109 17.4348 -2.21618 
-5.14579 17.3077 -2.15788 -5.12265 17.1278 -1.83256 -5.48359 17.1333 -2.08447 
-7.12277 16.9329 -1.82745 -7.37277 17.0581 -2.23118 -7.5315 17.4723 -2.03729 
-2.02592 16.5878 -2.12429 -4.27614 16.536 -2.07829 -5.71738 16.8527 -1.92756 
-5.99203 16.4045 -1.76249 -6.42998 16.7864 -1.94154 -6.44496 16.3781 -1.75161 
-6.70796 16.5595 -2.19048 -7.10594 16.4683 -1.8322 -7.56513 16.7616 -2.08131 
-7.53503 16.6084 -1.95419 -7.73511 16.5098 -2.11213 -2.1886 16.164 -1.97746 
-2.23326 15.8969 -1.8944 -2.41279 15.9911 -2.27919 -4.37224 15.9223 -2.16457 
-6.47142 15.7907 -1.77904 -6.81276 16.0157 -2.21864 -7.56238 16.257 -1.99058 
-7.33441 15.8691 -2.04375 -1.56282 15.3049 -1.67918 -1.86231 15.2237 -1.86976 
-2.23669 15.6038 -2.08466 -4.57154 15.4966 -2.03463 -4.64646 15.1122 -1.82737 
-4.76971 15.2871 -2.21749 -6.44104 15.2962 -1.65294 -6.93495 15.6316 -1.99756 
-1.18404 14.6955 -1.96223 -1.05618 14.9258 -2.28559 -0.801334 14.592 -2.22606 
-1.62826 15.0229 -2.19547 -1.64867 14.7782 -1.89224 -2.02094 14.6937 -1.70794 
-4.76269 14.5295 -1.75591 -4.95427 14.8415 -2.20764 -1.05385 14.3525 -2.0074 
[...]
CELL_DATA 10804
SCALARS scalars float
LOOKUP_TABLE default
1017 1017 1017 1017 1017 1017 1017 1017 1017 
1017 1017 1017 1017 1017 1017 1017 1017 1017 
1017 1017 1017 1017 1017 1017 1017 1017 1017 
1017 1017 1017 1017 1017 1017 1017 1017 1017 
1017 1017 1017 1017 1017 1017 1017 1017 1017 
1017 1017 1017 1017 1017 1017 1017 1017 1017 
1017 1017 1017 1017 1017 1017 1017 1017 1017 
1017 1017 1017 1017 1017 1017 1017 1017 1017 
1017 1017 1017 1017 1017 1017 1017 1017 1017 
1017 1017 1017 1017 1017 1017 1017 1017 1017 
1017 1017 1017 1017 1017 1017 1017 1017 1017 
1017 1017 1017 1017 1017 1017 1017 1017 1017 
1017 1017 1017 1017 1017 1017 1017 1017 1017 
1017 1017 1017 1017 1017 1017 1017 1017 1017 
1017 1017 1017 1017 1017 1017 1017 1017 1017 
1017 1017 1017 1017 1017 1017 1017 1017 1017 
1017 1017 1017 1017 1017 1017 1017 1017 1017 
1017 1017 1017 1017 1017 1017 1017 1017 1017 
1017 1017 1017 1017 1017 1017 1017 1017 1017 
1017 1017 1017 1017 1017 1017 1017 1017 1017 
1017 1017 1017 1017 1017 1017 1017 1017 1017 
1017 1017 1017 1017 1017 1017 1017 1017 1017 
1017 1017 1017 1017 1017 1017 1017 1017 1017 
1017 1017 1017 1017 1017 1017 1017 1017 1017 
1017 1017 1017 1017 1017 1017 1017 1017 1017 
1017 1017 1017 1017 1017 1017 1017 1017 1017 
1017 1017 1017 1017 1017 1017 1017 1017 1017 
1017 1017 1017 1017 1017 1017 1017 1017 1017 
1017 1017 1017 1017 1017 1017 1017 1017 1017 
1017 1017 1017 1017 1017 1017 1017 1017 1017 
1017 1017 1017 1017 1017 1017 1017 1017 1017 
1017 1017 1017 1017 1017 1017 1017 1017 1017 
1017 1017 1017 1017 1017 1017 1017 1017 1017 
1017 1017 1017 1017 1017 1017 1017 1017 1017 
1017 1017 1017 1017 1017 1017 1017 1017 1017 
1017 1017 1017 1017 1017 1017 1017 1017 1017 
1017 1017 1017 1017 1017 1017 1017 1017 1017 
1017 1017 1017 1017 1017 1017 1017 1017 1017 
1017 1017 1017 1017 1017 1017 1017 1017 1017 
1017 1017 1017 1017 1017 1017 1017 1017 1017 
1017 1017 1017 1017 1017 1017 1017 1017 1017 
1017 1017 1017 1017 1017 1017 1017 1017 1017 
1017 1017 1017 1017 1017 1017 1017 1017 1017 
1017 1017 1017 1017 1017 1017 1017 1017 1017 
1017 1017 1017 1017 1017 1017 1017 1017 1017 
1017 1017 1017 1017 1017 1017 1017 1017 1017 
1017 1017 1017 1017 1017 1017 1017 1017 1017 
1017 1017 1017 1017 1017 1017 1017 1017 1017 
1017 1017 1017 1017 1017 1017 1017 1017 1017 
1017 1017 1017 1017 1017 1017 1017 1017 1017 
1017 1017 1017 1017 1017 1017 1017 1017 1017 
1017 1017 1017 1017 1017 1017 1017 1017 1017 
1017 1017 1017 1017 1017 1017 1017 1017 1017 
1017 1017 1017 1017 1017 1017 1017 1017 1017 
1017 1017 1017 1017 1017 1017 1017 1017 1017 
1017 1017 1017 1017 1017 1017 1017 1017 1017 
1017 1017 1017 1017 1017 1017 1017 1017 1017 
1017 1017 1017 1017 1017 1017 1017 1017 1017 
1017 1017 1017 1017 1017 1017 1017 1017 1017 
1017 1017 1017 1017 1017 1017 1017 1017 1017 
1017 1017 1017 1017 1017 1017 1017 1017 1017 
1017 1017 1017 1017 1017 1017 1017 1017 1017 
1017 1017 1017 1017 1017 1017 1017 1017 1017 
1017 1017 1017 1017 1017 1017 1017 1017 1017 
1017 1017 1017 1017 1017 1017 1017 1017 1017 
1017 1017 1017 1017 1017 1017 1017 1017 1017 
1017 1017 1017 1017 1017 1017 1017 1017 1017 
1017 1017 1017 1017 1017 1017 1017 1017 1017 
1017 1017 1017 1017 1017 1017 1017 1017 1017 
1017 1017 1017 1017 1017 1017 1017 1017 1017 
1017 1017 1017 1017 1017 1017 1017 1017 1017 
1017 1017 1017 1017 1017 1017 1017 1017 1017 
1017 1017 1017 1017 1017 1017 1017 1017 1017 
1017 1017 1017 1017 1017 1017 1017 1017 1017 
1017 1017 1017 1017 1017 1017 1017 1017 1017 
1017 1017 1017 1017 1017 1017 1017 1017 1017 
1017 1017 1017 1017 1017 1017 1017 1017 1017 
1017 1017 1017 1017 1017 1017 1017 1017 1017 
1017 1017 1017 1017 1017 1017 1017 1017 1017 
1017 1017 1017 1017 1017 1017 1017 1017 1017 
1017 1017 1017 1017 1017 1017 1017 1017 1017 
1017 1017 1017 1017 1017 1017 1017 1017 1017 
1017 1017 1017 1017 1017 1017 1017 1017 1017 
1017 1017 1017 1017 1017 1017 1017 1017 1017 
1017 1017 1017 1017 1017 1017 1017 1017 1017 
1017 1017 1017 1017 1017 1017 1017 1017 1017 
1017 1017 1017 1017 1017 1017 1017 1017 1017 
1017 1017 1017 1017 1017 1017 1017 1017 1017 
1017 1017 1017 1017 1017 1017 1017 1017 1017 
1017 1017 1017 1017 1017 1017 1017 1017 1017 
1017 1017 1017 1017 1017 1017 1017 1017 1017 
1017 1017 1017 1017 1017 1017 1017 1017 1017 
1017 1017 1017 1017 1017 1017 1017 1017 1017 
1017 1017 1017 1017 1017 1017 1017 1017 1017 
1017 1017 1017 1017 1017 1017 1017 1017 1017 
1017 1017 1017 1017 1017 1017 1017 1017 1017 
1017 1017 1017 1017 1017 1017 1017 1017 1017 
1017 1017 1017 1017 1017 1017 1017 1017 1017 
1017 1017 1017 1017 1017 1017 1017 1017 1017 
1017 1017 1017 1017 1017 1017 1017 1017 1017 
1017 1017 1017 1017 1017 1017 1017 1017 1017 
1017 1017 1017 1017 1017 1017 1017 1017 1017 
1017 1017 1017 1017 1017 1017 1017 1017 1017 
1017 1017 1017 1017 1017 1017 1017 1017 1017 
1017 1017 1017 1017 1017 1017 1017 1017 1017 
1017 1017 1017 1017 1017 1017 1017 1017 1017 
1017 1017 1017 1017 1017 1017 1017 1017 1017 
1017 1017 1017 1017 1017 1017 1017 1017 1017 
1017 1017 1017 1017 1017 1017 1017 1017 1017 
1017 1017 1017 1017 1017 1017 1017 1017 1017 
1017 1017 1017 1017 1017 1017 1017 1017 1017 
1017 1017 1017 1017 1017 1017 1017 1017 1017 
1017 1017 1017 1017 1017 1017 1017 1017 1017 
1017 1017 1017 1017 1017 1017 1017 1017 1017 
1017 1017 1017 1017 1017 1017 1017 1017 1017 
1017 1017 1017 1017 1017 1017 1017 1017 1017 
1017 1017 1017 1017 1017 1017 1017 1017 1017 
1017 1017 1017 1017 1017 1017 1017 1017 1017 
1017 1017 1017 1017 1017 1017 1017 1017 1017 
1017 1017 1017 1017 1017 1017 1017 1017 1017 
1017 1017 1017 1017 1017 1017 1017 1017 1017 
1017 1017 1017 1017 1017 1017 1017 1017 1017 
1017 1017 1017 1017 1017 1017 1017 1017 1017 
1017 1017 1017 1017 1017 1017 1017 1017 1017 
1017 1017 1017 1017 1017 1017 1017 1017 1017 
1017 1017 1017 1017 1017 1017 1017 1017 1017 
1017 1017 1017 1017 1017 1017 1017 1017 1017 
1017 1017 1017 1017 1017 1017 1017 1017 1017 
1017 1017 1017 1017 1017 1017 1017 1017 1017 
1017 1017 1017 1017 1017 1017 1017 1017 1017 
1017 1017 1017 1017 1017 1017 1017 1017 1017 
1017 1017 1017 1017 1017 1017 1017 1017 1017 
1017 1017 1017 1017 1017 1017 1017 1017 1017 
1017 1017 1017 1017 1017 1017 1017 1017 1017 
1017 1017 1017 1017 1017 1017 1017 1017 1017 
1017 1017 1017 1017 1017 1017 1017 1017 1017 
1017 1017 1017 1017 1017 1017 1017 1017 1017 
1017 1017 1017 1017 1017 1017 1017 1017 1017 
1017 1017 1017 1017 1017 1017 1017 1017 1017 
1017 1017 1017 1017 1017 1017 1017 1017 1017 
1017 1017 1017 1017 1017 1017 1017 1017 1017 
1017 1017 1017 1017 1017 1017 1017 1017 1017 
1017 1017 1017 1017 1017 1017 1017 1017 1017 
1017 1017 1017 1017 1017 1017 1017 1017 1017 
1017 1017 1017 1017 1017 1017 1017 1017 1017 
1017 1017 1017 1017 1017 1017 1017 1017 1017 
1017 1017 1017 1017 1017 1017 1017 1017 1017 
1017 1017 1017 1017 1017 1017 1017 1017 1017 
1017 1017 1017 1017 1017 1017 1017 1017 1017 
1017 1017 1017 1017 1017 1017 1017 1017 1017 
1017 1017 1017 1017 1017 1017 1017 1017 1017 
1017 1017 1017 1017 1017 1017 1017 1017 1017 
1017 1017 1017 1017 1017 1017 1017 1017 1017 
1017 1017 1017 1017 1017 1017 1017 1017 1017 
1017 1017 1017 1017 1017 1017 1017 1017 1017 
1017 1017 1017 1017 1017 1017 1017 1017 1017 
1017 1017 1017 1017 1017 1017 1017 1017 1017 
1017 1017 1017 1017 1017 1017 1017 1017 1017 
1017 1017 1017 1017 1017 1017 1017 1017 1017 
1017 1017 1017 1017 1017 1017 1017 1017 1017 
1017 1017 1017 1017 1017 1017 1017 1017 1017 
1017 1017 1017 1017 1017 1017 1017 1017 1017 
1017 1017 1017 1017 1017 1017 1017 1017 1017 
1017 1017 1017 1017 1017 1017 1017 1017 1017 
1017 1017 1017 1017 1017 1017 1017 1017 1017 
1017 1017 1017 1017 1017 1017 1017 1017 1017 
1017 1017 1017 1017 1017 1017 1017 1017 1017 
1017 1017 1017 1017 1017 1017 1017 1017 1017 
1017 1017 1017 1017 1017 1017 1017 1017 1017 
1017 1017 1017 1017 1017 1017 1017 1017 1017 
1017 1017 1017 1017 1017 1017 1017 1017 1017 
1017 1017 1017 1017 1017 1017 1017 1017 1017 
1017 1017 1017 1017 1017 1017 1017 1017 1017 
1017 1017 1017 1017 1017 1017 1017 1017 1017 
1017 1017 1017 1017 1017 1017 1017 1017 1017 
1017 1017 1017 1017 1017 1017 1017 1017 1017 
1017 1017 1017 1017 1017 1017 1017 1017 1017 
1017 1017 1017 1017 1017 1017 1017 1017 1017 
1017 1017 1017 1017 1017 1017 1017 1017 1017 
1017 1017 1017 1017 1017 1017 1017 1017 1017 
1017 1017 1017 1017 1017 1017 1017 1017 1017 
1017 1017 1017 1017 1017 1017 1017 1017 1017 
1017 1017 1017 1017 1017 1017 1017 1017 1017 
1017 1017 1017 1017 1017 1017 1017 1017 1017 
1017 1017 1017 1017 1017 1017 1017 1017 1017 
1017 1017 1017 1017 1017 1017 1017 1017 1017 
1017 1017 1017 1017 1017 1017 1017 1017 1017 
1017 1017 1017 1017 1017 1017 1017 1017 1017 
1017 1017 1017 1017 1017 1017 1017 1017 1017 
1017 1017 1017 1017 1017 1017 1017 1017 1017 
1017 1017 1017 1017 1017 1017 1017 1017 1017 
1017 1017 1017 1017 1017 1017 1017 1017 1017 
1017 1017 1017 1017 1017 1017 1017 1017 1017 
1017 1017 1017 1017 1017 1017 1017 1017 1017 
1017 1017 1017 1017 1017 1017 1017 1017 1017 
1017 1017 1017 1017 1017 1017 1017 1017 1017 
1017 1017 1017 1017 1017 1017 1017 1017 1017 
1017 1017 1017 1017 1017 1017 1017 1017 1017 
1017 1017 1017 1017 1017 1017 1017 1017 1017 
1017 1017 1017 1017 1017 1017 1017 1017 1017 
1017 1017 1017 1017 1017 1017 1017 1017 1017 
1017 1017 1017 1017 1017 1017 1017 1017 1017 
1017 1017 1017 1017 1017 1017 1017 1017 1017 
1017 1017 1017 1017 1017 1017 1017 1017 1017 
1017 1017 1017 1017 1017 1017 1017 1017 1017 
1017 1017 1017 1017 1017 1017 1017 1017 1017 
1017 1017 1017 1017 1017 1017 1017 1017 1017 
1017 1017 1017 1017 1017 1017 1017 1017 1017 
1017 1017 1017 1017 1017 1017 1017 1017 1017 
1017 1017 1017 1017 1017 1017 1017 1017 1017 
1017 1017 1017 1017 1017 1017 1017 1017 1017 
1017 1017 1017 1017 1017 1017 1017 1017 1017 
1017 1017 1017 1017 1017 1017 1017 1017 1017 
1017 1017 1017 1017 1017 1017 1017 1017 1017 
1017 1017 1017 1017 1017 1017 1017 1017 1017 
1017 1017 1017 1017 1017 1017 1017 1017 1017 
1017 1017 1017 1017 1017 1017 1017 1017 1017 
1017 1017 1017 1017 1017 1017 1017 1017 1017 
1017 1017 1017 1017 1017 1017 1017 1017 1017 
1017 1017 1017 1017 1017 1017 1017 1017 1017 
1017 1017 1017 1017 1017 1017 1017 1017 1017 
1017 1017 1017 1017 1017 1017 1017 1017 1017 
1017 1017 1017 1017 1017 1017 1017 1017 1017 
1017 1017 1017 1017 1017 1017 1017 1017 1017 
1017 1017 1017 1017 1017 1017 1017 1017 1017 
1017 1017 1017 1017 1017 1017 1017 1017 1017 
1017 1017 1017 1017 1017 1017 1017 1017 1017 
1017 1017 1017 1017 1017 1017 1017 1017 1017 
1017 1017 1017 1017 1017 1017 1017 1017 1017 
1017 1017 1017 1017 1017 1017 1017 1017 1017 
1017 1017 1017 1017 1017 1017 1017 1017 1017 
1017 1017 1017 1017 1017 1017 1017 1017 1017 
1017 1017 1017 1017 1017 1017 1017 1017 1017 
1017 1017 1017 1017 1017 1017 1017 1017 1017 
1017 1017 1017 1017 1017 1017 1017 1017 1017 
1017 1017 1017 1017 1017 1017 1017 1017 1017 
1017 1017 1017 1017 1017 1017 1017 1017 1017 
1017 1017 1017 1017 1017 1017 1017 1017 1017 
1017 1017 1017 1017 1017 1017 1017 1017 1017 
1017 1017 1017 1017 1017 1017 1017 1017 1017 
1017 1017 1017 1017 1017 1017 1017 1017 1017 
1017 1017 1017 1017 1017 1017 1017 1017 1017 
1017 1017 1017 1017 1017 1017 1017 1017 1017 
1017 1017 1017 1017 1017 1017 1017 1017 1017 
1017 1017 1017 1017 1017 1017 1017 1017 1017 
1017 1017 1017 1017 1017 1017 1017 1017 1017 
1017 1017 1017 1017 1017 1017 1017 1017 1017 
1017 1017 1017 1017 1017 1017 1017 1017 1017 
1017 1017 1017 1017 1017 1017 1017 1017 1017 
1017 1017 1017 1017 1017 1017 1017 1017 1017 
1017 1017 1017 1017 1017 1017 1017 1017 1017 
1017 1017 1017 1017 1017 1017 1017 1017 1017 
1017 1017 1017 1017 1017 1017 1017 1017 1017 
1017 1017 1017 1017 1017 1017 1017 1017 1017 
1017 1017 1017 1017 1017 1017 1017 1017 1017 
1017 1017 1017 1017 1017 1017 1017 1017 1017 
1017 1017 1017 1017 1017 1017 1017 1017 1017 
1017 1017 1017 1017 1017 1017 1017 1017 1017 
1017 1017 1017 1017 1017 1017 1017 1017 1017 
1017 1017 1017 1017 1017 1017 1017 1017 1017 
1017 1017 1017 1017 1017 1017 1017 1017 1017 
1017 1017 1017 1017 1017 1017 1017 1017 1017 
1017 1017 1017 1017 1017 1017 1017 1017 1017 
1017 1017 1017 1017 1017 1017 1017 1017 1017 
1017 1017 1017 1017 1017 1017 1017 1017 1017 
1017 1017 1017 1017 1017 1017 1017 1017 1017 
1017 1017 1017 1017 1017 1017 1017 1017 1017 
1017 1017 1017 1017 1017 1017 1017 1017 1017 
1017 1017 1017 1017 1017 1017 1017 1017 1017 
1017 1017 1017 1017 1017 1017 1017 1017 1017 
1017 1017 1017 1017 1017 1017 1017 1017 1017 
1017 1017 1017 1017 1017 1017 1017 1017 1017 
1017 1017 1017 1017 1017 1017 1017 1017 1017 
1017 1017 1017 1017 1017 1017 1017 1017 1017 
1017 1017 1017 1017 1017 1017 1017 1017 1017 
1017 1017 1017 1017 1017 1017 1017 1017 1017 
1017 1017 1017 1017 1017 1017 1017 1017 1017 
1017 1017 1017 1017 1017 1017 1017 1017 1017 
1017 1017 1017 1017 1017 1017 1017 1017 1017 
1017 1017 1017 1017 1017 1017 1017 1017 1017 
1017 1017 1017 1017 1017 1017 1017 1017 1017 
1017 1017 1017 1017 1017 1017 1017 1017 1017 
1017 1017 1017 1017 1017 1017 1017 1017 1017 
1017 1017 1017 1017 1017 1017 1017 1017 1017 
1017 1017 1017 1017 1017 1017 1017 1017 1017 
1017 1017 1017 1017 1017 1017 1017 1017 1017 
1017 1017 1017 1017 1017 1017 1017 1017 1017 
1017 1017 1017 1017 1017 1017 1017 1017 1017 
1017 1017 1017 1017 1017 1017 1017 1017 1017 
1017 1017 1017 1017 1017 1017 1017 1017 1017 
1017 1017 1017 1017 1017 1017 1017 1017 1017 
1017 1017 1017 1017 1017 1017 1017 1017 1017 
1017 1017 1017 1017 1017 1017 1017 1017 1017 
1017 1017 1017 1017 1017 1017 1017 1017 1017 
1017 1017 1017 1017 1017 1017 1017 1017 1017 
1017 1017 1017 1017 1017 1017 1017 1017 1017 
1017 1017 1017 1017 1017 1017 1017 1017 1017 
1017 1017 1017 1017 1017 1017 1017 1017 1017 
1017 1017 1017 1017 1017 1017 1017 1017 1017 
1017 1017 1017 1017 1017 1017 1017 1017 1017 
1017 1017 1017 1017 1017 1017 1017 1017 1017 
1017 1017 1017 1017 1017 1017 1017 1017 1017 
1017 1017 1017 1017 1017 1017 1017 1017 1017 
1017 1017 1017 1017 1017 1017 1017 1017 1017 
1017 1017 1017 1017 1017 1017 1017 1017 1017 
1017 1017 1017 1017 1017 1017 1017 1017 1017 
1017 1017 1017 1017 1017 1017 1017 1017 1017 
1017 1017 1017 1017 1017 1017 1017 1017 1017 
1017 1017 1017 1017 1017 1017 1017 1017 1017 
1017 1017 1017 1017 1017 1017 1017 1017 1017 
1017 1017 1017 1017 1017 1017 1017 1017 1017 
1017 1017 1017 1017 1017 1017 1017 1017 1017 
1017 1017 1017 1017 1017 1017 1017 1017 1017 
1017 1017 1017 1017 1017 1017 1017 1017 1017 
1017 1017 1017 1017 1017 1017 1017 1017 1017 
1017 1017 1017 1017 1017 1017 1017 1017 1017 
1017 1017 1017 1017 1017 1017 1017 1017 1017 
1017 1017 1017 1017 1017 1017 1017 1017 1017 
1017 1017 1017 1017 1017 1017 1017 1017 1017 
1017 1017 1017 1017 1017 1017 1017 1017 1017 
1017 1017 1017 1017 1017 1017 1017 1017 1017 
1017 1017 1017 1017 1017 1017 1017 1017 1017 
1017 1017 1017 1017 1017 1017 1017 1017 1017 
1017 1017 1017 1017 1017 1017 1017 1017 1017 
1017 1017 1017 1017 1017 1017 1017 1017 1017 
1017 1017 1017 1017 1017 1017 1017 1017 1017 
1017 1017 1017 1017 1017 1017 1017 1017 1017 
1017 1017 1017 1017 1017 1017 1017 1017 1017 
1017 1017 1017 1017 1017 1017 1017 1017 1017 
1017 1017 1017 1017 1017 1017 1017 1017 1017 
1017 1017 1017 1017 1017 1017 1017 1017 1017 
1017 1017 1017 1017 1017 1017 1017 1017 1017 
1017 1017 1017 1017 1017 1017 1017 1017 1017 
1017 1017 1017 1017 1017 1017 1017 1017 1017 
1017 1017 1017 1017 1017 1017 1017 1017 1017 
1017 1017 1017 1017 1017 1017 1017 1017 1017 
1017 1017 1017 1017 1017 1017 1017 1017 1017 
1017 1017 1017 1017 1017 1017 1017 1017 1017 
1017 1017 1017 1017 1017 1017 1017 1017 1017 
1017 1017 1017 1017 1017 1017 1017 1017 1017 
1017 1017 1017 1017 1017 1017 1017 1017 1017 
1017 1017 1017 1017 1017 1017 1017 1017 1017 
1017 1017 1017 1017 1017 1017 1017 1017 1017 
1017 1017 1017 1017 1017 1017 1017 1017 1017 
1017 1017 1017 1017 1017 1017 1017 1017 1017 
1017 1017 1017 1017 1017 1017 1017 1017 1017 
1017 1017 1017 1017 1017 1017 1017 1017 1017 
1017 1017 1017 1017 1017 1017 1017 1017 1017 
1017 1017 1017 1017 1017 1017 1017 1017 1017 
1017 1017 1017 1017 1017 1017 1017 1017 1017 
1017 1017 1017 1017 1017 1017 1017 1017 1017 
1017 1017 1017 1017 1017 1017 1017 1017 1017 
1017 1017 1017 1017 1017 1017 1017 1017 1017 
1017 1017 1017 1017 1017 1017 1017 1017 1017 
1017 1017 1017 1017 1017 1017 1017 1017 1017 
1017 1017 1017 1017 1017 1017 1017 1017 1017 
1017 1017 1017 1017 1017 1017 1017 1017 1017 
1017 1017 1017 1017 1017 1017 1017 1017 1017 
1017 1017 1017 1017 1017 1017 1017 1017 1017 
1017 1017 1017 1017 1017 1017 1017 1017 1017 
1017 1017 1017 1017 1017 1017 1017 1017 1017 
1017 1017 1017 1017 1017 1017 1017 1017 1017 
1017 1017 1017 1017 1017 1017 1017 1017 1017 
1017 1017 1017 1017 1017 1017 1017 1017 1017 
1017 1017 1017 1017 1017 1017 1017 1017 1017 
1017 1017 1017 1017 1017 1017 1017 1017 1017 
1017 1017 1017 1017 1017 1017 1017 1017 1017 
1017 1017 1017 1017 1017 1017 1017 1017 1017 
1017 1017 1017 1017 1017 1017 1017 1017 1017 
1017 1017 1017 1017 1017 1017 1017 1017 1017 
1017 1017 1017 1017 1017 1017 1017 1017 1017 
1017 1017 1017 1017 1017 1017 1017 1017 1017 
1017 1017 1017 1017 1017 1017 1017 1017 1017 
1017 1017 1017 1017 1017 1017 1017 1017 1017 
1017 1017 1017 1017 1017 1017 1017 1017 1017 
1017 1017 1017 1017 1017 1017 1017 1017 1017 
1017 1017 1017 1017 1017 1017 1017 1017 1017 
1017 1017 1017 1017 1017 1017 1017 1017 1017 
1017 1017 1017 1017 1017 1017 1017 1017 1017 
1017 1017 1017 1017 1017 1017 1017 1017 1017 
1017 1017 1017 1017 1017 1017 1017 1017 1017 
1017 1017 1017 1017 1017 1017 1017 1017 1017 
1017 1017 1017 1017 1017 1017 1017 1017 1017 
1017 1017 1017 1017 1017 1017 1017 1017 1017 
1017 1017 1017 1017 1017 1017 1017 1017 1017 
1017 1017 1017 1017 1017 1017 1017 1017 1017 
1017 1017 1017 1017 1017 1017 1017 1017 1017 
1017 1017 1017 1017 1017 1017 1017 1017 1017 
1017 1017 1017 1017 1017 1017 1017 1017 1017 
1017 1017 1017 1017 1017 1017 1017 1017 1017 
1017 1017 1017 1017 1017 1017 1017 1017 1017 
1017 1017 1017 1017 1017 1017 1017 1017 1017 
1017 1017 1017 1017 1017 1017 1017 1017 1017 
1017 1017 1017 1017 1017 1017 1017 1017 1017 
1017 1017 1017 1017 1017 1017 1017 1017 1017 
1017 1017 1017 1017 1017 1017 1017 1017 1017 
1017 1017 1017 1017 1017 1017 1017 1017 1017 
1017 1017 1017 1017 1017 1017 1017 1017 1017 
1017 1017 1017 1017 1017 1017 1017 1017 1017 
1017 1017 1017 1017 1017 1017 1017 1017 1017 
1017 1017 1017 1017 1017 1017 1017 1017 1017 
1017 1017 1017 1017 1017 1017 1017 1017 1017 
1017 1017 1017 1017 1017 1017 1017 1017 1017 
1017 1017 1017 1017 1017 1017 1017 1017 1017 
1017 1017 1017 1017 1017 1017 1017 1017 1017 
1017 1017 1017 1017 1017 1017 1017 1017 1017 
1017 1017 1017 1017 1017 1017 1017 1017 1017 
1017 1017 1017 1017 1017 1017 1017 1017 1017 
1017 1017 1017 1017 1017 1017 1017 1017 1017 
1017 1017 1017 1017 1017 1017 1017 1017 1017 
1017 1017 1017 1017 1017 1017 1017 1017 1017 
1017 1017 1017 1017 1017 1017 1017 1017 1017 
1017 1017 1017 1017 1017 1017 1017 1017 1017 
1017 1017 1017 1017 1017 1017 1017 1017 1017 
1017 1017 1017 1017 1017 1017 1017 1017 1017 
1017 1017 1017 1017 1017 1017 1017 1017 1017 
1017 1017 1017 1017 1017 1017 1017 1017 1017 
1017 1017 1017 1017 1017 1017 1017 1017 1017 
1017 1017 1017 1017 1017 1017 1017 1017 1017 
1017 1017 1017 1017 1017 1017 1017 1017 1017 
1017 1017 1017 1017 1017 1017 1017 1017 1017 
1017 1017 1017 1017 1017 1017 1017 1017 1017 
1017 1017 1017 1017 1017 1017 1017 1017 1017 
1017 1017 1017 1017 1017 1017 1017 1017 1017 
1017 1017 1017 1017 1017 1017 1017 1017 1017 
1017 1017 1017 1017 1017 1017 1017 1017 1017 
1017 1017 1017 1017 1017 1017 1017 1017 1017 
1017 1017 1017 1017 1017 1017 1017 1017 1017 
1017 1017 1017 1017 1017 1017 1017 1017 1017 
1017 1017 1017 1017 1017 1017 1017 1017 1017 
1017 1017 1017 1017 1017 1017 1017 1017 1017 
1017 1017 1017 1017 1017 1017 1017 1017 1017 
1017 1017 1017 1017 1017 1017 1017 1017 1017 