# vtk DataFile Version 4.2
vtk output
ASCII
DATASET POLYDATA
POINTS 10156 float
-6.59493 -21.9501 -24.0373 -6.4029 -21.6954 -24.3851 -6.25183 -22.0273 -24.2309 
-7.00053 -22.0146 -24.0684 -6.81301 -21.5876 -24.3437 -7.24253 -21.9006 -24.3509 
-6.40187 -22.3949 -24.0168 -6.09287 -22.567 -24.2989 -6.83084 -22.54 -24.0283 
-7.22691 -22.4714 -24.3238 -9.4344 -22.5541 -24.0349 -9.40239 -22.31 -24.3665 
-9.10091 -22.5689 -24.223 -9.84183 -22.6287 -24.0806 -9.80853 -22.1885 -24.3438 
-10.1633 -22.3677 -24.274 -14.9181 -22.4495 -24.1175 -14.7198 -22.2895 -24.2587 
-14.6002 -22.4987 -24.2388 -15.4797 -22.5415 -24.0666 -15.2372 -22.1706 -24.2175 
-16.1792 -22.6441 -24.0667 -15.9941 -22.1704 -24.3645 -16.3977 -22.621 -24.4993 
-6.43601 -22.9178 -24.0954 -6.17656 -23.0721 -24.2546 -6.78254 -23.0654 -24.205 
-7.08289 -22.9075 -24.3332 -8.95436 -22.9132 -24.0797 -8.77169 -22.8206 -24.4326 
-8.65196 -23.0856 -24.285 -9.37169 -23.006 -24.0393 -9.79303 -23.1283 -24.3405 
-10.1168 -22.7344 -24.2694 -14.8405 -22.7845 -24.4132 -15.5025 -22.8594 -24.3317 
-15.8111 -23.2211 -24.3149 -15.9047 -23.0045 -24.0265 -16.5928 -22.8522 -24.225 
-16.4449 -23.1899 -24.1011 -16.7274 -23.1072 -24.2759 -5.35101 -23.6728 -24.1253 
-5.14539 -23.5049 -24.2766 -5.03922 -23.7016 -24.2461 -5.67258 -23.7533 -24.135 
-5.59616 -23.4612 -24.2343 -6.49657 -23.2791 -24.4354 -5.94541 -23.7046 -24.3884 
-8.84494 -23.374 -24.3009 -9.38849 -23.412 -24.3289 -16.0267 -23.5676 -24.1409 
-15.8999 -23.6384 -24.3462 -16.2767 -23.6792 -24.2471 -16.5596 -23.3985 -24.3299 
-5.24138 -23.9471 -24.3314 -5.80386 -24.0142 -24.3295 -16.0139 -23.8432 -24.2918 
-7.61946 -25.537 -24.1725 -7.49306 -25.2979 -24.3351 -7.49655 -25.5604 -24.3774 
-7.81119 -25.4172 -24.3743 -7.68265 -25.6449 -24.381 -7.20303 -21.3655 -24.5753 
-7.16733 -21.1041 -24.9847 -6.85474 -21.351 -24.8639 -7.60213 -21.3908 -24.6725 
-7.47012 -21.0537 -24.7879 -7.80645 -21.2199 -24.874 -5.27671 -22.0763 -24.7261 
-5.16418 -21.786 -25.0087 -4.9067 -21.948 -24.8629 -5.49517 -21.9089 -25.1218 
-6.49715 -21.5084 -24.9062 -6.09883 -21.9231 -24.7852 -7.53065 -21.8421 -24.6321 
-7.93086 -21.84 -24.9769 -10.2252 -21.958 -24.5825 -10.0884 -21.6997 -25.0664 
-9.82252 -21.8954 -24.8113 -10.7865 -21.9663 -24.6316 -10.5061 -21.6682 -24.8833 
-11.3877 -21.9754 -24.6445 -11.0173 -21.5844 -24.9742 -11.9904 -21.9791 -24.6362 
-11.6411 -21.5799 -24.8824 -12.5898 -21.988 -24.6409 -12.2395 -21.5831 -24.8702 
-13.1772 -21.996 -24.6452 -12.8473 -21.5799 -24.8672 -13.7644 -21.9805 -24.6436 
-13.4524 -21.5945 -24.8682 -14.2938 -21.9017 -24.6554 -14.0498 -21.6015 -24.8775 
-14.8513 -21.9524 -24.5362 -14.6514 -21.5944 -24.8703 -15.575 -21.8499 -24.5361 
-15.3575 -21.5686 -24.9246 -16.0039 -21.8572 -24.6301 -16.0011 -21.6883 -24.945 
-16.377 -22.0308 -25.0382 -4.79099 -22.43 -24.6628 -4.60286 -22.1867 -25.0571 
-4.41601 -22.6131 -24.88 -5.29633 -22.5757 -24.5408 -5.76891 -22.066 -24.9851 
-5.7196 -22.3741 -24.6014 -7.44649 -22.4733 -24.7903 -7.68722 -22.2627 -24.9581 
-9.47233 -22.1567 -24.9193 -9.09181 -22.4766 -24.6993 -10.5375 -22.575 -24.478 
-11.2278 -22.5218 -24.5416 -11.8411 -22.5197 -24.5388 -12.3439 -22.4265 -24.5402 
-12.8574 -22.5635 -24.6279 -13.4625 -22.4386 -24.652 -14.2274 -22.4094 -24.5185 
-16.6904 -22.4908 -24.7525 -16.5719 -22.3165 -24.7466 -16.7489 -22.4728 -24.8939 
-4.55867 -22.9685 -24.6592 -4.25365 -23.1339 -24.9456 -5.10623 -23.0877 -24.4658 
-5.88963 -23.1395 -24.4706 -6.95448 -23.2145 -24.5234 -7.23865 -22.9841 -24.7433 
-8.77125 -22.7859 -25.0207 -8.49369 -23.1643 -24.6882 -10.1674 -23.0095 -24.501 
-10.5049 -23.1218 -24.6525 -11.0298 -23.0578 -24.6349 -11.6582 -23.0612 -24.631 
-12.3222 -23.013 -24.6556 -12.7375 -23.0862 -24.8803 -13.1487 -22.8687 -25.0332 
-13.7477 -22.7524 -24.9534 -14.3113 -22.8864 -24.8047 -14.6874 -23.1287 -24.7345 
-14.5817 -23.0365 -25.0134 -14.9328 -23.1073 -24.7828 -15.2713 -22.8729 -24.7911 
-15.9017 -22.7893 -24.7548 -16.0667 -23.1927 -24.5149 -16.5198 -22.5703 -24.8884 
-16.5158 -23.1165 -24.432 -4.70113 -23.5404 -24.561 -4.31337 -23.6152 -24.8785 
-6.43019 -23.4682 -24.9876 -6.10674 -23.6692 -24.7935 -6.94052 -23.3205 -24.9323 
-8.37229 -23.6754 -24.6552 -8.16121 -23.4286 -25.0735 -8.06682 -23.7991 -24.964 
-8.76705 -23.7785 -24.4876 -9.19655 -23.8387 -24.5832 -9.64862 -23.695 -24.8416 
-10.1108 -23.3839 -24.9388 -10.6847 -23.3233 -24.8763 -11.1891 -23.2959 -24.953 
-11.9073 -23.3332 -24.9396 -12.4374 -23.3398 -25.0047 -14.7974 -23.2207 -24.8896 
-16.1875 -23.612 -24.429 -3.95572 -24.3247 -24.8028 -3.9037 -24.0739 -24.955 
-3.82628 -24.2672 -25.0384 -4.64095 -23.9868 -24.8114 -4.16139 -24.3522 -24.9755 
-5.22298 -24.3446 -24.6577 -4.93349 -24.3994 -24.9378 -5.83017 -24.4073 -24.5443 
-6.10587 -24.1805 -24.8733 -7.70711 -24.4702 -24.6922 -7.65491 -24.1616 -25.0358 
-7.30665 -24.3692 -24.8767 -8.27697 -24.0646 -24.8094 -7.92338 -24.2687 -24.8574 
-8.48994 -24.3159 -24.8623 -8.72541 -24.1252 -24.6896 -9.18352 -24.2592 -24.8413 
-9.47464 -24.1067 -24.9608 -3.97723 -24.4484 -24.8912 -5.29383 -24.645 -24.8648 
-5.56162 -24.986 -24.925 -5.77937 -24.8335 -24.6753 -6.43717 -24.5763 -24.9426 
-6.39706 -24.8164 -24.6446 -7.07466 -24.9508 -24.6487 -6.91215 -24.5766 -24.9452 
-7.75566 -24.9817 -24.5045 -8.12866 -24.5069 -24.8084 -8.11391 -24.787 -24.6987 
-8.89728 -24.4698 -25.0585 -8.33619 -24.7822 -24.9502 -5.91544 -25.2727 -24.8197 
-6.07025 -25.7381 -24.8371 -6.47061 -25.4542 -24.6614 -6.87246 -25.4129 -24.8283 
-7.01611 -25.3115 -24.8642 -7.26038 -25.3993 -24.6977 -8.16439 -25.1896 -24.9171 
-7.8879 -25.5727 -24.743 -6.42621 -26.0316 -24.6866 -6.12527 -26.1648 -24.925 
-6.93734 -25.7806 -24.8172 -6.83799 -26.0963 -24.7222 -7.56444 -25.6593 -24.8889 
-7.15193 -26.0657 -24.9539 -6.52662 -26.3659 -24.9868 -7.02043 -26.3086 -25.0133 
-3.48138 -19.0138 -25.3177 -3.43781 -18.8203 -25.4311 -3.3216 -18.9957 -25.3864 
-3.56182 -19.0409 -25.6129 -3.38673 -19.3307 -25.3226 -3.17466 -19.4188 -25.5863 
-3.60853 -19.4534 -25.5221 -3.4597 -19.7522 -25.5391 -8.16109 -20.2372 -25.3069 
-8.15514 -19.7892 -25.5254 -7.90792 -20.1286 -25.6157 -8.40693 -19.9773 -25.4702 
-2.41419 -20.7206 -25.2895 -2.17992 -20.3734 -25.5555 -2.03308 -20.7406 -25.6549 
-2.9372 -20.8527 -25.2666 -2.6126 -20.4075 -25.4566 -3.09356 -20.5994 -25.5023 
-7.70827 -20.7614 -25.1911 -7.68318 -20.5429 -25.6015 -7.51146 -20.8131 -25.5869 
-8.23795 -20.778 -25.2378 -8.52531 -20.518 -25.4388 -11.911 -20.8043 -25.2838 
-11.8426 -20.4324 -25.4712 -11.497 -20.6911 -25.48 -12.5593 -20.7706 -25.2724 
-12.3206 -20.3698 -25.5386 -13.125 -20.853 -25.31 -12.9301 -20.5042 -25.5604 
-13.3318 -20.6556 -25.5794 -2.28041 -21.0428 -25.3628 -2.42991 -21.5199 -25.5194 
-2.68467 -21.1998 -25.1994 -3.35046 -20.9591 -25.4253 -3.21122 -21.3797 -25.2847 
-3.58529 -21.2301 -25.5239 -6.50046 -21.3553 -25.3549 -6.27062 -21.1921 -25.688 
-6.15775 -21.5216 -25.4111 -6.97423 -21.2933 -25.1848 -6.71958 -21.2162 -25.6243 
-7.23167 -21.1341 -25.4448 -8.16987 -21.3652 -25.1453 -8.54906 -21.2573 -25.5106 
-11.3885 -21.2009 -25.2197 -11.1083 -21.0519 -25.5205 -10.9324 -21.3521 -25.3826 
-11.8853 -21.2723 -25.0842 -12.3921 -21.1941 -25.0952 -13.0039 -21.201 -25.0979 
-13.5429 -20.9007 -25.436 -13.6538 -21.2259 -25.1728 -14.3489 -21.2952 -25.1727 
-14.0398 -20.9894 -25.4675 -14.9746 -21.2954 -25.1869 -14.7417 -20.9864 -25.5458 
-15.4816 -21.3088 -25.2825 -15.3856 -21.0965 -25.5735 -15.8009 -21.2299 -25.593 
-2.81586 -21.7279 -25.3005 -2.62802 -21.9502 -25.6012 -3.15916 -21.8288 -25.4083 
-3.50258 -21.5947 -25.513 -5.19528 -21.712 -25.4167 -4.86801 -21.8432 -25.27 
-5.54281 -21.8133 -25.524 -5.98119 -21.9026 -25.3504 -6.83419 -21.382 -25.3137 
-8.24311 -21.8716 -25.2277 -8.40453 -21.7912 -25.4502 -9.9965 -21.6962 -25.5804 
-9.71461 -21.882 -25.335 -10.4613 -21.5158 -25.4558 -15.9304 -21.4529 -25.3312 
-16.6865 -21.9071 -25.3515 -16.4962 -21.7218 -25.4665 -16.7704 -21.9038 -25.508 
-2.96844 -22.0654 -25.601 -4.5108 -22.115 -25.5791 -4.2905 -22.6064 -25.3991 
-5.78609 -21.9957 -25.3886 -7.60648 -22.6364 -25.24 -7.8565 -22.4246 -25.3768 
-8.20687 -22.1704 -25.5724 -9.41363 -22.1966 -25.639 -9.10867 -22.4815 -25.331 
-14.8071 -22.6176 -25.3178 -14.4804 -22.491 -25.5056 -14.7726 -22.3003 -25.7146 
-15.4315 -22.2906 -25.5878 -15.4927 -22.5858 -25.1984 -16.0269 -22.2333 -25.4378 
-16.1819 -22.4432 -25.1263 -16.5364 -22.01 -25.5766 -16.591 -22.3886 -25.0043 
-4.02146 -23.0227 -25.2865 -4.02762 -22.8927 -25.579 -3.82573 -23.2701 -25.5254 
-7.34648 -23.0316 -25.3207 -7.63571 -22.8146 -25.7059 -8.80397 -22.7984 -25.6416 
-8.46491 -23.087 -25.3317 -11.4153 -23.1583 -25.2141 -11.0088 -23.166 -25.4231 
-11.1929 -22.9603 -25.6254 -11.5899 -22.8671 -25.5979 -11.8502 -23.2169 -25.269 
-12.0416 -23.0474 -25.535 -12.7024 -23.1815 -25.2939 -13.0446 -22.9067 -25.5917 
-13.5069 -22.8526 -25.4315 -14.1065 -22.7507 -25.4393 -14.9655 -22.986 -25.0317 
-4.07741 -23.6918 -25.0933 -3.74405 -23.81 -25.3529 -6.20295 -23.8679 -25.3689 
-6.56007 -23.5525 -25.6112 -6.95147 -23.3544 -25.5043 -8.16943 -23.3773 -25.6414 
-7.9531 -23.7204 -25.3758 -9.83292 -23.7938 -25.456 -10.1666 -23.5328 -25.6257 
-10.6157 -23.3436 -25.4177 -12.2661 -23.3161 -25.3146 -3.79034 -24.1488 -25.577 
-4.57527 -24.3482 -25.0646 -6.19158 -24.3393 -25.5642 -7.67314 -24.0118 -25.5908 
-7.29879 -24.2736 -25.3289 -8.21051 -24.3002 -25.0873 -9.36492 -24.3985 -25.1501 
-9.61467 -24.18 -25.3643 -4.05466 -24.5416 -25.2545 -4.59415 -24.8545 -25.2364 
-4.33176 -24.8235 -25.6551 -5.13296 -24.8718 -25.0928 -6.47869 -24.5631 -25.4988 
-6.92128 -24.5355 -25.4844 -8.84616 -24.6657 -25.5994 -8.46111 -24.8788 -25.3609 
-9.35485 -24.5189 -25.5423 -4.70059 -25.2306 -25.4819 -4.93848 -25.5459 -25.6545 
-5.16483 -25.448 -25.2785 -5.64331 -25.4037 -25.0472 -7.1868 -25.6933 -25.057 
-7.93228 -25.5347 -25.3272 -8.2526 -25.2204 -25.6443 -5.28278 -25.8412 -25.4729 
-5.52211 -26.1506 -25.6508 -5.69167 -25.9458 -25.1867 -7.48607 -25.7919 -25.6221 
-7.20872 -26.1006 -25.3333 -6.00886 -26.3613 -25.4178 -6.40504 -26.4666 -25.4532 
[...]
CELL_DATA 20448
SCALARS scalars float
LOOKUP_TABLE default
1013 1013 1013 1013 1013 1013 1013 1013 1013 
1013 1013 1013 1013 1013 1013 1013 1013 1013 
1013 1013 1013 1013 1013 1013 1013 1013 1013 
1013 1013 1013 1013 1013 1013 1013 1013 1013 
1013 1013 1013 1013 1013 1013 1013 1013 1013 
1013 1013 1013 1013 1013 1013 1013 1013 1013 
1013 1013 1013 1013 1013 1013 1013 1013 1013 
1013 1013 1013 1013 1013 1013 1013 1013 1013 
1013 1013 1013 1013 1013 1013 1013 1013 1013 
1013 1013 1013 1013 1013 1013 1013 1013 1013 
1013 1013 1013 1013 1013 1013 1013 1013 1013 
1013 1013 1013 1013 1013 1013 1013 1013 1013 
1013 1013 1013 1013 1013 1013 1013 1013 1013 
1013 1013 1013 1013 1013 1013 1013 1013 1013 
1013 1013 1013 1013 1013 1013 1013 1013 1013 
1013 1013 1013 1013 1013 1013 1013 1013 1013 
1013 1013 1013 1013 1013 1013 1013 1013 1013 
1013 1013 1013 1013 1013 1013 1013 1013 1013 
1013 1013 1013 1013 1013 1013 1013 1013 1013 
1013 1013 1013 1013 1013 1013 1013 1013 1013 
1013 1013 1013 1013 1013 1013 1013 1013 1013 
1013 1013 1013 1013 1013 1013 1013 1013 1013 
1013 1013 1013 1013 1013 1013 1013 1013 1013 
1013 1013 1013 1013 1013 1013 1013 1013 1013 
1013 1013 1013 1013 1013 1013 1013 1013 1013 
1013 1013 1013 1013 1013 1013 1013 1013 1013 
1013 1013 1013 1013 1013 1013 1013 1013 1013 
1013 1013 1013 1013 1013 1013 1013 1013 1013 
1013 1013 1013 1013 1013 1013 1013 1013 1013 
1013 1013 1013 1013 1013 1013 1013 1013 1013 
1013 1013 1013 1013 1013 1013 1013 1013 1013 
1013 1013 1013 1013 1013 1013 1013 1013 1013 
1013 1013 1013 1013 1013 1013 1013 1013 1013 
1013 1013 1013 1013 1013 1013 1013 1013 1013 
1013 1013 1013 1013 1013 1013 1013 1013 1013 
1013 1013 1013 1013 1013 1013 1013 1013 1013 
1013 1013 1013 1013 1013 1013 1013 1013 1013 
1013 1013 1013 1013 1013 1013 1013 1013 1013 
1013 1013 1013 1013 1013 1013 1013 1013 1013 
1013 1013 1013 1013 1013 1013 1013 1013 1013 
1013 1013 1013 1013 1013 1013 1013 1013 1013 
1013 1013 1013 1013 1013 1013 1013 1013 1013 
1013 1013 1013 1013 1013 1013 1013 1013 1013 
1013 1013 1013 1013 1013 1013 1013 1013 1013 
1013 1013 1013 1013 1013 1013 1013 1013 1013 
1013 1013 1013 1013 1013 1013 1013 1013 1013 
1013 1013 1013 1013 1013 1013 1013 1013 1013 
1013 1013 1013 1013 1013 1013 1013 1013 1013 
1013 1013 1013 1013 1013 1013 1013 1013 1013 
1013 1013 1013 1013 1013 1013 1013 1013 1013 
1013 1013 1013 1013 1013 1013 1013 1013 1013 
1013 1013 1013 1013 1013 1013 1013 1013 1013 
1013 1013 1013 1013 1013 1013 1013 1013 1013 
1013 1013 1013 1013 1013 1013 1013 1013 1013 
1013 1013 1013 1013 1013 1013 1013 1013 1013 
1013 1013 1013 1013 1013 1013 1013 1013 1013 
1013 1013 1013 1013 1013 1013 1013 1013 1013 
1013 1013 1013 1013 1013 1013 1013 1013 1013 
1013 1013 1013 1013 1013 1013 1013 1013 1013 
1013 1013 1013 1013 1013 1013 1013 1013 1013 
1013 1013 1013 1013 1013 1013 1013 1013 1013 
1013 1013 1013 1013 1013 1013 1013 1013 1013 
1013 1013 1013 1013 1013 1013 1013 1013 1013 
1013 1013 1013 1013 1013 1013 1013 1013 1013 
1013 1013 1013 1013 1013 1013 1013 1013 1013 
1013 1013 1013 1013 1013 1013 1013 1013 1013 
1013 1013 1013 1013 1013 1013 1013 1013 1013 
1013 1013 1013 1013 1013 1013 1013 1013 1013 
1013 1013 1013 1013 1013 1013 1013 1013 1013 
1013 1013 1013 1013 1013 1013 1013 1013 1013 
1013 1013 1013 1013 1013 1013 1013 1013 1013 
1013 1013 1013 1013 1013 1013 1013 1013 1013 
1013 1013 1013 1013 1013 1013 1013 1013 1013 
1013 1013 1013 1013 1013 1013 1013 1013 1013 
1013 1013 1013 1013 1013 1013 1013 1013 1013 
1013 1013 1013 1013 1013 1013 1013 1013 1013 
1013 1013 1013 1013 1013 1013 1013 1013 1013 
1013 1013 1013 1013 1013 1013 1013 1013 1013 
1013 1013 1013 1013 1013 1013 1013 1013 1013 
1013 1013 1013 1013 1013 1013 1013 1013 1013 
1013 1013 1013 1013 1013 1013 1013 1013 1013 
1013 1013 1013 1013 1013 1013 1013 1013 1013 
1013 1013 1013 1013 1013 1013 1013 1013 1013 
1013 1013 1013 1013 1013 1013 1013 1013 1013 
1013 1013 1013 1013 1013 1013 1013 1013 1013 
1013 1013 1013 1013 1013 1013 1013 1013 1013 
1013 1013 1013 1013 1013 1013 1013 1013 1013 
1013 1013 1013 1013 1013 1013 1013 1013 1013 
1013 1013 1013 1013 1013 1013 1013 1013 1013 
1013 1013 1013 1013 1013 1013 1013 1013 1013 
1013 1013 1013 1013 1013 1013 1013 1013 1013 
1013 1013 1013 1013 1013 1013 1013 1013 1013 
1013 1013 1013 1013 1013 1013 1013 1013 1013 
1013 1013 1013 1013 1013 1013 1013 1013 1013 
1013 1013 1013 1013 1013 1013 1013 1013 1013 
1013 1013 1013 1013 1013 1013 1013 1013 1013 
1013 1013 1013 1013 1013 1013 1013 1013 1013 
1013 1013 1013 1013 1013 1013 1013 1013 1013 
1013 1013 1013 1013 1013 1013 1013 1013 1013 
1013 1013 1013 1013 1013 1013 1013 1013 1013 
1013 1013 1013 1013 1013 1013 1013 1013 1013 
1013 1013 1013 1013 1013 1013 1013 1013 1013 
1013 1013 1013 1013 1013 1013 1013 1013 1013 
1013 1013 1013 1013 1013 1013 1013 1013 1013 
1013 1013 1013 1013 1013 1013 1013 1013 1013 
1013 1013 1013 1013 1013 1013 1013 1013 1013 
1013 1013 1013 1013 1013 1013 1013 1013 1013 
1013 1013 1013 1013 1013 1013 1013 1013 1013 
1013 1013 1013 1013 1013 1013 1013 1013 1013 
1013 1013 1013 1013 1013 1013 1013 1013 1013 
1013 1013 1013 1013 1013 1013 1013 1013 1013 
1013 1013 1013 1013 1013 1013 1013 1013 1013 
1013 1013 1013 1013 1013 1013 1013 1013 1013 
1013 1013 1013 1013 1013 1013 1013 1013 1013 
1013 1013 1013 1013 1013 1013 1013 1013 1013 
1013 1013 1013 1013 1013 1013 1013 1013 1013 
1013 1013 1013 1013 1013 1013 1013 1013 1013 
1013 1013 1013 1013 1013 1013 1013 1013 1013 
1013 1013 1013 1013 1013 1013 1013 1013 1013 
1013 1013 1013 1013 1013 1013 1013 1013 1013 
1013 1013 1013 1013 1013 1013 1013 1013 1013 
1013 1013 1013 1013 1013 1013 1013 1013 1013 
1013 1013 1013 1013 1013 1013 1013 1013 1013 
1013 1013 1013 1013 1013 1013 1013 1013 1013 
1013 1013 1013 1013 1013 1013 1013 1013 1013 
1013 1013 1013 1013 1013 1013 1013 1013 1013 
1013 1013 1013 1013 1013 1013 1013 1013 1013 
1013 1013 1013 1013 1013 1013 1013 1013 1013 
1013 1013 1013 1013 1013 1013 1013 1013 1013 
1013 1013 1013 1013 1013 1013 1013 1013 1013 
1013 1013 1013 1013 1013 1013 1013 1013 1013 
1013 1013 1013 1013 1013 1013 1013 1013 1013 
1013 1013 1013 1013 1013 1013 1013 1013 1013 
1013 1013 1013 1013 1013 1013 1013 1013 1013 
1013 1013 1013 1013 1013 1013 1013 1013 1013 
1013 1013 1013 1013 1013 1013 1013 1013 1013 
1013 1013 1013 1013 1013 1013 1013 1013 1013 
1013 1013 1013 1013 1013 1013 1013 1013 1013 
1013 1013 1013 1013 1013 1013 1013 1013 1013 
1013 1013 1013 1013 1013 1013 1013 1013 1013 
1013 1013 1013 1013 1013 1013 1013 1013 1013 
1013 1013 1013 1013 1013 1013 1013 1013 1013 
1013 1013 1013 1013 1013 1013 1013 1013 1013 
1013 1013 1013 1013 1013 1013 1013 1013 1013 
1013 1013 1013 1013 1013 1013 1013 1013 1013 
1013 1013 1013 1013 1013 1013 1013 1013 1013 
1013 1013 1013 1013 1013 1013 1013 1013 1013 
1013 1013 1013 1013 1013 1013 1013 1013 1013 
1013 1013 1013 1013 1013 1013 1013 1013 1013 
1013 1013 1013 1013 1013 1013 1013 1013 1013 
1013 1013 1013 1013 1013 1013 1013 1013 1013 
1013 1013 1013 1013 1013 1013 1013 1013 1013 
1013 1013 1013 1013 1013 1013 1013 1013 1013 
1013 1013 1013 1013 1013 1013 1013 1013 1013 
1013 1013 1013 1013 1013 1013 1013 1013 1013 
1013 1013 1013 1013 1013 1013 1013 1013 1013 
1013 1013 1013 1013 1013 1013 1013 1013 1013 
1013 1013 1013 1013 1013 1013 1013 1013 1013 
1013 1013 1013 1013 1013 1013 1013 1013 1013 
1013 1013 1013 1013 1013 1013 1013 1013 1013 
1013 1013 1013 1013 1013 1013 1013 1013 1013 
1013 1013 1013 1013 1013 1013 1013 1013 1013 
1013 1013 1013 1013 1013 1013 1013 1013 1013 
1013 1013 1013 1013 1013 1013 1013 1013 1013 
1013 1013 1013 1013 1013 1013 1013 1013 1013 
1013 1013 1013 1013 1013 1013 1013 1013 1013 
1013 1013 1013 1013 1013 1013 1013 1013 1013 
1013 1013 1013 1013 1013 1013 1013 1013 1013 
1013 1013 1013 1013 1013 1013 1013 1013 1013 
1013 1013 1013 1013 1013 1013 1013 1013 1013 
1013 1013 1013 1013 1013 1013 1013 1013 1013 
1013 1013 1013 1013 1013 1013 1013 1013 1013 
1013 1013 1013 1013 1013 1013 1013 1013 1013 
1013 1013 1013 1013 1013 1013 1013 1013 1013 
1013 1013 1013 1013 1013 1013 1013 1013 1013 
1013 1013 1013 1013 1013 1013 1013 1013 1013 
1013 1013 1013 1013 1013 1013 1013 1013 1013 
1013 1013 1013 1013 1013 1013 1013 1013 1013 
1013 1013 1013 1013 1013 1013 1013 1013 1013 
1013 1013 1013 1013 1013 1013 1013 1013 1013 
1013 1013 1013 1013 1013 1013 1013 1013 1013 
1013 1013 1013 1013 1013 1013 1013 1013 1013 
1013 1013 1013 1013 1013 1013 1013 1013 1013 
1013 1013 1013 1013 1013 1013 1013 1013 1013 
1013 1013 1013 1013 1013 1013 1013 1013 1013 
1013 1013 1013 1013 1013 1013 1013 1013 1013 
1013 1013 1013 1013 1013 1013 1013 1013 1013 
1013 1013 1013 1013 1013 1013 1013 1013 1013 
1013 1013 1013 1013 1013 1013 1013 1013 1013 
1013 1013 1013 1013 1013 1013 1013 1013 1013 
1013 1013 1013 1013 1013 1013 1013 1013 1013 
1013 1013 1013 1013 1013 1013 1013 1013 1013 
1013 1013 1013 1013 1013 1013 1013 1013 1013 
1013 1013 1013 1013 1013 1013 1013 1013 1013 
1013 1013 1013 1013 1013 1013 1013 1013 1013 
1013 1013 1013 1013 1013 1013 1013 1013 1013 
1013 1013 1013 1013 1013 1013 1013 1013 1013 
1013 1013 1013 1013 1013 1013 1013 1013 1013 
1013 1013 1013 1013 1013 1013 1013 1013 1013 
1013 1013 1013 1013 1013 1013 1013 1013 1013 
1013 1013 1013 1013 1013 1013 1013 1013 1013 
1013 1013 1013 1013 1013 1013 1013 1013 1013 
1013 1013 1013 1013 1013 1013 1013 1013 1013 
1013 1013 1013 1013 1013 1013 1013 1013 1013 
1013 1013 1013 1013 1013 1013 1013 1013 1013 
1013 1013 1013 1013 1013 1013 1013 1013 1013 
1013 1013 1013 1013 1013 1013 1013 1013 1013 
1013 1013 1013 1013 1013 1013 1013 1013 1013 
1013 1013 1013 1013 1013 1013 1013 1013 1013 
1013 1013 1013 1013 1013 1013 1013 1013 1013 
1013 1013 1013 1013 1013 1013 1013 1013 1013 
1013 1013 1013 1013 1013 1013 1013 1013 1013 
1013 1013 1013 1013 1013 1013 1013 1013 1013 
1013 1013 1013 1013 1013 1013 1013 1013 1013 
1013 1013 1013 1013 1013 1013 1013 1013 1013 
1013 1013 1013 1013 1013 1013 1013 1013 1013 
1013 1013 1013 1013 1013 1013 1013 1013 1013 
1013 1013 1013 1013 1013 1013 1013 1013 1013 
1013 1013 1013 1013 1013 1013 1013 1013 1013 
1013 1013 1013 1013 1013 1013 1013 1013 1013 
1013 1013 1013 1013 1013 1013 1013 1013 1013 
1013 1013 1013 1013 1013 1013 1013 1013 1013 
1013 1013 1013 1013 1013 1013 1013 1013 1013 
1013 1013 1013 1013 1013 1013 1013 1013 1013 
1013 1013 1013 1013 1013 1013 1013 1013 1013 
1013 1013 1013 1013 1013 1013 1013 1013 1013 
1013 1013 1013 1013 1013 1013 1013 1013 1013 
1013 1013 1013 1013 1013 1013 1013 1013 1013 
1013 1013 1013 1013 1013 1013 1013 1013 1013 
1013 1013 1013 1013 1013 1013 1013 1013 1013 
1013 1013 1013 1013 1013 1013 1013 1013 1013 
1013 1013 1013 1013 1013 1013 1013 1013 1013 
1013 1013 1013 1013 1013 1013 1013 1013 1013 
1013 1013 1013 1013 1013 1013 1013 1013 1013 
1013 1013 1013 1013 1013 1013 1013 1013 1013 
1013 1013 1013 1013 1013 1013 1013 1013 1013 
1013 1013 1013 1013 1013 1013 1013 1013 1013 
1013 1013 1013 1013 1013 1013 1013 1013 1013 
1013 1013 1013 1013 1013 1013 1013 1013 1013 
1013 1013 1013 1013 1013 1013 1013 1013 1013 
1013 1013 1013 1013 1013 1013 1013 1013 1013 
1013 1013 1013 1013 1013 1013 1013 1013 1013 
1013 1013 1013 1013 1013 1013 1013 1013 1013 
1013 1013 1013 1013 1013 1013 1013 1013 1013 
1013 1013 1013 1013 1013 1013 1013 1013 1013 
1013 1013 1013 1013 1013 1013 1013 1013 1013 
1013 1013 1013 1013 1013 1013 1013 1013 1013 
1013 1013 1013 1013 1013 1013 1013 1013 1013 
1013 1013 1013 1013 1013 1013 1013 1013 1013 
1013 1013 1013 1013 1013 1013 1013 1013 1013 
1013 1013 1013 1013 1013 1013 1013 1013 1013 
1013 1013 1013 1013 1013 1013 1013 1013 1013 
1013 1013 1013 1013 1013 1013 1013 1013 1013 
1013 1013 1013 1013 1013 1013 1013 1013 1013 
1013 1013 1013 1013 1013 1013 1013 1013 1013 
1013 1013 1013 1013 1013 1013 1013 1013 1013 
1013 1013 1013 1013 1013 1013 1013 1013 1013 
1013 1013 1013 1013 1013 1013 1013 1013 1013 
1013 1013 1013 1013 1013 1013 1013 1013 1013 
1013 1013 1013 1013 1013 1013 1013 1013 1013 
1013 1013 1013 1013 1013 1013 1013 1013 1013 
1013 1013 1013 1013 1013 1013 1013 1013 1013 
1013 1013 1013 1013 1013 1013 1013 1013 1013 
1013 1013 1013 1013 1013 1013 1013 1013 1013 
1013 1013 1013 1013 1013 1013 1013 1013 1013 
1013 1013 1013 1013 1013 1013 1013 1013 1013 
1013 1013 1013 1013 1013 1013 1013 1013 1013 
1013 1013 1013 1013 1013 1013 1013 1013 1013 
1013 1013 1013 1013 1013 1013 1013 1013 1013 
1013 1013 1013 1013 1013 1013 1013 1013 1013 
1013 1013 1013 1013 1013 1013 1013 1013 1013 
1013 1013 1013 1013 1013 1013 1013 1013 1013 
1013 1013 1013 1013 1013 1013 1013 1013 1013 
1013 1013 1013 1013 1013 1013 1013 1013 1013 
1013 1013 1013 1013 1013 1013 1013 1013 1013 
1013 1013 1013 1013 1013 1013 1013 1013 1013 
1013 1013 1013 1013 1013 1013 1013 1013 1013 
1013 1013 1013 1013 1013 1013 1013 1013 1013 
1013 1013 1013 1013 1013 1013 1013 1013 1013 
1013 1013 1013 1013 1013 1013 1013 1013 1013 
1013 1013 1013 1013 1013 1013 1013 1013 1013 
1013 1013 1013 1013 1013 1013 1013 1013 1013 
1013 1013 1013 1013 1013 1013 1013 1013 1013 
1013 1013 1013 1013 1013 1013 1013 1013 1013 
1013 1013 1013 1013 1013 1013 1013 1013 1013 
1013 1013 1013 1013 1013 1013 1013 1013 1013 
1013 1013 1013 1013 1013 1013 1013 1013 1013 
1013 1013 1013 1013 1013 1013 1013 1013 1013 
1013 1013 1013 1013 1013 1013 1013 1013 1013 
1013 1013 1013 1013 1013 1013 1013 1013 1013 
1013 1013 1013 1013 1013 1013 1013 1013 1013 
1013 1013 1013 1013 1013 1013 1013 1013 1013 
1013 1013 1013 1013 1013 1013 1013 1013 1013 
1013 1013 1013 1013 1013 1013 1013 1013 1013 
1013 1013 1013 1013 1013 1013 1013 1013 1013 
1013 1013 1013 1013 1013 1013 1013 1013 1013 
1013 1013 1013 1013 1013 1013 1013 1013 1013 
1013 1013 1013 1013 1013 1013 1013 1013 1013 
1013 1013 1013 1013 1013 1013 1013 1013 1013 
1013 1013 1013 1013 1013 1013 1013 1013 1013 
1013 1013 1013 1013 1013 1013 1013 1013 1013 
1013 1013 1013 1013 1013 1013 1013 1013 1013 
1013 1013 1013 1013 1013 1013 1013 1013 1013 
1013 1013 1013 1013 1013 1013 1013 1013 1013 
1013 1013 1013 1013 1013 1013 1013 1013 1013 
1013 1013 1013 1013 1013 1013 1013 1013 1013 
1013 1013 1013 1013 1013 1013 1013 1013 1013 
1013 1013 1013 1013 1013 1013 1013 1013 1013 
1013 1013 1013 1013 1013 1013 1013 1013 1013 
1013 1013 1013 1013 1013 1013 1013 1013 1013 
1013 1013 1013 1013 1013 1013 1013 1013 1013 
1013 1013 1013 1013 1013 1013 1013 1013 1013 
1013 1013 1013 1013 1013 1013 1013 1013 1013 
1013 1013 1013 1013 1013 1013 1013 1013 1013 
1013 1013 1013 1013 1013 1013 1013 1013 1013 
1013 1013 1013 1013 1013 1013 1013 1013 1013 
1013 1013 1013 1013 1013 1013 1013 1013 1013 
1013 1013 1013 1013 1013 1013 1013 1013 1013 
1013 1013 1013 1013 1013 1013 1013 1013 1013 
1013 1013 1013 1013 1013 1013 1013 1013 1013 
1013 1013 1013 1013 1013 1013 1013 1013 1013 
1013 1013 1013 1013 1013 1013 1013 1013 1013 
1013 1013 1013 1013 1013 1013 1013 1013 1013 
1013 1013 1013 1013 1013 1013 1013 1013 1013 
1013 1013 1013 1013 1013 1013 1013 1013 1013 
1013 1013 1013 1013 1013 1013 1013 1013 1013 
1013 1013 1013 1013 1013 1013 1013 1013 1013 
1013 1013 1013 1013 1013 1013 1013 1013 1013 
1013 1013 1013 1013 1013 1013 1013 1013 1013 
1013 1013 1013 1013 1013 1013 1013 1013 1013 
1013 1013 1013 1013 1013 1013 1013 1013 1013 
1013 1013 1013 1013 1013 1013 1013 1013 1013 
1013 1013 1013 1013 1013 1013 1013 1013 1013 
1013 1013 1013 1013 1013 1013 1013 1013 1013 
1013 1013 1013 1013 1013 1013 1013 1013 1013 
1013 1013 1013 1013 1013 1013 1013 1013 1013 
1013 1013 1013 1013 1013 1013 1013 1013 1013 
1013 1013 1013 1013 1013 1013 1013 1013 1013 
1013 1013 1013 1013 1013 1013 1013 1013 1013 
1013 1013 1013 1013 1013 1013 1013 1013 1013 
1013 1013 1013 1013 1013 1013 1013 1013 1013 
1013 1013 1013 1013 1013 1013 1013 1013 1013 
1013 1013 1013 1013 1013 1013 1013 1013 1013 
1013 1013 1013 1013 1013 1013 1013 1013 1013 
1013 1013 1013 1013 1013 1013 1013 1013 1013 
1013 1013 1013 1013 1013 1013 1013 1013 1013 
1013 1013 1013 1013 1013 1013 1013 1013 1013 
1013 1013 1013 1013 1013 1013 1013 1013 1013 
1013 1013 1013 1013 1013 1013 1013 1013 1013 
1013 1013 1013 1013 1013 1013 1013 1013 1013 
1013 1013 1013 1013 1013 1013 1013 1013 1013 
1013 1013 1013 1013 1013 1013 1013 1013 1013 
1013 1013 1013 1013 1013 1013 1013 1013 1013 
1013 1013 1013 1013 1013 1013 1013 1013 1013 
1013 1013 1013 1013 1013 1013 1013 1013 1013 
1013 1013 1013 1013 1013 1013 1013 1013 1013 
1013 1013 1013 1013 1013 1013 1013 1013 1013 
1013 1013 1013 1013 1013 1013 1013 1013 1013 
1013 1013 1013 1013 1013 1013 1013 1013 1013 
1013 1013 1013 1013 1013 1013 1013 1013 1013 
1013 1013 1013 1013 1013 1013 1013 1013 1013 
1013 1013 1013 1013 1013 1013 1013 1013 1013 
1013 1013 1013 1013 1013 1013 1013 1013 1013 
1013 1013 1013 1013 1013 1013 1013 1013 1013 
1013 1013 1013 1013 1013 1013 1013 1013 1013 
1013 1013 1013 1013 1013 1013 1013 1013 1013 
1013 1013 1013 1013 1013 1013 1013 1013 1013 
1013 1013 1013 1013 1013 1013 1013 1013 1013 
1013 1013 1013 1013 1013 1013 1013 1013 1013 
1013 1013 1013 1013 1013 1013 1013 1013 1013 
1013 1013 1013 1013 1013 1013 1013 1013 1013 
1013 1013 1013 1013 1013 1013 1013 1013 1013 
1013 1013 1013 1013 1013 1013 1013 1013 1013 
1013 1013 1013 1013 1013 1013 1013 1013 1013 
1013 1013 1013 1013 1013 1013 1013 1013 1013 
1013 1013 1013 1013 1013 1013 1013 1013 1013 
1013 1013 1013 1013 1013 1013 1013 1013 1013 
1013 1013 1013 1013 1013 1013 1013 1013 1013 
1013 1013 1013 1013 1013 1013 1013 1013 1013 
1013 1013 1013 1013 1013 1013 1013 1013 1013 
1013 1013 1013 1013 1013 1013 1013 1013 1013 
1013 1013 1013 1013 1013 1013 1013 1013 1013 
1013 1013 1013 1013 1013 1013 1013 1013 1013 
1013 1013 1013 1013 1013 1013 1013 1013 1013 
1013 1013 1013 1013 1013 1013 1013 1013 1013 
1013 1013 1013 1013 1013 1013 1013 1013 1013 
1013 1013 1013 1013 1013 1013 1013 1013 1013 
1013 1013 1013 1013 1013 1013 1013 1013 1013 
1013 1013 1013 1013 1013 1013 1013 1013 1013 
1013 1013 1013 1013 1013 1013 1013 1013 1013 
1013 1013 1013 1013 1013 1013 1013 1013 1013 
1013 1013 1013 1013 1013 1013 1013 1013 1013 
1013 1013 1013 1013 1013 1013 1013 1013 1013 
1013 1013 1013 1013 1013 1013 1013 1013 1013 
1013 1013 1013 1013 1013 1013 1013 1013 1013 
1013 1013 1013 1013 1013 1013 1013 1013 1013 
1013 1013 1013 1013 1013 1013 1013 1013 1013 
1013 1013 1013 1013 1013 1013 1013 1013 1013 
1013 1013 1013 1013 1013 1013 1013 1013 1013 
1013 1013 1013 1013 1013 1013 1013 1013 1013 
1013 1013 1013 1013 1013 1013 1013 1013 1013 
1013 1013 1013 1013 1013 1013 1013 1013 1013 
1013 1013 1013 1013 1013 1013 1013 1013 1013 
1013 1013 1013 1013 1013 1013 1013 1013 1013 
1013 1013 1013 1013 1013 1013 1013 1013 1013 
1013 1013 1013 1013 1013 1013 1013 1013 1013 
1013 1013 1013 1013 1013 1013 1013 1013 1013 
1013 1013 1013 1013 1013 1013 1013 1013 1013 
1013 1013 1013 1013 1013 1013 1013 1013 1013 
1013 1013 1013 1013 1013 1013 1013 1013 1013 
1013 1013 1013 1013 1013 1013 1013 1013 1013 
1013 1013 1013 1013 1013 1013 1013 1013 1013 
1013 1013 1013 1013 1013 1013 1013 1013 1013 
1013 1013 1013 1013 1013 1013 1013 1013 1013 
1013 1013 1013 1013 1013 1013 1013 1013 1013 
1013 1013 1013 1013 1013 1013 1013 1013 1013 
1013 1013 1013 1013 1013 1013 1013 1013 1013 
1013 1013 1013 1013 1013 1013 1013 1013 1013 
1013 1013 1013 1013 1013 1013 1013 1013 1013 
1013 1013 1013 1013 1013 1013 1013 1013 1013 
1013 1013 1013 1013 1013 1013 1013 1013 1013 
1013 1013 1013 1013 1013 1013 1013 1013 1013 
1013 1013 1013 1013 1013 1013 1013 1013 1013 
1013 1013 1013 1013 1013 1013 1013 1013 1013 
1013 1013 1013 1013 1013 1013 1013 1013 1013 
1013 1013 1013 1013 1013 1013 1013 1013 1013 
1013 1013 1013 1013 1013 1013 1013 1013 1013 
1013 1013 1013 1013 1013 1013 1013 1013 1013 
1013 1013 1013 1013 1013 1013 1013 1013 1013 
1013 1013 1013 1013 1013 1013 1013 1013 1013 
1013 1013 1013 1013 1013 1013 1013 1013 1013 
1013 1013 1013 1013 1013 1013 1013 1013 1013 
1013 1013 1013 1013 1013 1013 1013 1013 1013 