# vtk DataFile Version 4.2
vtk output
ASCII
DATASET POLYDATA
POINTS 2852 float
3.85327 18.5699 55.7582 3.52575 18.827 55.5076 3.27308 18.2982 55.3636 
4.6464 18.5184 55.8104 4.38757 18.9921 55.6053 5.68079 18.4621 55.8114 
5.57602 18.9824 55.4992 6.4953 18.3751 55.7614 6.64799 18.751 55.4803 
7.26738 18.4536 55.2956 3.89696 18.2495 55.5451 4.82811 18.0384 55.281 
5.94319 18.1203 55.3942 6.80151 18.1495 55.3199 2.92344 19.5133 54.7781 
2.79001 19.7902 54.1769 2.38353 19.2528 54.532 3.77073 19.4059 55.0804 
3.66669 19.8923 54.3689 4.96679 19.4892 55.0541 4.71463 19.8648 54.3787 
5.81343 19.4392 54.8643 5.6716 19.7922 54.3365 6.3411 19.594 54.3419 
2.69556 18.6279 55.0548 1.99614 18.5351 54.4956 6.58136 19.2021 54.8191 
7.81317 18.4941 54.8183 7.67897 18.9787 54.4707 8.18455 18.547 54.3455 
1.93665 17.4766 54.8953 1.5726 18.0207 54.3809 1.32968 17.3469 54.4481 
2.8234 17.516 54.8904 3.74825 17.7928 54.8334 3.30475 17.4027 54.4679 
4.81078 17.36 54.8217 4.13397 17.1431 54.4982 5.29083 17.6208 54.6359 
5.76453 17.7992 54.6125 6.70859 17.862 54.6399 7.63948 18.1449 54.6942 
8.67768 17.4999 54.6104 8.88188 17.9161 54.249 8.45516 17.4708 54.3792 
9.07615 17.5689 54.3984 1.63026 16.6026 54.8359 1.33636 16.5202 54.2334 
2.33338 16.5493 54.8057 3.10696 16.7924 54.43 4.58374 16.4745 54.8801 
4.03447 16.3903 54.5885 5.56557 17.0906 54.5661 5.37655 16.3496 54.8059 
6.05926 16.4123 54.2832 8.80751 17.2202 54.475 9.7425 16.7225 54.5709 
9.43759 16.6337 54.476 9.70506 16.4792 54.6213 10.0469 16.3919 54.342 
1.98233 16.0682 54.4037 2.75136 16.1493 54.3176 3.7152 15.9467 54.4933 
3.57613 15.4999 54.2209 4.00832 15.7173 54.7744 4.67088 15.5688 54.8857 
5.23063 15.5601 54.5776 5.66928 15.9102 54.3252 9.4593 16.2405 54.2475 
4.08437 15.0836 54.4071 4.74592 15.1016 54.3722 2.58298 19.945 53.5221 
2.09557 19.336 53.8331 3.4219 20.1347 53.6341 4.58264 20.1115 53.5147 
5.69626 19.9951 53.4977 7.12002 19.5167 54.068 6.56569 19.85 53.6544 
7.70732 19.469 53.8641 7.42967 19.7072 53.3862 7.9821 19.3447 53.4638 
1.69696 18.6466 53.9238 1.59632 19.0991 53.3291 1.31997 18.3551 53.5643 
8.46137 18.1885 54.1138 8.6017 18.8803 53.4462 9.23796 18.4736 53.515 
1.15213 17.4488 53.5419 3.61836 17.245 54.2723 5.97754 17.2426 54.2401 
6.68977 17.309 54.0817 7.73022 17.451 54.1653 9.74923 17.1552 54.207 
9.71966 18.0178 53.6388 10.9563 17.2157 53.8609 10.6827 17.8179 53.3775 
11.3795 17.6099 53.3667 1.23975 16.3767 53.2151 3.48318 16.3161 54.1384 
6.61895 16.6095 54.0116 7.39627 16.3929 53.8363 8.62463 16.6507 54.0919 
10.6631 16.5955 54.1443 11.6229 17.1 53.6301 11.4131 16.3704 53.8246 
11.9903 16.7302 53.2816 1.7795 15.859 53.6494 2.62744 15.8194 53.7645 
3.18173 15.5555 53.624 5.25129 15.4074 53.5707 5.84515 15.9361 53.6541 
6.63009 15.7819 53.7992 6.22373 15.6263 53.1789 7.26508 15.5384 53.531 
8.02261 15.8164 53.4616 8.98384 15.8652 53.5693 9.8617 15.786 53.7809 
10.6981 15.774 53.8631 10.2446 15.2451 53.2934 11.2593 15.6107 53.526 
11.7363 15.9918 53.2061 3.60715 14.9091 53.4577 4.57838 14.7812 53.6347 
6.92727 15.1633 53.2309 10.8414 15.2574 53.2843 11.8102 14.6159 53.4992 
11.2945 14.2492 53.4103 11.6997 14.1548 53.7618 11.9963 14.319 53.4502 
10.927 13.6892 53.7877 10.5444 13.7894 53.2728 10.4513 13.3242 53.3108 
11.4826 13.4392 53.8364 11.9171 13.7091 53.588 10.9193 13.1159 53.5691 
11.4491 13.181 53.28 1.93872 20.5171 52.7625 1.60115 20.8496 52.197 
1.20156 20.2456 52.5157 2.83219 20.4017 53.018 2.66859 20.8582 52.3833 
3.98435 20.4658 52.9959 3.56817 20.8036 52.5134 4.81446 20.3895 52.8015 
4.61687 20.9839 52.1908 5.32842 20.5495 52.3204 1.84637 19.8542 53.0575 
1.15308 19.228 52.4839 5.56542 20.1834 52.743 6.80121 20.0174 52.4916 
7.58947 19.5567 52.8593 7.50698 19.5812 52.2998 1.16613 18.3092 52.664 
8.04872 19.2658 52.718 8.79112 19.1314 52.379 9.91388 18.444 52.9164 
9.49094 18.7903 52.6774 10.2085 18.4991 52.1409 1.16002 17.4658 52.4963 
10.7005 18.1578 52.5181 11.8779 17.3893 53.1232 11.6598 17.8513 52.5423 
12.3014 17.2413 52.3977 1.16454 16.5964 52.3204 5.74187 16.3007 52.9633 
5.41668 16.2095 52.7348 5.57714 16.6926 52.2942 5.94781 16.3686 52.4394 
12.1379 16.366 52.4981 1.62971 15.5472 52.9729 1.3225 15.6658 52.3065 
2.48369 15.3252 53.1104 5.23231 15.6243 52.3618 6.34479 15.707 52.3213 
7.61712 15.2844 53.1283 8.58723 15.2832 52.9597 9.50431 15.3991 53.2277 
11.3344 15.4199 52.857 11.8379 15.7738 52.4395 1.88685 15.1298 52.5044 
2.70494 14.7606 52.5618 3.62009 14.4346 52.8397 3.12022 14.3206 52.3316 
4.39403 14.3677 52.9598 5.06752 14.7366 52.572 6.77924 15.101 52.5766 
7.64399 14.9919 52.6331 8.59077 14.7442 52.3771 9.13256 14.3187 52.2479 
9.65271 14.7573 52.7309 10.6802 14.9019 52.6583 10.2097 14.4379 52.4423 
11.8029 14.4744 53.2996 3.90291 14.0651 52.2716 4.75889 14.1537 52.2769 
9.70548 14.1693 52.1661 10.4146 13.4729 52.4213 10.8633 13.8666 52.7559 
11.6387 13.8589 53.1268 11.2133 13.4713 52.5546 10.9327 13.0392 52.5264 
4.76419 21.4924 51.7609 4.60415 21.7667 51.1792 4.31939 21.4153 51.6563 
5.24706 21.4865 51.5028 0.780787 20.5528 52.0536 0.990269 20.787 51.4493 
0.378765 20.2153 51.4652 1.66499 21.008 51.5422 2.39577 21.1075 51.4657 
3.53998 21.1522 51.7587 6.08132 20.4844 52.0469 5.63216 20.9724 51.746 
6.64197 20.4514 51.8271 6.38845 20.7399 51.3487 6.9092 20.3232 51.4445 
0.611174 19.8594 51.9476 0.316294 19.3229 51.1867 8.10066 19.4894 52.0257 
7.48316 19.883 51.5222 8.84376 19.4071 51.8135 8.39022 19.6866 51.4003 
9.01396 19.4325 51.3232 0.697582 19.0906 51.5964 1.02533 18.2724 51.5038 
9.51972 18.9838 51.6379 10.2586 18.4711 51.2079 1.17196 17.2885 51.6323 
10.9236 18.1592 51.434 11.6195 18.0232 51.6395 12.7499 17.3275 51.7178 
12.4636 17.7433 51.5742 12.9244 17.4986 51.4239 1.18344 16.4547 51.4499 
5.24074 16.4947 51.6555 5.73326 16.9164 51.467 6.31246 16.4354 51.605 
12.4232 16.7772 51.5203 12.7549 17.2495 51.2808 1.37553 15.7047 51.297 
5.21394 15.4805 51.4808 6.78997 15.9734 51.3565 6.78162 15.3453 51.9257 
7.21426 15.5052 51.3177 11.7484 15.0753 52.0645 12.3237 15.8173 51.5024 
1.8287 14.9919 51.8301 2.49204 14.4946 51.9234 2.21841 14.6295 51.1476 
5.28114 14.578 51.4595 7.62128 14.9338 51.8152 8.50198 14.4338 51.8683 
8.22149 14.5777 51.3843 10.6945 14.1049 52.1093 11.7331 14.381 51.9584 
12.6309 15.0554 51.5698 12.46 14.3304 51.7229 13.0657 14.7187 51.1991 
3.02956 14.0953 51.5535 3.73634 13.9046 51.5418 4.59301 13.9598 51.5254 
8.91545 14.1704 51.6808 9.57492 14.0469 51.5268 10.199 13.6292 51.4991 
11.6249 13.6001 51.9515 12.2857 13.5054 51.4289 12.8301 13.9593 51.1151 
10.7803 13.0319 51.4797 11.5776 13.0105 51.3872 3.00196 21.4854 50.9473 
2.67334 21.9575 50.3284 2.30348 21.522 50.4155 3.80548 21.5485 51.1938 
3.56699 21.9887 50.6083 4.68454 22.1353 50.3892 5.91196 21.2928 51.0016 
5.45893 21.7949 50.6858 6.00014 21.5055 50.2466 0.556965 20.3382 50.9634 
1.04161 20.426 50.4626 1.68452 20.9809 50.5308 6.43048 20.8356 50.4039 
6.68342 20.4824 50.9479 0.678578 19.9089 50.3454 0.298579 19.5248 50.5765 
7.00585 20.1491 50.5863 7.77983 19.7121 50.5613 8.55559 19.5394 50.8622 
8.12541 19.3745 50.287 0.576339 18.629 50.9619 0.355255 18.6127 50.3416 
8.84771 19.1472 50.5521 9.59353 18.7445 50.5926 10.0669 18.3879 50.4126 
0.733088 18.118 50.4659 1.06465 17.4292 50.5377 4.94653 17.2627 50.7593 
4.40456 17.4756 50.2121 4.70361 17.7839 50.1086 5.28399 17.64 50.311 
10.774 18.1124 50.3425 11.8436 17.8777 50.7475 12.654 17.5679 51.0281 
12.2862 17.3226 50.4999 1.30134 16.4494 50.3254 4.57164 17.12 50.3724 
4.94662 16.4887 50.5353 5.80435 17.26 50.5039 6.44162 16.8294 50.7251 
6.70141 16.4749 51.011 7.08299 16.4296 50.296 12.3671 16.4987 50.3142 
1.60164 15.8111 50.5817 1.73028 15.3059 51.0721 1.9607 15.3096 50.4143 
5.33865 15.4536 50.3505 7.68268 15.9533 50.4899 7.98867 15.309 50.9896 
8.68043 15.9021 50.3465 8.9514 15.3666 50.8451 9.47284 15.8203 50.4928 
9.89397 15.2451 50.8173 10.1365 15.5381 50.2219 12.7012 15.79 50.5542 
12.8766 15.3261 51.0685 13.1009 15.298 50.4226 2.28026 14.3995 50.1717 
5.72062 14.7693 50.6055 5.61233 14.0948 50.9757 6.05836 14.4372 50.3012 
8.723 14.5787 51.1521 9.69676 14.3754 51.0729 10.7087 14.9898 50.4069 
10.5487 14.3661 50.7889 11.2084 14.4249 50.3491 13.1169 14.5611 50.4938 
2.78398 13.9619 50.6184 3.72446 13.7531 50.851 4.7998 13.6311 50.88 
4.10852 13.397 50.2918 5.54554 13.4659 50.7813 6.13112 13.6284 50.2958 
10.6307 13.5044 50.9293 11.272 13.7155 50.4418 12.2204 13.3166 50.7713 
12.6811 13.8721 50.4539 4.84088 13.1825 50.3464 5.66033 12.9543 50.2882 
11.4338 13.0866 50.6939 2.96246 22.4941 49.9438 2.81022 23.0147 49.2558 
2.32393 22.3657 49.5556 3.93434 22.4994 50.0238 3.67486 22.8653 49.3792 
4.82167 22.4548 49.8385 4.64218 22.7741 49.3773 5.32442 22.5775 49.3468 
1.9761 21.585 49.5494 5.72083 22.0964 49.5737 6.3479 21.4369 49.5496 
1.64152 21.0913 49.4123 1.3375 20.5691 49.5151 6.72959 20.9629 49.6287 
6.98694 20.4135 49.8828 7.56025 20.2892 49.6148 7.36676 20.6901 49.3564 
7.81102 20.4044 49.468 0.581219 19.3047 49.8673 1.03103 19.6425 49.4127 
7.44548 19.8367 49.5098 7.67884 19.436 49.9412 7.74758 20.1585 49.4756 
0.752708 18.832 49.2763 0.432908 18.6865 49.6885 7.95557 19.1904 49.7124 
8.66477 18.7546 49.5314 9.50647 18.4864 49.9262 9.06157 18.3324 49.3305 
0.677523 18.004 49.7328 1.05576 17.4571 49.3639 4.44329 17.6243 49.6727 
4.86624 17.8092 49.4421 5.402 17.7897 49.6845 5.88532 17.494 49.8993 
5.95875 17.4638 49.2986 9.8852 18.1112 49.4095 10.8799 18.0119 49.2741 
11.6063 17.8546 49.7076 12.0746 17.354 49.3898 1.3072 16.4027 49.1551 
4.57289 17.1048 49.8009 5.08432 16.4769 49.3828 6.47919 16.9995 49.6196 
7.21082 16.4539 49.1784 12.3874 16.6605 49.1231 1.67117 15.8708 49.8109 
2.00254 15.1133 49.4443 5.33669 15.6142 49.1706 7.85261 16.1316 49.4612 
8.54607 16.0288 49.6608 9.44795 15.8625 49.6851 10.0487 15.4407 49.4488 
12.7622 15.9415 49.7215 13.0582 15.2852 49.529 2.18706 14.4217 49.4713 
5.77322 14.9741 49.758 6.16494 14.3614 49.4923 10.736 15.0878 49.4293 
11.6967 14.8274 49.5748 11.9138 14.2777 49.957 12.6536 14.9332 49.3063 
[...]
CELL_DATA 5704
SCALARS scalars float
LOOKUP_TABLE default
1002 1002 1002 1002 1002 1002 1002 1002 1002 
1002 1002 1002 1002 1002 1002 1002 1002 1002 
1002 1002 1002 1002 1002 1002 1002 1002 1002 
1002 1002 1002 1002 1002 1002 1002 1002 1002 
1002 1002 1002 1002 1002 1002 1002 1002 1002 
1002 1002 1002 1002 1002 1002 1002 1002 1002 
1002 1002 1002 1002 1002 1002 1002 1002 1002 
1002 1002 1002 1002 1002 1002 1002 1002 1002 
1002 1002 1002 1002 1002 1002 1002 1002 1002 
1002 1002 1002 1002 1002 1002 1002 1002 1002 
1002 1002 1002 1002 1002 1002 1002 1002 1002 
1002 1002 1002 1002 1002 1002 1002 1002 1002 
1002 1002 1002 1002 1002 1002 1002 1002 1002 
1002 1002 1002 1002 1002 1002 1002 1002 1002 
1002 1002 1002 1002 1002 1002 1002 1002 1002 
1002 1002 1002 1002 1002 1002 1002 1002 1002 
1002 1002 1002 1002 1002 1002 1002 1002 1002 
1002 1002 1002 1002 1002 1002 1002 1002 1002 
1002 1002 1002 1002 1002 1002 1002 1002 1002 
1002 1002 1002 1002 1002 1002 1002 1002 1002 
1002 1002 1002 1002 1002 1002 1002 1002 1002 
1002 1002 1002 1002 1002 1002 1002 1002 1002 
1002 1002 1002 1002 1002 1002 1002 1002 1002 
1002 1002 1002 1002 1002 1002 1002 1002 1002 
1002 1002 1002 1002 1002 1002 1002 1002 1002 
1002 1002 1002 1002 1002 1002 1002 1002 1002 
1002 1002 1002 1002 1002 1002 1002 1002 1002 
1002 1002 1002 1002 1002 1002 1002 1002 1002 
1002 1002 1002 1002 1002 1002 1002 1002 1002 
1002 1002 1002 1002 1002 1002 1002 1002 1002 
1002 1002 1002 1002 1002 1002 1002 1002 1002 
1002 1002 1002 1002 1002 1002 1002 1002 1002 
1002 1002 1002 1002 1002 1002 1002 1002 1002 
1002 1002 1002 1002 1002 1002 1002 1002 1002 
1002 1002 1002 1002 1002 1002 1002 1002 1002 
1002 1002 1002 1002 1002 1002 1002 1002 1002 
1002 1002 1002 1002 1002 1002 1002 1002 1002 
1002 1002 1002 1002 1002 1002 1002 1002 1002 
1002 1002 1002 1002 1002 1002 1002 1002 1002 
1002 1002 1002 1002 1002 1002 1002 1002 1002 
1002 1002 1002 1002 1002 1002 1002 1002 1002 
1002 1002 1002 1002 1002 1002 1002 1002 1002 
1002 1002 1002 1002 1002 1002 1002 1002 1002 
1002 1002 1002 1002 1002 1002 1002 1002 1002 
1002 1002 1002 1002 1002 1002 1002 1002 1002 
1002 1002 1002 1002 1002 1002 1002 1002 1002 
1002 1002 1002 1002 1002 1002 1002 1002 1002 
1002 1002 1002 1002 1002 1002 1002 1002 1002 
1002 1002 1002 1002 1002 1002 1002 1002 1002 
1002 1002 1002 1002 1002 1002 1002 1002 1002 
1002 1002 1002 1002 1002 1002 1002 1002 1002 
1002 1002 1002 1002 1002 1002 1002 1002 1002 
1002 1002 1002 1002 1002 1002 1002 1002 1002 
1002 1002 1002 1002 1002 1002 1002 1002 1002 
1002 1002 1002 1002 1002 1002 1002 1002 1002 
1002 1002 1002 1002 1002 1002 1002 1002 1002 
1002 1002 1002 1002 1002 1002 1002 1002 1002 
1002 1002 1002 1002 1002 1002 1002 1002 1002 
1002 1002 1002 1002 1002 1002 1002 1002 1002 
1002 1002 1002 1002 1002 1002 1002 1002 1002 
1002 1002 1002 1002 1002 1002 1002 1002 1002 
1002 1002 1002 1002 1002 1002 1002 1002 1002 
1002 1002 1002 1002 1002 1002 1002 1002 1002 
1002 1002 1002 1002 1002 1002 1002 1002 1002 
1002 1002 1002 1002 1002 1002 1002 1002 1002 
1002 1002 1002 1002 1002 1002 1002 1002 1002 
1002 1002 1002 1002 1002 1002 1002 1002 1002 
1002 1002 1002 1002 1002 1002 1002 1002 1002 
1002 1002 1002 1002 1002 1002 1002 1002 1002 
1002 1002 1002 1002 1002 1002 1002 1002 1002 
1002 1002 1002 1002 1002 1002 1002 1002 1002 
1002 1002 1002 1002 1002 1002 1002 1002 1002 
1002 1002 1002 1002 1002 1002 1002 1002 1002 
1002 1002 1002 1002 1002 1002 1002 1002 1002 
1002 1002 1002 1002 1002 1002 1002 1002 1002 
1002 1002 1002 1002 1002 1002 1002 1002 1002 
1002 1002 1002 1002 1002 1002 1002 1002 1002 
1002 1002 1002 1002 1002 1002 1002 1002 1002 
1002 1002 1002 1002 1002 1002 1002 1002 1002 
1002 1002 1002 1002 1002 1002 1002 1002 1002 
1002 1002 1002 1002 1002 1002 1002 1002 1002 
1002 1002 1002 1002 1002 1002 1002 1002 1002 
1002 1002 1002 1002 1002 1002 1002 1002 1002 
1002 1002 1002 1002 1002 1002 1002 1002 1002 
1002 1002 1002 1002 1002 1002 1002 1002 1002 
1002 1002 1002 1002 1002 1002 1002 1002 1002 
1002 1002 1002 1002 1002 1002 1002 1002 1002 
1002 1002 1002 1002 1002 1002 1002 1002 1002 
1002 1002 1002 1002 1002 1002 1002 1002 1002 
1002 1002 1002 1002 1002 1002 1002 1002 1002 
1002 1002 1002 1002 1002 1002 1002 1002 1002 
1002 1002 1002 1002 1002 1002 1002 1002 1002 
1002 1002 1002 1002 1002 1002 1002 1002 1002 
1002 1002 1002 1002 1002 1002 1002 1002 1002 
1002 1002 1002 1002 1002 1002 1002 1002 1002 
1002 1002 1002 1002 1002 1002 1002 1002 1002 
1002 1002 1002 1002 1002 1002 1002 1002 1002 
1002 1002 1002 1002 1002 1002 1002 1002 1002 
1002 1002 1002 1002 1002 1002 1002 1002 1002 
1002 1002 1002 1002 1002 1002 1002 1002 1002 
1002 1002 1002 1002 1002 1002 1002 1002 1002 
1002 1002 1002 1002 1002 1002 1002 1002 1002 
1002 1002 1002 1002 1002 1002 1002 1002 1002 
1002 1002 1002 1002 1002 1002 1002 1002 1002 
1002 1002 1002 1002 1002 1002 1002 1002 1002 
1002 1002 1002 1002 1002 1002 1002 1002 1002 
1002 1002 1002 1002 1002 1002 1002 1002 1002 
1002 1002 1002 1002 1002 1002 1002 1002 1002 
1002 1002 1002 1002 1002 1002 1002 1002 1002 
1002 1002 1002 1002 1002 1002 1002 1002 1002 
1002 1002 1002 1002 1002 1002 1002 1002 1002 
1002 1002 1002 1002 1002 1002 1002 1002 1002 
1002 1002 1002 1002 1002 1002 1002 1002 1002 
1002 1002 1002 1002 1002 1002 1002 1002 1002 
1002 1002 1002 1002 1002 1002 1002 1002 1002 
1002 1002 1002 1002 1002 1002 1002 1002 1002 
1002 1002 1002 1002 1002 1002 1002 1002 1002 
1002 1002 1002 1002 1002 1002 1002 1002 1002 
1002 1002 1002 1002 1002 1002 1002 1002 1002 
1002 1002 1002 1002 1002 1002 1002 1002 1002 
1002 1002 1002 1002 1002 1002 1002 1002 1002 
1002 1002 1002 1002 1002 1002 1002 1002 1002 
1002 1002 1002 1002 1002 1002 1002 1002 1002 
1002 1002 1002 1002 1002 1002 1002 1002 1002 
1002 1002 1002 1002 1002 1002 1002 1002 1002 
1002 1002 1002 1002 1002 1002 1002 1002 1002 
1002 1002 1002 1002 1002 1002 1002 1002 1002 
1002 1002 1002 1002 1002 1002 1002 1002 1002 
1002 1002 1002 1002 1002 1002 1002 1002 1002 
1002 1002 1002 1002 1002 1002 1002 1002 1002 
1002 1002 1002 1002 1002 1002 1002 1002 1002 
1002 1002 1002 1002 1002 1002 1002 1002 1002 
1002 1002 1002 1002 1002 1002 1002 1002 1002 
1002 1002 1002 1002 1002 1002 1002 1002 1002 
1002 1002 1002 1002 1002 1002 1002 1002 1002 
1002 1002 1002 1002 1002 1002 1002 1002 1002 
1002 1002 1002 1002 1002 1002 1002 1002 1002 
1002 1002 1002 1002 1002 1002 1002 1002 1002 
1002 1002 1002 1002 1002 1002 1002 1002 1002 
1002 1002 1002 1002 1002 1002 1002 1002 1002 
1002 1002 1002 1002 1002 1002 1002 1002 1002 
1002 1002 1002 1002 1002 1002 1002 1002 1002 
1002 1002 1002 1002 1002 1002 1002 1002 1002 
1002 1002 1002 1002 1002 1002 1002 1002 1002 
1002 1002 1002 1002 1002 1002 1002 1002 1002 
1002 1002 1002 1002 1002 1002 1002 1002 1002 
1002 1002 1002 1002 1002 1002 1002 1002 1002 
1002 1002 1002 1002 1002 1002 1002 1002 1002 
1002 1002 1002 1002 1002 1002 1002 1002 1002 
1002 1002 1002 1002 1002 1002 1002 1002 1002 
1002 1002 1002 1002 1002 1002 1002 1002 1002 
1002 1002 1002 1002 1002 1002 1002 1002 1002 
1002 1002 1002 1002 1002 1002 1002 1002 1002 
1002 1002 1002 1002 1002 1002 1002 1002 1002 
1002 1002 1002 1002 1002 1002 1002 1002 1002 
1002 1002 1002 1002 1002 1002 1002 1002 1002 
1002 1002 1002 1002 1002 1002 1002 1002 1002 
1002 1002 1002 1002 1002 1002 1002 1002 1002 
1002 1002 1002 1002 1002 1002 1002 1002 1002 
1002 1002 1002 1002 1002 1002 1002 1002 1002 
1002 1002 1002 1002 1002 1002 1002 1002 1002 
1002 1002 1002 1002 1002 1002 1002 1002 1002 
1002 1002 1002 1002 1002 1002 1002 1002 1002 
1002 1002 1002 1002 1002 1002 1002 1002 1002 
1002 1002 1002 1002 1002 1002 1002 1002 1002 
1002 1002 1002 1002 1002 1002 1002 1002 1002 
1002 1002 1002 1002 1002 1002 1002 1002 1002 
1002 1002 1002 1002 1002 1002 1002 1002 1002 
1002 1002 1002 1002 1002 1002 1002 1002 1002 
1002 1002 1002 1002 1002 1002 1002 1002 1002 
1002 1002 1002 1002 1002 1002 1002 1002 1002 
1002 1002 1002 1002 1002 1002 1002 1002 1002 
1002 1002 1002 1002 1002 1002 1002 1002 1002 
1002 1002 1002 1002 1002 1002 1002 1002 1002 
1002 1002 1002 1002 1002 1002 1002 1002 1002 
1002 1002 1002 1002 1002 1002 1002 1002 1002 
1002 1002 1002 1002 1002 1002 1002 1002 1002 
1002 1002 1002 1002 1002 1002 1002 1002 1002 
1002 1002 1002 1002 1002 1002 1002 1002 1002 
1002 1002 1002 1002 1002 1002 1002 1002 1002 
1002 1002 1002 1002 1002 1002 1002 1002 1002 
1002 1002 1002 1002 1002 1002 1002 1002 1002 
1002 1002 1002 1002 1002 1002 1002 1002 1002 
1002 1002 1002 1002 1002 1002 1002 1002 1002 
1002 1002 1002 1002 1002 1002 1002 1002 1002 
1002 1002 1002 1002 1002 1002 1002 1002 1002 
1002 1002 1002 1002 1002 1002 1002 1002 1002 
1002 1002 1002 1002 1002 1002 1002 1002 1002 
1002 1002 1002 1002 1002 1002 1002 1002 1002 
1002 1002 1002 1002 1002 1002 1002 1002 1002 
1002 1002 1002 1002 1002 1002 1002 1002 1002 
1002 1002 1002 1002 1002 1002 1002 1002 1002 
1002 1002 1002 1002 1002 1002 1002 1002 1002 
1002 1002 1002 1002 1002 1002 1002 1002 1002 
1002 1002 1002 1002 1002 1002 1002 1002 1002 
1002 1002 1002 1002 1002 1002 1002 1002 1002 
1002 1002 1002 1002 1002 1002 1002 1002 1002 
1002 1002 1002 1002 1002 1002 1002 1002 1002 
1002 1002 1002 1002 1002 1002 1002 1002 1002 
1002 1002 1002 1002 1002 1002 1002 1002 1002 
1002 1002 1002 1002 1002 1002 1002 1002 1002 
1002 1002 1002 1002 1002 1002 1002 1002 1002 
1002 1002 1002 1002 1002 1002 1002 1002 1002 
1002 1002 1002 1002 1002 1002 1002 1002 1002 
1002 1002 1002 1002 1002 1002 1002 1002 1002 
1002 1002 1002 1002 1002 1002 1002 1002 1002 
1002 1002 1002 1002 1002 1002 1002 1002 1002 
1002 1002 1002 1002 1002 1002 1002 1002 1002 
1002 1002 1002 1002 1002 1002 1002 1002 1002 
1002 1002 1002 1002 1002 1002 1002 1002 1002 
1002 1002 1002 1002 1002 1002 1002 1002 1002 
1002 1002 1002 1002 1002 1002 1002 1002 1002 
1002 1002 1002 1002 1002 1002 1002 1002 1002 
1002 1002 1002 1002 1002 1002 1002 1002 1002 
1002 1002 1002 1002 1002 1002 1002 1002 1002 
1002 1002 1002 1002 1002 1002 1002 1002 1002 
1002 1002 1002 1002 1002 1002 1002 1002 1002 
1002 1002 1002 1002 1002 1002 1002 1002 1002 
1002 1002 1002 1002 1002 1002 1002 1002 1002 
1002 1002 1002 1002 1002 1002 1002 1002 1002 
1002 1002 1002 1002 1002 1002 1002 1002 1002 
1002 1002 1002 1002 1002 1002 1002 1002 1002 
1002 1002 1002 1002 1002 1002 1002 1002 1002 
1002 1002 1002 1002 1002 1002 1002 1002 1002 
1002 1002 1002 1002 1002 1002 1002 1002 1002 
1002 1002 1002 1002 1002 1002 1002 1002 1002 
1002 1002 1002 1002 1002 1002 1002 1002 1002 
1002 1002 1002 1002 1002 1002 1002 1002 1002 
1002 1002 1002 1002 1002 1002 1002 1002 1002 
1002 1002 1002 1002 1002 1002 1002 1002 1002 
1002 1002 1002 1002 1002 1002 1002 1002 1002 
1002 1002 1002 1002 1002 1002 1002 1002 1002 
1002 1002 1002 1002 1002 1002 1002 1002 1002 
1002 1002 1002 1002 1002 1002 1002 1002 1002 
1002 1002 1002 1002 1002 1002 1002 1002 1002 
1002 1002 1002 1002 1002 1002 1002 1002 1002 
1002 1002 1002 1002 1002 1002 1002 1002 1002 
1002 1002 1002 1002 1002 1002 1002 1002 1002 
1002 1002 1002 1002 1002 1002 1002 1002 1002 
1002 1002 1002 1002 1002 1002 1002 1002 1002 
1002 1002 1002 1002 1002 1002 1002 1002 1002 
1002 1002 1002 1002 1002 1002 1002 1002 1002 
1002 1002 1002 1002 1002 1002 1002 1002 1002 
1002 1002 1002 1002 1002 1002 1002 1002 1002 
1002 1002 1002 1002 1002 1002 1002 1002 1002 
1002 1002 1002 1002 1002 1002 1002 1002 1002 
1002 1002 1002 1002 1002 1002 1002 1002 1002 
1002 1002 1002 1002 1002 1002 1002 1002 1002 
1002 1002 1002 1002 1002 1002 1002 1002 1002 
1002 1002 1002 1002 1002 1002 1002 1002 1002 
1002 1002 1002 1002 1002 1002 1002 1002 1002 
1002 1002 1002 1002 1002 1002 1002 1002 1002 
1002 1002 1002 1002 1002 1002 1002 1002 1002 
1002 1002 1002 1002 1002 1002 1002 1002 1002 
1002 1002 1002 1002 1002 1002 1002 1002 1002 
1002 1002 1002 1002 1002 1002 1002 1002 1002 
1002 1002 1002 1002 1002 1002 1002 1002 1002 
1002 1002 1002 1002 1002 1002 1002 1002 1002 
1002 1002 1002 1002 1002 1002 1002 1002 1002 
1002 1002 1002 1002 1002 1002 1002 1002 1002 
1002 1002 1002 1002 1002 1002 1002 1002 1002 
1002 1002 1002 1002 1002 1002 1002 1002 1002 
1002 1002 1002 1002 1002 1002 1002 1002 1002 
1002 1002 1002 1002 1002 1002 1002 1002 1002 
1002 1002 1002 1002 1002 1002 1002 1002 1002 
1002 1002 1002 1002 1002 1002 1002 1002 1002 
1002 1002 1002 1002 1002 1002 1002 1002 1002 
1002 1002 1002 1002 1002 1002 1002 1002 1002 
1002 1002 1002 1002 1002 1002 1002 1002 1002 
1002 1002 1002 1002 1002 1002 1002 1002 1002 
1002 1002 1002 1002 1002 1002 1002 1002 1002 
1002 1002 1002 1002 1002 1002 1002 1002 1002 
1002 1002 1002 1002 1002 1002 1002 1002 1002 
1002 1002 1002 1002 1002 1002 1002 1002 1002 
1002 1002 1002 1002 1002 1002 1002 1002 1002 
1002 1002 1002 1002 1002 1002 1002 1002 1002 
1002 1002 1002 1002 1002 1002 1002 1002 1002 
1002 1002 1002 1002 1002 1002 1002 1002 1002 
1002 1002 1002 1002 1002 1002 1002 1002 1002 
1002 1002 1002 1002 1002 1002 1002 1002 1002 
1002 1002 1002 1002 1002 1002 1002 1002 1002 
1002 1002 1002 1002 1002 1002 1002 1002 1002 
1002 1002 1002 1002 1002 1002 1002 1002 1002 
1002 1002 1002 1002 1002 1002 1002 1002 1002 
1002 1002 1002 1002 1002 1002 1002 1002 1002 
1002 1002 1002 1002 1002 1002 1002 1002 1002 
1002 1002 1002 1002 1002 1002 1002 1002 1002 
1002 1002 1002 1002 1002 1002 1002 1002 1002 
1002 1002 1002 1002 1002 1002 1002 1002 1002 
1002 1002 1002 1002 1002 1002 1002 1002 1002 
1002 1002 1002 1002 1002 1002 1002 1002 1002 
1002 1002 1002 1002 1002 1002 1002 1002 1002 
1002 1002 1002 1002 1002 1002 1002 1002 1002 
1002 1002 1002 1002 1002 1002 1002 1002 1002 
1002 1002 1002 1002 1002 1002 1002 1002 1002 
1002 1002 1002 1002 1002 1002 1002 1002 1002 
1002 1002 1002 1002 1002 1002 1002 1002 1002 
1002 1002 1002 1002 1002 1002 1002 1002 1002 
1002 1002 1002 1002 1002 1002 1002 1002 1002 
1002 1002 1002 1002 1002 1002 1002 1002 1002 
1002 1002 1002 1002 1002 1002 1002 1002 1002 
1002 1002 1002 1002 1002 1002 1002 1002 1002 
1002 1002 1002 1002 1002 1002 1002 1002 1002 
1002 1002 1002 1002 1002 1002 1002 1002 1002 
1002 1002 1002 1002 1002 1002 1002 1002 1002 
1002 1002 1002 1002 1002 1002 1002 1002 1002 
1002 1002 1002 1002 1002 1002 1002 1002 1002 
1002 1002 1002 1002 1002 1002 1002 1002 1002 
1002 1002 1002 1002 1002 1002 1002 1002 1002 
1002 1002 1002 1002 1002 1002 1002 1002 1002 
1002 1002 1002 1002 1002 1002 1002 1002 1002 
1002 1002 1002 1002 1002 1002 1002 1002 1002 
1002 1002 1002 1002 1002 1002 1002 1002 1002 
1002 1002 1002 1002 1002 1002 1002 1002 1002 
1002 1002 1002 1002 1002 1002 1002 1002 1002 
1002 1002 1002 1002 1002 1002 1002 1002 1002 
1002 1002 1002 1002 1002 1002 1002 1002 1002 
1002 1002 1002 1002 1002 1002 1002 1002 1002 
1002 1002 1002 1002 1002 1002 1002 1002 1002 
1002 1002 1002 1002 1002 1002 1002 1002 1002 
1002 1002 1002 1002 1002 1002 1002 1002 1002 
1002 1002 1002 1002 1002 1002 1002 1002 1002 
1002 1002 1002 1002 1002 1002 1002 1002 1002 
1002 1002 1002 1002 1002 1002 1002 1002 1002 
1002 1002 1002 1002 1002 1002 1002 1002 1002 
1002 1002 1002 1002 1002 1002 1002 1002 1002 
1002 1002 1002 1002 1002 1002 1002 1002 1002 
1002 1002 1002 1002 1002 1002 1002 1002 1002 
1002 1002 1002 1002 1002 1002 1002 1002 1002 
1002 1002 1002 1002 1002 1002 1002 1002 1002 
1002 1002 1002 1002 1002 1002 1002 1002 1002 
1002 1002 1002 1002 1002 1002 1002 1002 1002 
1002 1002 1002 1002 1002 1002 1002 1002 1002 
1002 1002 1002 1002 1002 1002 1002 1002 1002 
1002 1002 1002 1002 1002 1002 1002 1002 1002 
1002 1002 1002 1002 1002 1002 1002 1002 1002 
1002 1002 1002 1002 1002 1002 1002 1002 1002 
1002 1002 1002 1002 1002 1002 1002 1002 1002 
1002 1002 1002 1002 1002 1002 1002 1002 1002 
1002 1002 1002 1002 1002 1002 1002 1002 1002 
1002 1002 1002 1002 1002 1002 1002 1002 1002 
1002 1002 1002 1002 1002 1002 1002 1002 1002 
1002 1002 1002 1002 1002 1002 1002 1002 1002 
1002 1002 1002 1002 1002 1002 1002 1002 1002 
1002 1002 1002 1002 1002 1002 1002 1002 1002 
1002 1002 1002 1002 1002 1002 1002 1002 1002 
1002 1002 1002 1002 1002 1002 1002 1002 1002 
1002 1002 1002 1002 1002 1002 1002 1002 1002 
1002 1002 1002 1002 1002 1002 1002 1002 1002 
1002 1002 1002 1002 1002 1002 1002 1002 1002 
1002 1002 1002 1002 1002 1002 1002 1002 1002 
1002 1002 1002 1002 1002 1002 1002 1002 1002 
1002 1002 1002 1002 1002 1002 1002 1002 1002 
1002 1002 1002 1002 1002 1002 1002 1002 1002 
1002 1002 1002 1002 1002 1002 1002 1002 1002 
1002 1002 1002 1002 1002 1002 1002 1002 1002 
1002 1002 1002 1002 1002 1002 1002 1002 1002 
1002 1002 1002 1002 1002 1002 1002 1002 1002 
1002 1002 1002 1002 1002 1002 1002 1002 1002 
1002 1002 1002 1002 1002 1002 1002 1002 1002 
1002 1002 1002 1002 1002 1002 1002 1002 1002 
1002 1002 1002 1002 1002 1002 1002 1002 1002 
1002 1002 1002 1002 1002 1002 1002 1002 1002 
1002 1002 1002 1002 1002 1002 1002 1002 1002 
1002 1002 1002 1002 1002 1002 1002 1002 1002 
1002 1002 1002 1002 1002 1002 1002 1002 1002 
1002 1002 1002 1002 1002 1002 1002 1002 1002 
1002 1002 1002 1002 1002 1002 1002 1002 1002 
1002 1002 1002 1002 1002 1002 1002 1002 1002 
1002 1002 1002 1002 1002 1002 1002 1002 1002 
1002 1002 1002 1002 1002 1002 1002 1002 1002 
1002 1002 1002 1002 1002 1002 1002 1002 1002 
1002 1002 1002 1002 1002 1002 1002 1002 1002 
1002 1002 1002 1002 1002 1002 1002 1002 1002 
1002 1002 1002 1002 1002 1002 1002 1002 1002 
1002 1002 1002 1002 1002 1002 1002 1002 1002 
1002 1002 1002 1002 1002 1002 1002 1002 1002 
1002 1002 1002 1002 1002 1002 1002 1002 1002 
1002 1002 1002 1002 1002 1002 1002 1002 1002 
1002 1002 1002 1002 1002 1002 1002 1002 1002 
1002 1002 1002 1002 1002 1002 1002 1002 1002 
1002 1002 1002 1002 1002 1002 1002 1002 1002 
1002 1002 1002 1002 1002 1002 1002 1002 1002 
1002 1002 1002 1002 1002 1002 1002 1002 1002 
1002 1002 1002 1002 1002 1002 1002 1002 1002 
1002 1002 1002 1002 1002 1002 1002 1002 1002 
1002 1002 1002 1002 1002 1002 1002 1002 1002 
1002 1002 1002 1002 1002 1002 1002 1002 1002 
1002 1002 1002 1002 1002 1002 1002 1002 1002 
1002 1002 1002 1002 1002 1002 1002 1002 1002 
1002 1002 1002 1002 1002 1002 1002 1002 1002 
1002 1002 1002 1002 1002 1002 1002 1002 1002 
1002 1002 1002 1002 1002 1002 1002 1002 1002 
1002 1002 1002 1002 1002 1002 1002 1002 1002 
1002 1002 1002 1002 1002 1002 1002 1002 1002 
1002 1002 1002 1002 1002 1002 1002 1002 1002 
1002 1002 1002 1002 1002 1002 1002 1002 1002 
1002 1002 1002 1002 1002 1002 1002 1002 1002 
1002 1002 1002 1002 1002 1002 1002 1002 1002 
1002 1002 1002 1002 1002 1002 1002 1002 1002 
1002 1002 1002 1002 1002 1002 1002 1002 1002 
1002 1002 1002 1002 1002 1002 1002 1002 1002 
1002 1002 1002 1002 1002 1002 1002 1002 1002 
1002 1002 1002 1002 1002 1002 1002 1002 1002 
1002 1002 1002 1002 1002 1002 1002 1002 1002 
1002 1002 1002 1002 1002 1002 1002 1002 1002 
1002 1002 1002 1002 1002 1002 1002 1002 1002 
1002 1002 1002 1002 1002 1002 1002 1002 1002 
1002 1002 1002 1002 1002 1002 1002 1002 1002 
1002 1002 1002 1002 1002 1002 1002 1002 1002 
1002 1002 1002 1002 1002 1002 1002 1002 1002 
1002 1002 1002 1002 1002 1002 1002 1002 1002 
1002 1002 1002 1002 1002 1002 1002 1002 1002 
1002 1002 1002 1002 1002 1002 1002 1002 1002 
1002 1002 1002 1002 1002 1002 1002 1002 1002 
1002 1002 1002 1002 1002 1002 1002 1002 1002 
1002 1002 1002 1002 1002 1002 1002 1002 1002 
1002 1002 1002 1002 1002 1002 1002 1002 1002 
1002 1002 1002 1002 1002 1002 1002 1002 1002 
1002 1002 1002 1002 1002 1002 1002 1002 1002 
1002 1002 1002 1002 1002 1002 1002 1002 1002 
1002 1002 1002 1002 1002 1002 1002 1002 1002 
1002 1002 1002 1002 1002 1002 1002 1002 1002 
1002 1002 1002 1002 1002 1002 1002 1002 1002 
1002 1002 1002 1002 1002 1002 1002 1002 1002 
1002 1002 1002 1002 1002 1002 1002 1002 1002 
1002 1002 1002 1002 1002 1002 1002 1002 1002 
1002 1002 1002 1002 1002 1002 1002 1002 1002 
1002 1002 1002 1002 1002 1002 1002 1002 1002 
1002 1002 1002 1002 1002 1002 1002 1002 1002 
1002 1002 1002 1002 1002 1002 1002 1002 1002 
1002 1002 1002 1002 1002 1002 1002 1002 1002 
1002 1002 1002 1002 1002 1002 1002 1002 1002 