# vtk DataFile Version 4.2
vtk output
ASCII
DATASET POLYDATA
POINTS 25874 float
-14.1667 -26.6828 42.4189 -14.1396 -26.4362 42.2583 -14.0399 -26.7908 42.152 
-14.3318 -26.5789 42.3274 -14.287 -26.8601 42.3239 -14.7958 -19.4879 41.7993 
-14.8155 -19.2205 41.5522 -14.7036 -19.5286 41.6297 -15.0728 -19.5696 41.6042 
-14.8125 -19.6128 41.7107 -14.9185 -25.6084 41.9347 -14.6891 -25.2897 41.5654 
-14.4509 -25.541 41.7678 -15.4153 -25.6064 41.9166 -15.3406 -25.1639 41.5557 
-15.7244 -25.4735 41.6644 -14.4101 -26.0642 42.0352 -14.2033 -25.7478 41.7483 
-13.9663 -26.1943 41.7938 -14.9289 -26.1872 42.0547 -15.3495 -26.0711 41.9779 
-15.7208 -25.9273 41.7625 -13.8061 -26.825 41.6263 -14.7231 -26.8011 42.1261 
-15.336 -26.6938 41.9597 -15.7334 -26.5196 41.7421 -14.3493 -27.2962 42.1016 
-13.9796 -27.328 41.8331 -14.7975 -27.3594 42.051 -15.2289 -27.3598 41.9236 
-15.7154 -27.1105 41.7164 -14.1993 -27.7866 41.9058 -13.9932 -27.781 41.6098 
-14.7126 -27.8107 41.9357 -15.2003 -27.8405 41.7833 -15.5645 -27.5743 41.6915 
-14.2378 -28.205 41.6369 -14.8677 -28.1445 41.7145 -12.962 -30.2557 41.795 
-12.9335 -30.0139 41.6577 -12.8264 -30.3453 41.534 -13.1205 -30.1554 41.7142 
-13.0702 -30.4157 41.7024 -13.6042 -30.7267 41.7365 -13.3699 -31.0213 41.7067 
-13.6591 -31.0246 41.829 -13.8289 -30.8356 41.703 -13.5806 -31.3786 41.8366 
-13.4059 -31.5764 41.6907 -13.8949 -31.3023 41.7438 -13.7106 -31.6839 41.7116 
-14.3846 -18.9616 41.3133 -14.1427 -18.6832 41.1233 -13.9699 -18.8997 41.157 
-14.7713 -18.8658 41.3797 -14.7653 -18.5633 41.0238 -15.1324 -18.8663 41.1701 
-14.0263 -19.1622 41.0285 -14.4997 -19.4745 41.2476 -15.4789 -19.6264 41.3509 
-15.3176 -19.2289 41.3141 -15.6374 -19.3508 40.9661 -14.8751 -19.7943 41.3738 
-15.4104 -20.1585 41.3809 -14.9663 -20.1974 41.1738 -15.7987 -19.879 41.041 
-15.0374 -20.6376 41.2973 -14.7172 -20.4558 41.0525 -14.6651 -20.7979 41.0738 
-15.4251 -20.6907 41.455 -15.9504 -20.3451 41.2033 -15.8265 -20.7696 41.3404 
-16.2225 -20.6187 40.9327 -14.9154 -21.054 41.1855 -15.076 -21.514 41.0443 
-15.3936 -21.2021 41.3498 -15.8344 -21.2856 41.2305 -16.1015 -21.0666 41.0752 
-15.3675 -21.7752 41.2529 -15.2361 -22.0515 40.9866 -15.726 -21.8646 41.0635 
-15.4509 -22.1712 41.0757 -13.5349 -24.2836 41.1923 -13.6038 -24.1382 40.9127 
-13.4419 -24.3103 41.029 -13.8324 -24.35 40.9708 -13.547 -24.3941 41.1056 
-15.4358 -24.8791 41.3109 -15.5186 -24.7375 41.0062 -15.1536 -24.8101 41.0996 
-15.7307 -24.8784 41.1399 -14.1788 -25.5762 41.4933 -14.3631 -25.2456 41.2164 
-13.9324 -25.4846 41.1207 -14.7652 -25.0489 41.2109 -16.0345 -25.6617 41.4057 
-16.038 -25.1652 41.1283 -16.3457 -25.4748 41.0401 -12.4915 -26.025 41.2512 
-12.479 -25.9445 40.9799 -12.2728 -26.0591 41.1431 -13.0267 -26.1407 41.2965 
-12.8448 -25.8891 41.1346 -13.6855 -25.9635 41.3896 -13.3871 -25.7573 41.0315 
-16.0331 -26.2349 41.4434 -16.343 -25.9338 41.1272 -12.4815 -26.1928 41.1967 
-12.8919 -26.4716 41.0526 -13.2808 -26.6889 41.1042 -13.4915 -26.4888 41.3811 
-16.0488 -26.8547 41.4291 -16.3458 -26.5516 41.1362 -13.4984 -26.9276 41.0822 
-13.8191 -27.3488 41.3281 -15.9512 -27.4884 41.4315 -16.3467 -27.2545 41.0715 
-13.9513 -27.9623 41.0368 -15.4103 -27.9923 41.553 -15.8744 -28.0378 41.3136 
-16.2095 -27.8631 41.0537 -13.6007 -28.3683 41.0236 -13.474 -28.4939 41.1133 
-13.7189 -28.409 41.2943 -14.0573 -28.5641 41.3779 -14.7255 -28.4607 41.4447 
-15.3776 -28.4227 41.3126 -15.7891 -28.537 41.0214 -16.0713 -28.2564 41.0267 
-13.7018 -28.6029 41.0865 -14.2774 -28.7728 41.0468 -14.9507 -28.7989 41.1094 
-15.4068 -28.7889 41.0219 -13.1875 -29.7612 41.4193 -13.155 -29.477 41.0115 
-12.8596 -29.8341 41.2912 -13.724 -29.8081 41.2982 -13.4587 -29.4457 41.1359 
-13.8421 -29.544 41.0557 -12.6142 -30.2611 41.0353 -13.5411 -30.4112 41.5731 
-14.1741 -29.8496 41.1464 -14.3103 -30.2955 41.3519 -14.8414 -30.4191 41.265 
-14.6346 -30.0147 41.1069 -15.0405 -30.2417 41.071 -13.0417 -30.7749 41.5293 
-12.6835 -30.9716 41.1971 -14.2278 -30.9634 41.5275 -14.7718 -30.8818 41.3438 
-15.1537 -30.7336 41.1356 -13.0659 -31.4719 41.4337 -12.6818 -31.7066 41.125 
-14.1074 -31.64 41.5445 -14.6281 -31.5533 41.3338 -15.1382 -31.4355 41.025 
-13.0068 -32.0012 41.2688 -12.7549 -32.1016 41.1068 -13.5424 -31.9877 41.441 
-14.1996 -32.0569 41.3238 -14.605 -32.1416 41.0316 -14.8675 -31.8508 41.0306 
-13.0349 -32.3816 41.0505 -13.7696 -32.4366 41.1433 -14.2453 -32.4148 41.0501 
-13.6928 -18.2678 40.7133 -13.6243 -18.0819 40.334 -13.3805 -18.4073 40.5402 
-14.2525 -18.3244 40.8559 -14.1837 -18.0288 40.4679 -14.7724 -18.2491 40.7637 
-14.6865 -18.0925 40.5421 -15.0869 -18.2785 40.4048 -13.7022 -18.7271 40.8571 
-13.4331 -18.7192 40.3753 -15.4928 -18.9644 40.8955 -15.347 -18.6422 40.6411 
-15.6364 -18.9539 40.4671 -13.7463 -19.1247 40.5459 -14.1182 -19.6498 40.8161 
-13.7874 -19.4932 40.4744 -15.8114 -19.4687 40.434 -13.8016 -20.0753 40.712 
-13.5547 -19.7269 40.4405 -13.3843 -20.1333 40.4635 -14.2159 -20.117 40.8107 
-14.5853 -20.0454 40.9703 -16.019 -19.8804 40.5981 -16.107 -20.1817 40.8964 
-16.2362 -20.1795 40.4751 -13.6578 -20.6631 40.7061 -13.3465 -20.7325 40.3561 
-14.2764 -20.6082 40.8657 -16.3613 -20.5813 40.3886 -13.6441 -21.076 40.5824 
-13.9406 -21.4212 40.4759 -14.0661 -21.1457 40.7003 -14.6129 -21.2047 40.8558 
-16.0591 -21.5263 40.9078 -16.3065 -21.1282 40.5546 -14.4107 -21.5599 40.4952 
-14.833 -21.6111 40.6169 -15.0156 -21.9653 40.6079 -16.0385 -21.906 40.7824 
-16.2491 -21.827 40.3812 -15.3856 -22.4301 40.8004 -15.1649 -22.5112 40.4821 
-15.679 -22.4234 40.7157 -16.0223 -22.2492 40.5411 -15.5857 -22.6755 40.3716 
-13.7434 -24.0906 40.3923 -13.4738 -24.2342 40.6797 -14.4003 -24.3829 40.776 
-14.1604 -24.0397 40.5381 -14.9022 -24.4426 40.7344 -14.6817 -24.1193 40.5043 
-15.1159 -24.1803 40.3785 -13.632 -24.5061 40.7612 -14.1394 -24.9073 40.8841 
-13.7809 -24.8299 40.4027 -14.6851 -24.7436 40.9286 -15.4298 -24.5396 40.5862 
-16.028 -24.873 40.8255 -15.8641 -24.7185 40.6374 -16.2725 -24.918 40.4028 
-13.7179 -25.3348 40.7406 -13.6048 -25.2362 40.2887 -13.3649 -25.6096 40.4438 
-16.6476 -25.6812 40.7758 -16.5294 -25.2618 40.63 -16.8071 -25.4895 40.3755 
-12.4307 -26.2124 40.8947 -12.6192 -26.1623 40.5023 -12.9299 -25.8319 40.7206 
-16.6523 -26.2537 40.8384 -16.875 -25.9545 40.4311 -12.723 -26.7084 40.4525 
-13.0808 -26.766 40.8373 -16.642 -26.8789 40.8401 -16.8739 -26.5728 40.4702 
-13.1437 -27.0471 40.5999 -13.6459 -27.3743 40.768 -13.2919 -27.3089 40.4676 
-16.5979 -27.3798 40.7414 -16.8156 -27.1413 40.4623 -13.5929 -27.5836 40.3493 
-14.1168 -27.7203 40.612 -14.2906 -27.89 40.6644 -14.3639 -27.8783 40.5097 
-16.405 -27.7987 40.6567 -16.6219 -27.5932 40.3377 -13.5365 -28.5109 40.9434 
-13.8561 -28.6113 40.6451 -14.1482 -28.0982 40.4605 -16.0253 -28.5176 40.8198 
-16.2178 -28.382 40.5018 -13.6948 -28.9659 40.3908 -13.5292 -29.1609 40.4711 
-13.6684 -29.1955 40.7626 -14.2519 -29.1311 40.7986 -14.81 -29.184 40.8651 
-15.3133 -29.164 40.8018 -15.6943 -29.0258 40.6667 -16.0004 -28.8152 40.5296 
-12.868 -29.7714 40.8275 -13.2161 -29.4811 40.5005 -14.247 -29.5736 40.9185 
-14.8538 -29.7222 40.8717 -15.4404 -29.7285 40.7227 -15.7439 -29.5002 40.5063 
-12.2855 -30.4129 40.7697 -12.478 -29.9932 40.5585 -12.0606 -30.3359 40.3896 
-12.857 -29.7847 40.4781 -15.4468 -30.3743 40.8904 -15.9219 -29.9343 40.535 
-15.9423 -30.3347 40.6833 -16.2349 -30.2517 40.4729 -11.9711 -30.8598 40.7157 
-11.7883 -30.7186 40.4101 -11.6013 -31.1169 40.4818 -12.3708 -30.7791 40.9246 
-15.5124 -31.0614 40.9244 -15.9517 -30.9205 40.7427 -16.3385 -30.7515 40.5249 
-11.8176 -31.5174 40.7427 -11.517 -31.615 40.5176 -12.2931 -31.3549 40.9166 
-15.4947 -31.4573 40.8458 -15.8353 -31.4541 40.7071 -16.3387 -31.457 40.4115 
-11.7314 -31.974 40.6571 -11.5831 -31.9515 40.3514 -12.3149 -32.0466 40.8548 
-14.8369 -32.1137 40.8287 -15.126 -32.1107 40.5298 -15.5467 -31.8197 40.5982 
-16.0052 -31.8371 40.4302 -11.9622 -32.2579 40.4757 -12.5159 -32.4727 40.6215 
-12.9466 -32.7397 40.7898 -12.7003 -32.8222 40.4644 -13.4313 -32.8367 40.8511 
-14.0307 -32.7214 40.789 -14.4887 -32.5903 40.6743 -14.8178 -32.4178 40.5302 
-13.0467 -33.123 40.6822 -12.8445 -33.275 40.3256 -13.3541 -33.2357 40.6046 
-13.8069 -33.074 40.4141 -14.3383 -32.8899 40.3361 -13.1711 -33.4679 40.3937 
-13.6595 -18.011 39.76 -13.3912 -18.3332 39.9931 -14.1864 -17.9382 39.9325 
-14.7508 -18.0236 40.0744 -15.1712 -18.2459 39.721 -17.9672 -18.4317 40.0663 
-17.7136 -18.1156 39.8841 -17.5412 -18.4692 39.9366 -18.0683 -18.1759 39.8928 
-13.5213 -18.6803 39.9519 -13.5962 -18.8919 40.1995 -13.7297 -19.0024 39.957 
-15.4617 -18.5625 40.0515 -15.6665 -18.9639 39.8993 -17.8979 -18.8905 40.1545 
-17.4922 -19.0184 39.9373 -18.3184 -18.5181 39.9795 -18.3324 -18.9051 40.1101 
-18.6122 -18.8347 39.8973 -13.6336 -19.2158 39.7034 -13.416 -19.6317 40.0652 
-13.6549 -19.3759 40.1589 -15.7986 -19.5075 39.7255 -17.8836 -19.4751 40.1694 
-17.4962 -19.6208 39.9262 -18.4408 -19.51 40.1733 -18.7608 -19.3041 39.9403 
-13.2249 -20.0899 40.0084 -16.0328 -19.8311 40.1082 -16.2406 -20.2866 39.8646 
-17.8756 -20.0777 40.1649 -17.4921 -20.2232 39.9212 -18.4039 -20.095 40.243 
-18.9335 -19.7606 39.9831 -18.9228 -20.1489 40.1105 -19.2226 -20.0759 39.8798 
-13.3072 -20.5639 39.8754 -16.3691 -20.7857 39.9919 -17.8745 -20.6814 40.1557 
-17.4895 -20.8241 39.9194 -18.4111 -20.6941 40.2454 -18.9423 -20.7018 40.1541 
-19.3191 -20.557 39.9082 -13.5945 -21.3595 40.3159 -13.3942 -21.2955 39.9491 
-16.3498 -21.3086 39.8979 -17.8752 -21.2908 40.1554 -17.4842 -21.4373 39.9225 
-18.415 -21.2897 40.2478 -19.05 -21.3465 40.1654 -19.4012 -21.118 39.9331 
-13.5714 -21.7664 40.0623 -13.3787 -22.02 39.7552 -14.1309 -21.8774 40.1979 
-14.6984 -21.8935 40.3526 -16.3365 -21.8432 39.7789 -17.8814 -21.9123 40.1651 
-17.4958 -22.0454 39.9322 -18.4154 -21.896 40.2535 -18.9201 -21.8332 40.2335 
-19.5455 -21.5606 39.9699 -19.4249 -21.9787 40.0772 -19.7816 -21.8175 39.8718 
-13.7844 -22.1792 39.8857 -14.2621 -22.3174 39.9526 -14.3674 -22.6311 39.9482 
[...]
CELL_DATA 51912
SCALARS scalars float
LOOKUP_TABLE default
1027 1027 1027 1027 1027 1027 1027 1027 1027 
1027 1027 1027 1027 1027 1027 1027 1027 1027 
1027 1027 1027 1027 1027 1027 1027 1027 1027 
1027 1027 1027 1027 1027 1027 1027 1027 1027 
1027 1027 1027 1027 1027 1027 1027 1027 1027 
1027 1027 1027 1027 1027 1027 1027 1027 1027 
1027 1027 1027 1027 1027 1027 1027 1027 1027 
1027 1027 1027 1027 1027 1027 1027 1027 1027 
1027 1027 1027 1027 1027 1027 1027 1027 1027 
1027 1027 1027 1027 1027 1027 1027 1027 1027 
1027 1027 1027 1027 1027 1027 1027 1027 1027 
1027 1027 1027 1027 1027 1027 1027 1027 1027 
1027 1027 1027 1027 1027 1027 1027 1027 1027 
1027 1027 1027 1027 1027 1027 1027 1027 1027 
1027 1027 1027 1027 1027 1027 1027 1027 1027 
1027 1027 1027 1027 1027 1027 1027 1027 1027 
1027 1027 1027 1027 1027 1027 1027 1027 1027 
1027 1027 1027 1027 1027 1027 1027 1027 1027 
1027 1027 1027 1027 1027 1027 1027 1027 1027 
1027 1027 1027 1027 1027 1027 1027 1027 1027 
1027 1027 1027 1027 1027 1027 1027 1027 1027 
1027 1027 1027 1027 1027 1027 1027 1027 1027 
1027 1027 1027 1027 1027 1027 1027 1027 1027 
1027 1027 1027 1027 1027 1027 1027 1027 1027 
1027 1027 1027 1027 1027 1027 1027 1027 1027 
1027 1027 1027 1027 1027 1027 1027 1027 1027 
1027 1027 1027 1027 1027 1027 1027 1027 1027 
1027 1027 1027 1027 1027 1027 1027 1027 1027 
1027 1027 1027 1027 1027 1027 1027 1027 1027 
1027 1027 1027 1027 1027 1027 1027 1027 1027 
1027 1027 1027 1027 1027 1027 1027 1027 1027 
1027 1027 1027 1027 1027 1027 1027 1027 1027 
1027 1027 1027 1027 1027 1027 1027 1027 1027 
1027 1027 1027 1027 1027 1027 1027 1027 1027 
1027 1027 1027 1027 1027 1027 1027 1027 1027 
1027 1027 1027 1027 1027 1027 1027 1027 1027 
1027 1027 1027 1027 1027 1027 1027 1027 1027 
1027 1027 1027 1027 1027 1027 1027 1027 1027 
1027 1027 1027 1027 1027 1027 1027 1027 1027 
1027 1027 1027 1027 1027 1027 1027 1027 1027 
1027 1027 1027 1027 1027 1027 1027 1027 1027 
1027 1027 1027 1027 1027 1027 1027 1027 1027 
1027 1027 1027 1027 1027 1027 1027 1027 1027 
1027 1027 1027 1027 1027 1027 1027 1027 1027 
1027 1027 1027 1027 1027 1027 1027 1027 1027 
1027 1027 1027 1027 1027 1027 1027 1027 1027 
1027 1027 1027 1027 1027 1027 1027 1027 1027 
1027 1027 1027 1027 1027 1027 1027 1027 1027 
1027 1027 1027 1027 1027 1027 1027 1027 1027 
1027 1027 1027 1027 1027 1027 1027 1027 1027 
1027 1027 1027 1027 1027 1027 1027 1027 1027 
1027 1027 1027 1027 1027 1027 1027 1027 1027 
1027 1027 1027 1027 1027 1027 1027 1027 1027 
1027 1027 1027 1027 1027 1027 1027 1027 1027 
1027 1027 1027 1027 1027 1027 1027 1027 1027 
1027 1027 1027 1027 1027 1027 1027 1027 1027 
1027 1027 1027 1027 1027 1027 1027 1027 1027 
1027 1027 1027 1027 1027 1027 1027 1027 1027 
1027 1027 1027 1027 1027 1027 1027 1027 1027 
1027 1027 1027 1027 1027 1027 1027 1027 1027 
1027 1027 1027 1027 1027 1027 1027 1027 1027 
1027 1027 1027 1027 1027 1027 1027 1027 1027 
1027 1027 1027 1027 1027 1027 1027 1027 1027 
1027 1027 1027 1027 1027 1027 1027 1027 1027 
1027 1027 1027 1027 1027 1027 1027 1027 1027 
1027 1027 1027 1027 1027 1027 1027 1027 1027 
1027 1027 1027 1027 1027 1027 1027 1027 1027 
1027 1027 1027 1027 1027 1027 1027 1027 1027 
1027 1027 1027 1027 1027 1027 1027 1027 1027 
1027 1027 1027 1027 1027 1027 1027 1027 1027 
1027 1027 1027 1027 1027 1027 1027 1027 1027 
1027 1027 1027 1027 1027 1027 1027 1027 1027 
1027 1027 1027 1027 1027 1027 1027 1027 1027 
1027 1027 1027 1027 1027 1027 1027 1027 1027 
1027 1027 1027 1027 1027 1027 1027 1027 1027 
1027 1027 1027 1027 1027 1027 1027 1027 1027 
1027 1027 1027 1027 1027 1027 1027 1027 1027 
1027 1027 1027 1027 1027 1027 1027 1027 1027 
1027 1027 1027 1027 1027 1027 1027 1027 1027 
1027 1027 1027 1027 1027 1027 1027 1027 1027 
1027 1027 1027 1027 1027 1027 1027 1027 1027 
1027 1027 1027 1027 1027 1027 1027 1027 1027 
1027 1027 1027 1027 1027 1027 1027 1027 1027 
1027 1027 1027 1027 1027 1027 1027 1027 1027 
1027 1027 1027 1027 1027 1027 1027 1027 1027 
1027 1027 1027 1027 1027 1027 1027 1027 1027 
1027 1027 1027 1027 1027 1027 1027 1027 1027 
1027 1027 1027 1027 1027 1027 1027 1027 1027 
1027 1027 1027 1027 1027 1027 1027 1027 1027 
1027 1027 1027 1027 1027 1027 1027 1027 1027 
1027 1027 1027 1027 1027 1027 1027 1027 1027 
1027 1027 1027 1027 1027 1027 1027 1027 1027 
1027 1027 1027 1027 1027 1027 1027 1027 1027 
1027 1027 1027 1027 1027 1027 1027 1027 1027 
1027 1027 1027 1027 1027 1027 1027 1027 1027 
1027 1027 1027 1027 1027 1027 1027 1027 1027 
1027 1027 1027 1027 1027 1027 1027 1027 1027 
1027 1027 1027 1027 1027 1027 1027 1027 1027 
1027 1027 1027 1027 1027 1027 1027 1027 1027 
1027 1027 1027 1027 1027 1027 1027 1027 1027 
1027 1027 1027 1027 1027 1027 1027 1027 1027 
1027 1027 1027 1027 1027 1027 1027 1027 1027 
1027 1027 1027 1027 1027 1027 1027 1027 1027 
1027 1027 1027 1027 1027 1027 1027 1027 1027 
1027 1027 1027 1027 1027 1027 1027 1027 1027 
1027 1027 1027 1027 1027 1027 1027 1027 1027 
1027 1027 1027 1027 1027 1027 1027 1027 1027 
1027 1027 1027 1027 1027 1027 1027 1027 1027 
1027 1027 1027 1027 1027 1027 1027 1027 1027 
1027 1027 1027 1027 1027 1027 1027 1027 1027 
1027 1027 1027 1027 1027 1027 1027 1027 1027 
1027 1027 1027 1027 1027 1027 1027 1027 1027 
1027 1027 1027 1027 1027 1027 1027 1027 1027 
1027 1027 1027 1027 1027 1027 1027 1027 1027 
1027 1027 1027 1027 1027 1027 1027 1027 1027 
1027 1027 1027 1027 1027 1027 1027 1027 1027 
1027 1027 1027 1027 1027 1027 1027 1027 1027 
1027 1027 1027 1027 1027 1027 1027 1027 1027 
1027 1027 1027 1027 1027 1027 1027 1027 1027 
1027 1027 1027 1027 1027 1027 1027 1027 1027 
1027 1027 1027 1027 1027 1027 1027 1027 1027 
1027 1027 1027 1027 1027 1027 1027 1027 1027 
1027 1027 1027 1027 1027 1027 1027 1027 1027 
1027 1027 1027 1027 1027 1027 1027 1027 1027 
1027 1027 1027 1027 1027 1027 1027 1027 1027 
1027 1027 1027 1027 1027 1027 1027 1027 1027 
1027 1027 1027 1027 1027 1027 1027 1027 1027 
1027 1027 1027 1027 1027 1027 1027 1027 1027 
1027 1027 1027 1027 1027 1027 1027 1027 1027 
1027 1027 1027 1027 1027 1027 1027 1027 1027 
1027 1027 1027 1027 1027 1027 1027 1027 1027 
1027 1027 1027 1027 1027 1027 1027 1027 1027 
1027 1027 1027 1027 1027 1027 1027 1027 1027 
1027 1027 1027 1027 1027 1027 1027 1027 1027 
1027 1027 1027 1027 1027 1027 1027 1027 1027 
1027 1027 1027 1027 1027 1027 1027 1027 1027 
1027 1027 1027 1027 1027 1027 1027 1027 1027 
1027 1027 1027 1027 1027 1027 1027 1027 1027 
1027 1027 1027 1027 1027 1027 1027 1027 1027 
1027 1027 1027 1027 1027 1027 1027 1027 1027 
1027 1027 1027 1027 1027 1027 1027 1027 1027 
1027 1027 1027 1027 1027 1027 1027 1027 1027 
1027 1027 1027 1027 1027 1027 1027 1027 1027 
1027 1027 1027 1027 1027 1027 1027 1027 1027 
1027 1027 1027 1027 1027 1027 1027 1027 1027 
1027 1027 1027 1027 1027 1027 1027 1027 1027 
1027 1027 1027 1027 1027 1027 1027 1027 1027 
1027 1027 1027 1027 1027 1027 1027 1027 1027 
1027 1027 1027 1027 1027 1027 1027 1027 1027 
1027 1027 1027 1027 1027 1027 1027 1027 1027 
1027 1027 1027 1027 1027 1027 1027 1027 1027 
1027 1027 1027 1027 1027 1027 1027 1027 1027 
1027 1027 1027 1027 1027 1027 1027 1027 1027 
1027 1027 1027 1027 1027 1027 1027 1027 1027 
1027 1027 1027 1027 1027 1027 1027 1027 1027 
1027 1027 1027 1027 1027 1027 1027 1027 1027 
1027 1027 1027 1027 1027 1027 1027 1027 1027 
1027 1027 1027 1027 1027 1027 1027 1027 1027 
1027 1027 1027 1027 1027 1027 1027 1027 1027 
1027 1027 1027 1027 1027 1027 1027 1027 1027 
1027 1027 1027 1027 1027 1027 1027 1027 1027 
1027 1027 1027 1027 1027 1027 1027 1027 1027 
1027 1027 1027 1027 1027 1027 1027 1027 1027 
1027 1027 1027 1027 1027 1027 1027 1027 1027 
1027 1027 1027 1027 1027 1027 1027 1027 1027 
1027 1027 1027 1027 1027 1027 1027 1027 1027 
1027 1027 1027 1027 1027 1027 1027 1027 1027 
1027 1027 1027 1027 1027 1027 1027 1027 1027 
1027 1027 1027 1027 1027 1027 1027 1027 1027 
1027 1027 1027 1027 1027 1027 1027 1027 1027 
1027 1027 1027 1027 1027 1027 1027 1027 1027 
1027 1027 1027 1027 1027 1027 1027 1027 1027 
1027 1027 1027 1027 1027 1027 1027 1027 1027 
1027 1027 1027 1027 1027 1027 1027 1027 1027 
1027 1027 1027 1027 1027 1027 1027 1027 1027 
1027 1027 1027 1027 1027 1027 1027 1027 1027 
1027 1027 1027 1027 1027 1027 1027 1027 1027 
1027 1027 1027 1027 1027 1027 1027 1027 1027 
1027 1027 1027 1027 1027 1027 1027 1027 1027 
1027 1027 1027 1027 1027 1027 1027 1027 1027 
1027 1027 1027 1027 1027 1027 1027 1027 1027 
1027 1027 1027 1027 1027 1027 1027 1027 1027 
1027 1027 1027 1027 1027 1027 1027 1027 1027 
1027 1027 1027 1027 1027 1027 1027 1027 1027 
1027 1027 1027 1027 1027 1027 1027 1027 1027 
1027 1027 1027 1027 1027 1027 1027 1027 1027 
1027 1027 1027 1027 1027 1027 1027 1027 1027 
1027 1027 1027 1027 1027 1027 1027 1027 1027 
1027 1027 1027 1027 1027 1027 1027 1027 1027 
1027 1027 1027 1027 1027 1027 1027 1027 1027 
1027 1027 1027 1027 1027 1027 1027 1027 1027 
1027 1027 1027 1027 1027 1027 1027 1027 1027 
1027 1027 1027 1027 1027 1027 1027 1027 1027 
1027 1027 1027 1027 1027 1027 1027 1027 1027 
1027 1027 1027 1027 1027 1027 1027 1027 1027 
1027 1027 1027 1027 1027 1027 1027 1027 1027 
1027 1027 1027 1027 1027 1027 1027 1027 1027 
1027 1027 1027 1027 1027 1027 1027 1027 1027 
1027 1027 1027 1027 1027 1027 1027 1027 1027 
1027 1027 1027 1027 1027 1027 1027 1027 1027 
1027 1027 1027 1027 1027 1027 1027 1027 1027 
1027 1027 1027 1027 1027 1027 1027 1027 1027 
1027 1027 1027 1027 1027 1027 1027 1027 1027 
1027 1027 1027 1027 1027 1027 1027 1027 1027 
1027 1027 1027 1027 1027 1027 1027 1027 1027 
1027 1027 1027 1027 1027 1027 1027 1027 1027 
1027 1027 1027 1027 1027 1027 1027 1027 1027 
1027 1027 1027 1027 1027 1027 1027 1027 1027 
1027 1027 1027 1027 1027 1027 1027 1027 1027 
1027 1027 1027 1027 1027 1027 1027 1027 1027 
1027 1027 1027 1027 1027 1027 1027 1027 1027 
1027 1027 1027 1027 1027 1027 1027 1027 1027 
1027 1027 1027 1027 1027 1027 1027 1027 1027 
1027 1027 1027 1027 1027 1027 1027 1027 1027 
1027 1027 1027 1027 1027 1027 1027 1027 1027 
1027 1027 1027 1027 1027 1027 1027 1027 1027 
1027 1027 1027 1027 1027 1027 1027 1027 1027 
1027 1027 1027 1027 1027 1027 1027 1027 1027 
1027 1027 1027 1027 1027 1027 1027 1027 1027 
1027 1027 1027 1027 1027 1027 1027 1027 1027 
1027 1027 1027 1027 1027 1027 1027 1027 1027 
1027 1027 1027 1027 1027 1027 1027 1027 1027 
1027 1027 1027 1027 1027 1027 1027 1027 1027 
1027 1027 1027 1027 1027 1027 1027 1027 1027 
1027 1027 1027 1027 1027 1027 1027 1027 1027 
1027 1027 1027 1027 1027 1027 1027 1027 1027 
1027 1027 1027 1027 1027 1027 1027 1027 1027 
1027 1027 1027 1027 1027 1027 1027 1027 1027 
1027 1027 1027 1027 1027 1027 1027 1027 1027 
1027 1027 1027 1027 1027 1027 1027 1027 1027 
1027 1027 1027 1027 1027 1027 1027 1027 1027 
1027 1027 1027 1027 1027 1027 1027 1027 1027 
1027 1027 1027 1027 1027 1027 1027 1027 1027 
1027 1027 1027 1027 1027 1027 1027 1027 1027 
1027 1027 1027 1027 1027 1027 1027 1027 1027 
1027 1027 1027 1027 1027 1027 1027 1027 1027 
1027 1027 1027 1027 1027 1027 1027 1027 1027 
1027 1027 1027 1027 1027 1027 1027 1027 1027 
1027 1027 1027 1027 1027 1027 1027 1027 1027 
1027 1027 1027 1027 1027 1027 1027 1027 1027 
1027 1027 1027 1027 1027 1027 1027 1027 1027 
1027 1027 1027 1027 1027 1027 1027 1027 1027 
1027 1027 1027 1027 1027 1027 1027 1027 1027 
1027 1027 1027 1027 1027 1027 1027 1027 1027 
1027 1027 1027 1027 1027 1027 1027 1027 1027 
1027 1027 1027 1027 1027 1027 1027 1027 1027 
1027 1027 1027 1027 1027 1027 1027 1027 1027 
1027 1027 1027 1027 1027 1027 1027 1027 1027 
1027 1027 1027 1027 1027 1027 1027 1027 1027 
1027 1027 1027 1027 1027 1027 1027 1027 1027 
1027 1027 1027 1027 1027 1027 1027 1027 1027 
1027 1027 1027 1027 1027 1027 1027 1027 1027 
1027 1027 1027 1027 1027 1027 1027 1027 1027 
1027 1027 1027 1027 1027 1027 1027 1027 1027 
1027 1027 1027 1027 1027 1027 1027 1027 1027 
1027 1027 1027 1027 1027 1027 1027 1027 1027 
1027 1027 1027 1027 1027 1027 1027 1027 1027 
1027 1027 1027 1027 1027 1027 1027 1027 1027 
1027 1027 1027 1027 1027 1027 1027 1027 1027 
1027 1027 1027 1027 1027 1027 1027 1027 1027 
1027 1027 1027 1027 1027 1027 1027 1027 1027 
1027 1027 1027 1027 1027 1027 1027 1027 1027 
1027 1027 1027 1027 1027 1027 1027 1027 1027 
1027 1027 1027 1027 1027 1027 1027 1027 1027 
1027 1027 1027 1027 1027 1027 1027 1027 1027 
1027 1027 1027 1027 1027 1027 1027 1027 1027 
1027 1027 1027 1027 1027 1027 1027 1027 1027 
1027 1027 1027 1027 1027 1027 1027 1027 1027 
1027 1027 1027 1027 1027 1027 1027 1027 1027 
1027 1027 1027 1027 1027 1027 1027 1027 1027 
1027 1027 1027 1027 1027 1027 1027 1027 1027 
1027 1027 1027 1027 1027 1027 1027 1027 1027 
1027 1027 1027 1027 1027 1027 1027 1027 1027 
1027 1027 1027 1027 1027 1027 1027 1027 1027 
1027 1027 1027 1027 1027 1027 1027 1027 1027 
1027 1027 1027 1027 1027 1027 1027 1027 1027 
1027 1027 1027 1027 1027 1027 1027 1027 1027 
1027 1027 1027 1027 1027 1027 1027 1027 1027 
1027 1027 1027 1027 1027 1027 1027 1027 1027 
1027 1027 1027 1027 1027 1027 1027 1027 1027 
1027 1027 1027 1027 1027 1027 1027 1027 1027 
1027 1027 1027 1027 1027 1027 1027 1027 1027 
1027 1027 1027 1027 1027 1027 1027 1027 1027 
1027 1027 1027 1027 1027 1027 1027 1027 1027 
1027 1027 1027 1027 1027 1027 1027 1027 1027 
1027 1027 1027 1027 1027 1027 1027 1027 1027 
1027 1027 1027 1027 1027 1027 1027 1027 1027 
1027 1027 1027 1027 1027 1027 1027 1027 1027 
1027 1027 1027 1027 1027 1027 1027 1027 1027 
1027 1027 1027 1027 1027 1027 1027 1027 1027 
1027 1027 1027 1027 1027 1027 1027 1027 1027 
1027 1027 1027 1027 1027 1027 1027 1027 1027 
1027 1027 1027 1027 1027 1027 1027 1027 1027 
1027 1027 1027 1027 1027 1027 1027 1027 1027 
1027 1027 1027 1027 1027 1027 1027 1027 1027 
1027 1027 1027 1027 1027 1027 1027 1027 1027 
1027 1027 1027 1027 1027 1027 1027 1027 1027 
1027 1027 1027 1027 1027 1027 1027 1027 1027 
1027 1027 1027 1027 1027 1027 1027 1027 1027 
1027 1027 1027 1027 1027 1027 1027 1027 1027 
1027 1027 1027 1027 1027 1027 1027 1027 1027 
1027 1027 1027 1027 1027 1027 1027 1027 1027 
1027 1027 1027 1027 1027 1027 1027 1027 1027 
1027 1027 1027 1027 1027 1027 1027 1027 1027 
1027 1027 1027 1027 1027 1027 1027 1027 1027 
1027 1027 1027 1027 1027 1027 1027 1027 1027 
1027 1027 1027 1027 1027 1027 1027 1027 1027 
1027 1027 1027 1027 1027 1027 1027 1027 1027 
1027 1027 1027 1027 1027 1027 1027 1027 1027 
1027 1027 1027 1027 1027 1027 1027 1027 1027 
1027 1027 1027 1027 1027 1027 1027 1027 1027 
1027 1027 1027 1027 1027 1027 1027 1027 1027 
1027 1027 1027 1027 1027 1027 1027 1027 1027 
1027 1027 1027 1027 1027 1027 1027 1027 1027 
1027 1027 1027 1027 1027 1027 1027 1027 1027 
1027 1027 1027 1027 1027 1027 1027 1027 1027 
1027 1027 1027 1027 1027 1027 1027 1027 1027 
1027 1027 1027 1027 1027 1027 1027 1027 1027 
1027 1027 1027 1027 1027 1027 1027 1027 1027 
1027 1027 1027 1027 1027 1027 1027 1027 1027 
1027 1027 1027 1027 1027 1027 1027 1027 1027 
1027 1027 1027 1027 1027 1027 1027 1027 1027 
1027 1027 1027 1027 1027 1027 1027 1027 1027 
1027 1027 1027 1027 1027 1027 1027 1027 1027 
1027 1027 1027 1027 1027 1027 1027 1027 1027 
1027 1027 1027 1027 1027 1027 1027 1027 1027 
1027 1027 1027 1027 1027 1027 1027 1027 1027 
1027 1027 1027 1027 1027 1027 1027 1027 1027 
1027 1027 1027 1027 1027 1027 1027 1027 1027 
1027 1027 1027 1027 1027 1027 1027 1027 1027 
1027 1027 1027 1027 1027 1027 1027 1027 1027 
1027 1027 1027 1027 1027 1027 1027 1027 1027 
1027 1027 1027 1027 1027 1027 1027 1027 1027 
1027 1027 1027 1027 1027 1027 1027 1027 1027 
1027 1027 1027 1027 1027 1027 1027 1027 1027 
1027 1027 1027 1027 1027 1027 1027 1027 1027 
1027 1027 1027 1027 1027 1027 1027 1027 1027 
1027 1027 1027 1027 1027 1027 1027 1027 1027 
1027 1027 1027 1027 1027 1027 1027 1027 1027 
1027 1027 1027 1027 1027 1027 1027 1027 1027 
1027 1027 1027 1027 1027 1027 1027 1027 1027 
1027 1027 1027 1027 1027 1027 1027 1027 1027 
1027 1027 1027 1027 1027 1027 1027 1027 1027 
1027 1027 1027 1027 1027 1027 1027 1027 1027 
1027 1027 1027 1027 1027 1027 1027 1027 1027 
1027 1027 1027 1027 1027 1027 1027 1027 1027 
1027 1027 1027 1027 1027 1027 1027 1027 1027 
1027 1027 1027 1027 1027 1027 1027 1027 1027 
1027 1027 1027 1027 1027 1027 1027 1027 1027 
1027 1027 1027 1027 1027 1027 1027 1027 1027 
1027 1027 1027 1027 1027 1027 1027 1027 1027 
1027 1027 1027 1027 1027 1027 1027 1027 1027 
1027 1027 1027 1027 1027 1027 1027 1027 1027 
1027 1027 1027 1027 1027 1027 1027 1027 1027 
1027 1027 1027 1027 1027 1027 1027 1027 1027 
1027 1027 1027 1027 1027 1027 1027 1027 1027 
1027 1027 1027 1027 1027 1027 1027 1027 1027 
1027 1027 1027 1027 1027 1027 1027 1027 1027 
1027 1027 1027 1027 1027 1027 1027 1027 1027 
1027 1027 1027 1027 1027 1027 1027 1027 1027 
1027 1027 1027 1027 1027 1027 1027 1027 1027 
1027 1027 1027 1027 1027 1027 1027 1027 1027 
1027 1027 1027 1027 1027 1027 1027 1027 1027 
1027 1027 1027 1027 1027 1027 1027 1027 1027 
1027 1027 1027 1027 1027 1027 1027 1027 1027 
1027 1027 1027 1027 1027 1027 1027 1027 1027 
1027 1027 1027 1027 1027 1027 1027 1027 1027 
1027 1027 1027 1027 1027 1027 1027 1027 1027 
1027 1027 1027 1027 1027 1027 1027 1027 1027 
1027 1027 1027 1027 1027 1027 1027 1027 1027 
1027 1027 1027 1027 1027 1027 1027 1027 1027 
1027 1027 1027 1027 1027 1027 1027 1027 1027 
1027 1027 1027 1027 1027 1027 1027 1027 1027 
1027 1027 1027 1027 1027 1027 1027 1027 1027 
1027 1027 1027 1027 1027 1027 1027 1027 1027 
1027 1027 1027 1027 1027 1027 1027 1027 1027 
1027 1027 1027 1027 1027 1027 1027 1027 1027 
1027 1027 1027 1027 1027 1027 1027 1027 1027 
1027 1027 1027 1027 1027 1027 1027 1027 1027 
1027 1027 1027 1027 1027 1027 1027 1027 1027 
1027 1027 1027 1027 1027 1027 1027 1027 1027 
1027 1027 1027 1027 1027 1027 1027 1027 1027 
1027 1027 1027 1027 1027 1027 1027 1027 1027 
1027 1027 1027 1027 1027 1027 1027 1027 1027 
1027 1027 1027 1027 1027 1027 1027 1027 1027 
1027 1027 1027 1027 1027 1027 1027 1027 1027 
1027 1027 1027 1027 1027 1027 1027 1027 1027 
1027 1027 1027 1027 1027 1027 1027 1027 1027 
1027 1027 1027 1027 1027 1027 1027 1027 1027 
1027 1027 1027 1027 1027 1027 1027 1027 1027 
1027 1027 1027 1027 1027 1027 1027 1027 1027 
1027 1027 1027 1027 1027 1027 1027 1027 1027 
1027 1027 1027 1027 1027 1027 1027 1027 1027 
1027 1027 1027 1027 1027 1027 1027 1027 1027 
1027 1027 1027 1027 1027 1027 1027 1027 1027 
1027 1027 1027 1027 1027 1027 1027 1027 1027 
1027 1027 1027 1027 1027 1027 1027 1027 1027 
1027 1027 1027 1027 1027 1027 1027 1027 1027 
1027 1027 1027 1027 1027 1027 1027 1027 1027 
1027 1027 1027 1027 1027 1027 1027 1027 1027 
1027 1027 1027 1027 1027 1027 1027 1027 1027 
1027 1027 1027 1027 1027 1027 1027 1027 1027 
1027 1027 1027 1027 1027 1027 1027 1027 1027 
1027 1027 1027 1027 1027 1027 1027 1027 1027 
1027 1027 1027 1027 1027 1027 1027 1027 1027 
1027 1027 1027 1027 1027 1027 1027 1027 1027 
1027 1027 1027 1027 1027 1027 1027 1027 1027 
1027 1027 1027 1027 1027 1027 1027 1027 1027 
1027 1027 1027 1027 1027 1027 1027 1027 1027 
1027 1027 1027 1027 1027 1027 1027 1027 1027 
1027 1027 1027 1027 1027 1027 1027 1027 1027 
1027 1027 1027 1027 1027 1027 1027 1027 1027 
1027 1027 1027 1027 1027 1027 1027 1027 1027 
1027 1027 1027 1027 1027 1027 1027 1027 1027 
1027 1027 1027 1027 1027 1027 1027 1027 1027 
1027 1027 1027 1027 1027 1027 1027 1027 1027 
1027 1027 1027 1027 1027 1027 1027 1027 1027 
1027 1027 1027 1027 1027 1027 1027 1027 1027 
1027 1027 1027 1027 1027 1027 1027 1027 1027 
1027 1027 1027 1027 1027 1027 1027 1027 1027 
1027 1027 1027 1027 1027 1027 1027 1027 1027 
1027 1027 1027 1027 1027 1027 1027 1027 1027 
1027 1027 1027 1027 1027 1027 1027 1027 1027 
1027 1027 1027 1027 1027 1027 1027 1027 1027 
1027 1027 1027 1027 1027 1027 1027 1027 1027 
1027 1027 1027 1027 1027 1027 1027 1027 1027 
1027 1027 1027 1027 1027 1027 1027 1027 1027 
1027 1027 1027 1027 1027 1027 1027 1027 1027 
1027 1027 1027 1027 1027 1027 1027 1027 1027 
1027 1027 1027 1027 1027 1027 1027 1027 1027 
1027 1027 1027 1027 1027 1027 1027 1027 1027 
1027 1027 1027 1027 1027 1027 1027 1027 1027 
1027 1027 1027 1027 1027 1027 1027 1027 1027 