# vtk DataFile Version 4.2
vtk output
ASCII
DATASET POLYDATA
POINTS 4290 float
25.3495 -30.2518 13.494 25.1457 -30.632 13.9258 25.6769 -30.5861 13.4088 
24.9168 -30.512 13.5787 25.0641 -30.6238 13.241 25.5295 -30.9726 14.2602 
25.5511 -31.733 14.8348 25.939 -31.3652 14.4403 24.922 -31.6401 14.5002 
22.3365 -31.3577 14.5363 22.1677 -31.8106 14.7563 22.4983 -31.623 14.4036 
22.0708 -31.4207 14.5405 28.2893 -31.3121 13.5042 28.5514 -31.6809 13.74 
28.5287 -31.4522 13.3493 28.1444 -31.7014 13.4448 26.3124 -30.9983 13.5654 
26.4052 -31.6143 14.1424 26.858 -31.6036 13.4575 24.2321 -30.9565 13.4755 
24.3157 -31.3725 13.9541 23.4952 -31.2511 13.3524 23.3698 -31.5137 13.6836 
22.1954 -31.4653 14.2886 22.9242 -31.6276 13.2489 28.2702 -31.3853 13.2214 
27.4417 -31.7275 12.8324 27.7814 -31.5698 12.298 27.1213 -31.1795 12.6708 
26.3465 -31.0616 12.6019 25.2651 -31.4177 12.7805 25.8446 -31.4223 12.3848 
24.161 -31.4114 13.0926 23.3707 -31.5201 13.1518 27.1608 -31.664 12.035 
26.1297 -31.7276 12.0894 15.3441 -32.2821 18.5808 15.5642 -32.6427 18.7545 
15.5948 -32.373 18.5514 15.1421 -32.6554 18.5901 16.4136 -32.3053 17.5051 
16.4689 -32.5399 17.89 16.5809 -32.7578 17.5167 15.3373 -32.6571 18.3508 
16.1976 -32.542 17.6237 16.2736 -32.6619 17.2678 19.3469 -32.2973 15.4441 
19.432 -32.6484 15.6621 19.5343 -32.5319 15.3285 18.8787 -32.7502 15.477 
26.1281 -31.9375 14.6777 25.9582 -32.4709 14.8156 26.5845 -32.4075 14.1881 
25.307 -32.2929 14.8524 24.9686 -32.5989 14.5167 22.0864 -32.529 14.8317 
22.6411 -32.2409 14.4846 21.1398 -32.5522 14.8371 21.6036 -31.8002 14.344 
20.5732 -32.2538 14.2685 20.1761 -32.659 14.7659 19.2475 -32.5288 15.0661 
19.8037 -32.7472 14.2512 31.1072 -32.1642 13.4609 31.3039 -32.7674 13.8343 
31.6163 -32.6198 13.4188 30.1508 -32.0196 13.3771 30.3949 -32.5484 13.9249 
29.1392 -31.8185 13.3486 29.2188 -32.4133 13.9194 28.3262 -32.3135 13.8379 
27.8679 -32.6974 13.3565 27.0141 -32.3538 13.4098 24.4246 -32.5173 14.1897 
23.3805 -32.4342 14.0237 22.4316 -31.8338 13.7972 21.3651 -32.092 13.398 
20.8077 -32.3864 13.5873 20.4784 -32.8316 13.9188 31.2829 -32.3849 12.9913 
30.8466 -32.758 12.4113 30.6174 -32.1063 12.7288 29.6438 -32.0274 12.5853 
28.3329 -31.8893 12.7471 27.4223 -32.5858 13.0697 25.455 -31.9114 12.3249 
24.9354 -32.426 12.4926 24.4079 -32.4744 12.7945 23.425 -32.3921 12.9877 
22.3204 -32.1222 12.7682 22.7083 -32.8456 12.5017 21.7282 -32.6883 12.7572 
21.1919 -32.434 13.1412 30.0399 -32.5993 12.0859 29.0576 -32.5836 12.009 
28.0454 -32.4012 11.9609 27.179 -32.6524 11.8451 26.3202 -32.5335 11.8946 
25.4132 -32.5837 12.1241 21.9871 -32.7342 12.1171 14.3139 -33.315 19.4789 
14.2762 -33.7237 19.7543 14.5486 -33.5406 19.3802 13.8046 -33.733 19.3886 
15.9836 -32.8385 18.273 16.013 -33.5473 18.8117 16.6053 -33.3094 18.1571 
15.2129 -33.3736 18.8178 14.854 -33.5071 18.2532 14.2557 -33.554 19.0925 
16.6592 -33.5092 17.3954 15.3271 -33.4489 17.8654 15.7945 -33.4629 17.3078 
18.3076 -33.0814 16.3568 18.0498 -33.6951 16.7746 18.5979 -33.4357 16.5429 
17.5079 -33.1609 16.2142 17.3796 -33.5006 16.7224 16.3008 -33.3883 16.997 
16.9575 -33.4312 16.4535 19.1026 -33.5498 16.0192 19.726 -33.2302 15.461 
18.1318 -32.9966 15.7087 17.807 -33.5076 15.7067 17.1277 -33.7719 16.1057 
26.3325 -33.0881 14.3575 25.6349 -33.0054 14.5605 22.3986 -32.8512 14.1961 
21.3854 -32.8859 14.4731 20.8005 -33.3127 14.4625 20.325 -33.5299 14.9905 
19.5629 -32.9227 14.7749 18.9069 -33.2273 14.6328 18.3158 -33.6279 15.0483 
31.2895 -33.7122 13.872 31.7278 -33.4947 13.346 30.4012 -33.4475 14.0421 
29.3523 -33.4675 14.0553 28.2978 -33.4042 13.8839 27.6473 -33.6513 13.5179 
26.2908 -33.8437 14.002 26.8989 -33.223 13.6308 25.031 -33.5068 14.148 
24.0886 -33.3425 13.8824 23.1459 -33.0336 13.4564 23.8618 -33.6942 13.3529 
22.256 -33.0171 13.3872 21.3866 -32.7667 13.5943 20.6212 -33.5318 13.705 
20.2546 -33.2199 13.4512 19.8504 -33.2922 13.5926 19.2769 -33.614 14.0213 
31.4557 -33.0913 12.873 31.0624 -33.5483 12.3197 27.3893 -33.3475 13.2632 
24.84 -33.2113 12.4587 24.3873 -33.7093 12.754 22.4651 -33.4545 12.822 
22.6635 -33.7299 12.2843 21.4421 -33.0528 12.28 21.6124 -33.6314 12.8119 
20.2905 -33.7496 13.2473 21.1016 -33.6481 12.4972 30.3328 -33.6188 11.9671 
29.3363 -33.5046 11.8606 28.343 -33.4991 11.8654 27.506 -33.369 11.8741 
26.6037 -33.5881 12.03 25.6013 -33.3984 12.1587 22.2194 -33.5503 11.9584 
21.4333 -33.5496 12.0211 14.07 -34.6308 19.815 14.6409 -34.1737 19.4656 
13.2806 -34.1086 19.5146 13.5655 -34.2358 19.8203 13.0762 -34.6522 19.6052 
16.4525 -34.0523 18.4334 16.0334 -34.4474 18.6931 15.1966 -34.5716 19.0133 
14.6084 -33.9168 18.8022 13.9657 -34.3324 18.7498 13.3464 -34.5683 19.2141 
16.3683 -34.8714 18.1354 16.7258 -34.2706 17.6308 15.267 -34.0327 17.3872 
14.8671 -34.3456 17.5848 14.3059 -34.6821 18.04 18.1246 -33.935 16.1906 
17.8911 -34.353 16.5759 17.4516 -34.5924 16.9732 16.6252 -33.9145 16.6898 
15.8817 -34.3187 16.5561 15.2736 -34.7278 16.9772 19.197 -34.6529 15.9428 
19.8583 -34.311 15.6512 18.5818 -34.5459 15.8287 18.128 -34.2742 15.4788 
17.4371 -34.7661 16.0721 16.3722 -34.6161 16.0803 20.3751 -34.4269 15.1301 
20.81 -34.2507 14.4451 18.7132 -34.4269 14.5125 18.3156 -34.6369 15.0668 
31.313 -34.7465 13.8712 31.7587 -34.3427 13.4976 30.3881 -34.4714 14.0055 
29.3157 -34.5081 14.0012 28.2977 -34.5487 13.9721 27.1695 -33.8472 13.5438 
27.2573 -34.4437 13.8578 26.1643 -34.7653 13.98 25.2968 -34.5865 14.0103 
24.2869 -34.4252 13.8791 23.7334 -34.6255 13.48 20.9707 -34.0844 13.2443 
21.2846 -34.5149 13.9232 21.738 -34.7729 13.2408 19.7925 -34.1761 13.3928 
19.3861 -34.8488 13.868 31.5029 -33.8801 12.6266 31.6685 -34.6085 12.8023 
26.3629 -34.9545 12.683 25.9517 -34.1268 12.4653 26.7216 -34.3989 12.3969 
25.2155 -34.5681 12.7531 25.1713 -33.8686 12.5458 24.3234 -34.2585 12.4423 
24.535 -34.5296 12.5091 24.0231 -34.4838 12.7677 22.2125 -34.3141 12.8151 
22.5736 -34.3266 12.476 20.3797 -34.3615 13.0364 20.8854 -34.378 12.5534 
31.0179 -34.4133 12.1448 30.3582 -34.5093 11.8968 29.6587 -34.5643 12.0175 
28.6141 -34.3941 12.066 27.5204 -34.2933 12.1261 24.3287 -34.5175 12.319 
22.3925 -34.3455 12.097 21.6759 -34.4223 12.0797 14.124 -34.9387 19.1881 
13.7176 -35.5734 19.5179 13.2856 -35.4573 19.8502 12.7839 -35.3995 19.4922 
15.0264 -35.7627 18.814 15.7545 -35.4685 18.3866 14.4484 -35.6071 18.922 
14.0238 -35.3402 18.4887 13.1179 -35.6228 19.1896 16.5324 -35.779 17.9528 
16.8195 -35.6262 17.2842 14.7621 -35.5099 17.5305 14.1453 -35.752 17.9797 
19.3015 -35.169 16.259 19.2144 -35.715 16.8524 19.8642 -35.5438 16.5529 
18.2174 -35.0687 16.3794 18.2752 -35.5741 16.7356 17.4041 -35.4689 16.9614 
15.7076 -35.3771 16.4683 15.2198 -35.5184 16.9606 20.3748 -35.0108 15.5281 
20.4004 -35.6564 16.1028 20.828 -35.6217 15.4745 18.6782 -35.3276 15.5935 
18.3133 -34.8886 15.4391 18.1691 -35.5919 16.0934 17.4671 -35.6065 16.063 
16.5745 -35.4681 16.0776 21.3431 -35.02 14.4783 21.5192 -35.8351 14.9124 
21.8685 -35.7333 14.1159 18.9347 -35.5098 14.5551 31.4385 -35.5682 14.1021 
31.7601 -35.5525 13.3685 30.6567 -35.3498 14.167 29.4387 -35.4953 14.0881 
28.3129 -35.5503 13.9572 27.3327 -35.5665 13.9462 26.3296 -35.5798 13.9486 
25.3139 -35.5573 13.9916 24.4858 -35.3671 14.0163 23.3057 -35.1343 13.3492 
23.5231 -35.6174 13.9359 22.3227 -35.224 13.611 22.5768 -35.5801 13.758 
20.3264 -35.6807 13.7342 20.2844 -34.949 13.1959 20.8445 -35.5015 13.2632 
19.5102 -35.7913 14.1061 31.5155 -35.4055 12.6602 31.2229 -35.1311 12.3261 
31.1571 -35.7056 12.2871 29.0245 -35.1136 12.4952 29.7167 -35.4318 12.4038 
29.2029 -35.8563 12.8208 28.3459 -35.7042 12.9099 28.0753 -35.0189 12.5207 
27.2903 -35.5446 12.8336 27.2401 -34.8778 12.5634 26.3472 -35.2428 12.4672 
26.55 -35.5307 12.5916 26.0959 -35.3821 12.5221 25.5093 -35.7036 12.8213 
24.219 -35.3396 12.8194 24.3184 -34.7804 12.4328 23.1369 -35.5356 13.0962 
22.4233 -35.6608 13.199 22.0856 -34.7664 12.48 21.2403 -35.0452 12.733 
21.5575 -35.5166 13.1579 30.4907 -35.4894 12.0819 26.3069 -35.478 12.3781 
13.3041 -36.7872 19.8999 13.6182 -36.2759 19.6072 12.3359 -36.0857 19.3775 
12.4701 -36.2937 19.7882 12.0175 -36.7468 19.5285 15.0675 -36.0192 18.1734 
14.8236 -36.6222 18.5672 14.4616 -36.3148 18.9131 14.0625 -36.3784 18.5498 
13.2458 -36.6035 19.1335 12.344 -36.6452 19.1422 19.2983 -36.1502 17.2861 
19.3627 -36.6906 17.831 19.95 -36.415 17.379 18.1368 -36.3728 17.4244 
18.3665 -36.6879 17.7044 17.2117 -36.1001 17.5998 17.1444 -36.4813 17.7982 
16.137 -36.3344 17.8516 15.5046 -35.9973 17.4035 15.964 -36.586 17.3138 
14.4515 -36.6462 18.0599 20.1512 -36.0614 16.7709 20.4903 -36.5406 16.9307 
20.6607 -36.3626 16.1833 18.7568 -36.3141 16.5376 18.0658 -35.9256 16.3676 
18.2289 -36.5874 17.1196 17.4571 -36.4905 17.2931 17.2138 -35.8092 16.532 
16.1668 -36.0793 16.7371 16.5079 -36.5832 17.1884 20.82 -36.4232 15.4867 
18.9936 -36.303 15.2275 31.0629 -36.045 14.5658 31.1367 -36.7763 14.7969 
31.6534 -36.2498 14.2682 30.0841 -35.996 14.512 30.3327 -36.6579 14.9244 
29.2166 -36.1914 14.3929 29.3722 -36.6474 14.7865 28.6911 -36.6818 14.525 
23.066 -36.1998 14.4227 23.3905 -36.5499 14.8562 23.8406 -36.6761 14.1883 
22.3386 -36.0776 14.4221 22.4453 -36.3575 14.9866 21.1851 -36.7588 15.0848 
19.1752 -36.1653 14.5379 19.6744 -36.4124 14.3281 19.4246 -36.643 14.7867 
31.7788 -36.5074 13.6227 28.4746 -36.283 14.1531 27.5477 -36.402 14.0752 
26.4877 -36.5483 14.0087 25.3463 -36.5393 13.7936 24.3741 -36.2168 13.9793 
22.7256 -36.2049 13.7064 22.0576 -35.811 13.539 22.1414 -36.7 13.9438 
21.2798 -35.8206 13.6307 21.2432 -36.334 13.9456 20.4018 -36.5718 14.096 
31.5014 -35.9581 12.5653 31.6388 -36.472 12.7648 29.7921 -36.1909 12.4663 
29.1428 -36.5197 12.765 28.3039 -36.6152 12.9156 27.3539 -36.5274 13.0099 
26.3908 -36.2551 12.8663 26.1664 -35.7415 12.5544 25.5196 -36.7739 13.0905 
24.4099 -36.5882 13.0435 23.3013 -36.4089 13.058 31.0481 -36.4471 12.1257 
30.1497 -36.7279 12.0467 11.3589 -37.2785 20.5458 11.4413 -37.7384 20.7699 
11.6171 -37.4081 20.4921 10.9128 -37.5684 20.6019 14.0957 -36.9668 19.1411 
[...]
CELL_DATA 8760
SCALARS scalars float
LOOKUP_TABLE default
2021 2021 2021 2021 2021 2021 2021 2021 2021 
2021 2021 2021 2021 2021 2021 2021 2021 2021 
2021 2021 2021 2021 2021 2021 2021 2021 2021 
2021 2021 2021 2021 2021 2021 2021 2021 2021 
2021 2021 2021 2021 2021 2021 2021 2021 2021 
2021 2021 2021 2021 2021 2021 2021 2021 2021 
2021 2021 2021 2021 2021 2021 2021 2021 2021 
2021 2021 2021 2021 2021 2021 2021 2021 2021 
2021 2021 2021 2021 2021 2021 2021 2021 2021 
2021 2021 2021 2021 2021 2021 2021 2021 2021 
2021 2021 2021 2021 2021 2021 2021 2021 2021 
2021 2021 2021 2021 2021 2021 2021 2021 2021 
2021 2021 2021 2021 2021 2021 2021 2021 2021 
2021 2021 2021 2021 2021 2021 2021 2021 2021 
2021 2021 2021 2021 2021 2021 2021 2021 2021 
2021 2021 2021 2021 2021 2021 2021 2021 2021 
2021 2021 2021 2021 2021 2021 2021 2021 2021 
2021 2021 2021 2021 2021 2021 2021 2021 2021 
2021 2021 2021 2021 2021 2021 2021 2021 2021 
2021 2021 2021 2021 2021 2021 2021 2021 2021 
2021 2021 2021 2021 2021 2021 2021 2021 2021 
2021 2021 2021 2021 2021 2021 2021 2021 2021 
2021 2021 2021 2021 2021 2021 2021 2021 2021 
2021 2021 2021 2021 2021 2021 2021 2021 2021 
2021 2021 2021 2021 2021 2021 2021 2021 2021 
2021 2021 2021 2021 2021 2021 2021 2021 2021 
2021 2021 2021 2021 2021 2021 2021 2021 2021 
2021 2021 2021 2021 2021 2021 2021 2021 2021 
2021 2021 2021 2021 2021 2021 2021 2021 2021 
2021 2021 2021 2021 2021 2021 2021 2021 2021 
2021 2021 2021 2021 2021 2021 2021 2021 2021 
2021 2021 2021 2021 2021 2021 2021 2021 2021 
2021 2021 2021 2021 2021 2021 2021 2021 2021 
2021 2021 2021 2021 2021 2021 2021 2021 2021 
2021 2021 2021 2021 2021 2021 2021 2021 2021 
2021 2021 2021 2021 2021 2021 2021 2021 2021 
2021 2021 2021 2021 2021 2021 2021 2021 2021 
2021 2021 2021 2021 2021 2021 2021 2021 2021 
2021 2021 2021 2021 2021 2021 2021 2021 2021 
2021 2021 2021 2021 2021 2021 2021 2021 2021 
2021 2021 2021 2021 2021 2021 2021 2021 2021 
2021 2021 2021 2021 2021 2021 2021 2021 2021 
2021 2021 2021 2021 2021 2021 2021 2021 2021 
2021 2021 2021 2021 2021 2021 2021 2021 2021 
2021 2021 2021 2021 2021 2021 2021 2021 2021 
2021 2021 2021 2021 2021 2021 2021 2021 2021 
2021 2021 2021 2021 2021 2021 2021 2021 2021 
2021 2021 2021 2021 2021 2021 2021 2021 2021 
2021 2021 2021 2021 2021 2021 2021 2021 2021 
2021 2021 2021 2021 2021 2021 2021 2021 2021 
2021 2021 2021 2021 2021 2021 2021 2021 2021 
2021 2021 2021 2021 2021 2021 2021 2021 2021 
2021 2021 2021 2021 2021 2021 2021 2021 2021 
2021 2021 2021 2021 2021 2021 2021 2021 2021 
2021 2021 2021 2021 2021 2021 2021 2021 2021 
2021 2021 2021 2021 2021 2021 2021 2021 2021 
2021 2021 2021 2021 2021 2021 2021 2021 2021 
2021 2021 2021 2021 2021 2021 2021 2021 2021 
2021 2021 2021 2021 2021 2021 2021 2021 2021 
2021 2021 2021 2021 2021 2021 2021 2021 2021 
2021 2021 2021 2021 2021 2021 2021 2021 2021 
2021 2021 2021 2021 2021 2021 2021 2021 2021 
2021 2021 2021 2021 2021 2021 2021 2021 2021 
2021 2021 2021 2021 2021 2021 2021 2021 2021 
2021 2021 2021 2021 2021 2021 2021 2021 2021 
2021 2021 2021 2021 2021 2021 2021 2021 2021 
2021 2021 2021 2021 2021 2021 2021 2021 2021 
2021 2021 2021 2021 2021 2021 2021 2021 2021 
2021 2021 2021 2021 2021 2021 2021 2021 2021 
2021 2021 2021 2021 2021 2021 2021 2021 2021 
2021 2021 2021 2021 2021 2021 2021 2021 2021 
2021 2021 2021 2021 2021 2021 2021 2021 2021 
2021 2021 2021 2021 2021 2021 2021 2021 2021 
2021 2021 2021 2021 2021 2021 2021 2021 2021 
2021 2021 2021 2021 2021 2021 2021 2021 2021 
2021 2021 2021 2021 2021 2021 2021 2021 2021 
2021 2021 2021 2021 2021 2021 2021 2021 2021 
2021 2021 2021 2021 2021 2021 2021 2021 2021 
2021 2021 2021 2021 2021 2021 2021 2021 2021 
2021 2021 2021 2021 2021 2021 2021 2021 2021 
2021 2021 2021 2021 2021 2021 2021 2021 2021 
2021 2021 2021 2021 2021 2021 2021 2021 2021 
2021 2021 2021 2021 2021 2021 2021 2021 2021 
2021 2021 2021 2021 2021 2021 2021 2021 2021 
2021 2021 2021 2021 2021 2021 2021 2021 2021 
2021 2021 2021 2021 2021 2021 2021 2021 2021 
2021 2021 2021 2021 2021 2021 2021 2021 2021 
2021 2021 2021 2021 2021 2021 2021 2021 2021 
2021 2021 2021 2021 2021 2021 2021 2021 2021 
2021 2021 2021 2021 2021 2021 2021 2021 2021 
2021 2021 2021 2021 2021 2021 2021 2021 2021 
2021 2021 2021 2021 2021 2021 2021 2021 2021 
2021 2021 2021 2021 2021 2021 2021 2021 2021 
2021 2021 2021 2021 2021 2021 2021 2021 2021 
2021 2021 2021 2021 2021 2021 2021 2021 2021 
2021 2021 2021 2021 2021 2021 2021 2021 2021 
2021 2021 2021 2021 2021 2021 2021 2021 2021 
2021 2021 2021 2021 2021 2021 2021 2021 2021 
2021 2021 2021 2021 2021 2021 2021 2021 2021 
2021 2021 2021 2021 2021 2021 2021 2021 2021 
2021 2021 2021 2021 2021 2021 2021 2021 2021 
2021 2021 2021 2021 2021 2021 2021 2021 2021 
2021 2021 2021 2021 2021 2021 2021 2021 2021 
2021 2021 2021 2021 2021 2021 2021 2021 2021 
2021 2021 2021 2021 2021 2021 2021 2021 2021 
2021 2021 2021 2021 2021 2021 2021 2021 2021 
2021 2021 2021 2021 2021 2021 2021 2021 2021 
2021 2021 2021 2021 2021 2021 2021 2021 2021 
2021 2021 2021 2021 2021 2021 2021 2021 2021 
2021 2021 2021 2021 2021 2021 2021 2021 2021 
2021 2021 2021 2021 2021 2021 2021 2021 2021 
2021 2021 2021 2021 2021 2021 2021 2021 2021 
2021 2021 2021 2021 2021 2021 2021 2021 2021 
2021 2021 2021 2021 2021 2021 2021 2021 2021 
2021 2021 2021 2021 2021 2021 2021 2021 2021 
2021 2021 2021 2021 2021 2021 2021 2021 2021 
2021 2021 2021 2021 2021 2021 2021 2021 2021 
2021 2021 2021 2021 2021 2021 2021 2021 2021 
2021 2021 2021 2021 2021 2021 2021 2021 2021 
2021 2021 2021 2021 2021 2021 2021 2021 2021 
2021 2021 2021 2021 2021 2021 2021 2021 2021 
2021 2021 2021 2021 2021 2021 2021 2021 2021 
2021 2021 2021 2021 2021 2021 2021 2021 2021 
2021 2021 2021 2021 2021 2021 2021 2021 2021 
2021 2021 2021 2021 2021 2021 2021 2021 2021 
2021 2021 2021 2021 2021 2021 2021 2021 2021 
2021 2021 2021 2021 2021 2021 2021 2021 2021 
2021 2021 2021 2021 2021 2021 2021 2021 2021 
2021 2021 2021 2021 2021 2021 2021 2021 2021 
2021 2021 2021 2021 2021 2021 2021 2021 2021 
2021 2021 2021 2021 2021 2021 2021 2021 2021 
2021 2021 2021 2021 2021 2021 2021 2021 2021 
2021 2021 2021 2021 2021 2021 2021 2021 2021 
2021 2021 2021 2021 2021 2021 2021 2021 2021 
2021 2021 2021 2021 2021 2021 2021 2021 2021 
2021 2021 2021 2021 2021 2021 2021 2021 2021 
2021 2021 2021 2021 2021 2021 2021 2021 2021 
2021 2021 2021 2021 2021 2021 2021 2021 2021 
2021 2021 2021 2021 2021 2021 2021 2021 2021 
2021 2021 2021 2021 2021 2021 2021 2021 2021 
2021 2021 2021 2021 2021 2021 2021 2021 2021 
2021 2021 2021 2021 2021 2021 2021 2021 2021 
2021 2021 2021 2021 2021 2021 2021 2021 2021 
2021 2021 2021 2021 2021 2021 2021 2021 2021 
2021 2021 2021 2021 2021 2021 2021 2021 2021 
2021 2021 2021 2021 2021 2021 2021 2021 2021 
2021 2021 2021 2021 2021 2021 2021 2021 2021 
2021 2021 2021 2021 2021 2021 2021 2021 2021 
2021 2021 2021 2021 2021 2021 2021 2021 2021 
2021 2021 2021 2021 2021 2021 2021 2021 2021 
2021 2021 2021 2021 2021 2021 2021 2021 2021 
2021 2021 2021 2021 2021 2021 2021 2021 2021 
2021 2021 2021 2021 2021 2021 2021 2021 2021 
2021 2021 2021 2021 2021 2021 2021 2021 2021 
2021 2021 2021 2021 2021 2021 2021 2021 2021 
2021 2021 2021 2021 2021 2021 2021 2021 2021 
2021 2021 2021 2021 2021 2021 2021 2021 2021 
2021 2021 2021 2021 2021 2021 2021 2021 2021 
2021 2021 2021 2021 2021 2021 2021 2021 2021 
2021 2021 2021 2021 2021 2021 2021 2021 2021 
2021 2021 2021 2021 2021 2021 2021 2021 2021 
2021 2021 2021 2021 2021 2021 2021 2021 2021 
2021 2021 2021 2021 2021 2021 2021 2021 2021 
2021 2021 2021 2021 2021 2021 2021 2021 2021 
2021 2021 2021 2021 2021 2021 2021 2021 2021 
2021 2021 2021 2021 2021 2021 2021 2021 2021 
2021 2021 2021 2021 2021 2021 2021 2021 2021 
2021 2021 2021 2021 2021 2021 2021 2021 2021 
2021 2021 2021 2021 2021 2021 2021 2021 2021 
2021 2021 2021 2021 2021 2021 2021 2021 2021 
2021 2021 2021 2021 2021 2021 2021 2021 2021 
2021 2021 2021 2021 2021 2021 2021 2021 2021 
2021 2021 2021 2021 2021 2021 2021 2021 2021 
2021 2021 2021 2021 2021 2021 2021 2021 2021 
2021 2021 2021 2021 2021 2021 2021 2021 2021 
2021 2021 2021 2021 2021 2021 2021 2021 2021 
2021 2021 2021 2021 2021 2021 2021 2021 2021 
2021 2021 2021 2021 2021 2021 2021 2021 2021 
2021 2021 2021 2021 2021 2021 2021 2021 2021 
2021 2021 2021 2021 2021 2021 2021 2021 2021 
2021 2021 2021 2021 2021 2021 2021 2021 2021 
2021 2021 2021 2021 2021 2021 2021 2021 2021 
2021 2021 2021 2021 2021 2021 2021 2021 2021 
2021 2021 2021 2021 2021 2021 2021 2021 2021 
2021 2021 2021 2021 2021 2021 2021 2021 2021 
2021 2021 2021 2021 2021 2021 2021 2021 2021 
2021 2021 2021 2021 2021 2021 2021 2021 2021 
2021 2021 2021 2021 2021 2021 2021 2021 2021 
2021 2021 2021 2021 2021 2021 2021 2021 2021 
2021 2021 2021 2021 2021 2021 2021 2021 2021 
2021 2021 2021 2021 2021 2021 2021 2021 2021 
2021 2021 2021 2021 2021 2021 2021 2021 2021 
2021 2021 2021 2021 2021 2021 2021 2021 2021 
2021 2021 2021 2021 2021 2021 2021 2021 2021 
2021 2021 2021 2021 2021 2021 2021 2021 2021 
2021 2021 2021 2021 2021 2021 2021 2021 2021 
2021 2021 2021 2021 2021 2021 2021 2021 2021 
2021 2021 2021 2021 2021 2021 2021 2021 2021 
2021 2021 2021 2021 2021 2021 2021 2021 2021 
2021 2021 2021 2021 2021 2021 2021 2021 2021 
2021 2021 2021 2021 2021 2021 2021 2021 2021 
2021 2021 2021 2021 2021 2021 2021 2021 2021 
2021 2021 2021 2021 2021 2021 2021 2021 2021 
2021 2021 2021 2021 2021 2021 2021 2021 2021 
2021 2021 2021 2021 2021 2021 2021 2021 2021 
2021 2021 2021 2021 2021 2021 2021 2021 2021 
2021 2021 2021 2021 2021 2021 2021 2021 2021 
2021 2021 2021 2021 2021 2021 2021 2021 2021 
2021 2021 2021 2021 2021 2021 2021 2021 2021 
2021 2021 2021 2021 2021 2021 2021 2021 2021 
2021 2021 2021 2021 2021 2021 2021 2021 2021 
2021 2021 2021 2021 2021 2021 2021 2021 2021 
2021 2021 2021 2021 2021 2021 2021 2021 2021 
2021 2021 2021 2021 2021 2021 2021 2021 2021 
2021 2021 2021 2021 2021 2021 2021 2021 2021 
2021 2021 2021 2021 2021 2021 2021 2021 2021 
2021 2021 2021 2021 2021 2021 2021 2021 2021 
2021 2021 2021 2021 2021 2021 2021 2021 2021 
2021 2021 2021 2021 2021 2021 2021 2021 2021 
2021 2021 2021 2021 2021 2021 2021 2021 2021 
2021 2021 2021 2021 2021 2021 2021 2021 2021 
2021 2021 2021 2021 2021 2021 2021 2021 2021 
2021 2021 2021 2021 2021 2021 2021 2021 2021 
2021 2021 2021 2021 2021 2021 2021 2021 2021 
2021 2021 2021 2021 2021 2021 2021 2021 2021 
2021 2021 2021 2021 2021 2021 2021 2021 2021 
2021 2021 2021 2021 2021 2021 2021 2021 2021 
2021 2021 2021 2021 2021 2021 2021 2021 2021 
2021 2021 2021 2021 2021 2021 2021 2021 2021 
2021 2021 2021 2021 2021 2021 2021 2021 2021 
2021 2021 2021 2021 2021 2021 2021 2021 2021 
2021 2021 2021 2021 2021 2021 2021 2021 2021 
2021 2021 2021 2021 2021 2021 2021 2021 2021 
2021 2021 2021 2021 2021 2021 2021 2021 2021 
2021 2021 2021 2021 2021 2021 2021 2021 2021 
2021 2021 2021 2021 2021 2021 2021 2021 2021 
2021 2021 2021 2021 2021 2021 2021 2021 2021 
2021 2021 2021 2021 2021 2021 2021 2021 2021 
2021 2021 2021 2021 2021 2021 2021 2021 2021 
2021 2021 2021 2021 2021 2021 2021 2021 2021 
2021 2021 2021 2021 2021 2021 2021 2021 2021 
2021 2021 2021 2021 2021 2021 2021 2021 2021 
2021 2021 2021 2021 2021 2021 2021 2021 2021 
2021 2021 2021 2021 2021 2021 2021 2021 2021 
2021 2021 2021 2021 2021 2021 2021 2021 2021 
2021 2021 2021 2021 2021 2021 2021 2021 2021 
2021 2021 2021 2021 2021 2021 2021 2021 2021 
2021 2021 2021 2021 2021 2021 2021 2021 2021 
2021 2021 2021 2021 2021 2021 2021 2021 2021 
2021 2021 2021 2021 2021 2021 2021 2021 2021 
2021 2021 2021 2021 2021 2021 2021 2021 2021 
2021 2021 2021 2021 2021 2021 2021 2021 2021 
2021 2021 2021 2021 2021 2021 2021 2021 2021 
2021 2021 2021 2021 2021 2021 2021 2021 2021 
2021 2021 2021 2021 2021 2021 2021 2021 2021 
2021 2021 2021 2021 2021 2021 2021 2021 2021 
2021 2021 2021 2021 2021 2021 2021 2021 2021 
2021 2021 2021 2021 2021 2021 2021 2021 2021 
2021 2021 2021 2021 2021 2021 2021 2021 2021 
2021 2021 2021 2021 2021 2021 2021 2021 2021 
2021 2021 2021 2021 2021 2021 2021 2021 2021 
2021 2021 2021 2021 2021 2021 2021 2021 2021 
2021 2021 2021 2021 2021 2021 2021 2021 2021 
2021 2021 2021 2021 2021 2021 2021 2021 2021 
2021 2021 2021 2021 2021 2021 2021 2021 2021 
2021 2021 2021 2021 2021 2021 2021 2021 2021 
2021 2021 2021 2021 2021 2021 2021 2021 2021 
2021 2021 2021 2021 2021 2021 2021 2021 2021 
2021 2021 2021 2021 2021 2021 2021 2021 2021 
2021 2021 2021 2021 2021 2021 2021 2021 2021 
2021 2021 2021 2021 2021 2021 2021 2021 2021 
2021 2021 2021 2021 2021 2021 2021 2021 2021 
2021 2021 2021 2021 2021 2021 2021 2021 2021 
2021 2021 2021 2021 2021 2021 2021 2021 2021 
2021 2021 2021 2021 2021 2021 2021 2021 2021 
2021 2021 2021 2021 2021 2021 2021 2021 2021 
2021 2021 2021 2021 2021 2021 2021 2021 2021 
2021 2021 2021 2021 2021 2021 2021 2021 2021 
2021 2021 2021 2021 2021 2021 2021 2021 2021 
2021 2021 2021 2021 2021 2021 2021 2021 2021 
2021 2021 2021 2021 2021 2021 2021 2021 2021 
2021 2021 2021 2021 2021 2021 2021 2021 2021 
2021 2021 2021 2021 2021 2021 2021 2021 2021 
2021 2021 2021 2021 2021 2021 2021 2021 2021 
2021 2021 2021 2021 2021 2021 2021 2021 2021 
2021 2021 2021 2021 2021 2021 2021 2021 2021 
2021 2021 2021 2021 2021 2021 2021 2021 2021 
2021 2021 2021 2021 2021 2021 2021 2021 2021 
2021 2021 2021 2021 2021 2021 2021 2021 2021 
2021 2021 2021 2021 2021 2021 2021 2021 2021 
2021 2021 2021 2021 2021 2021 2021 2021 2021 
2021 2021 2021 2021 2021 2021 2021 2021 2021 
2021 2021 2021 2021 2021 2021 2021 2021 2021 
2021 2021 2021 2021 2021 2021 2021 2021 2021 
2021 2021 2021 2021 2021 2021 2021 2021 2021 
2021 2021 2021 2021 2021 2021 2021 2021 2021 
2021 2021 2021 2021 2021 2021 2021 2021 2021 
2021 2021 2021 2021 2021 2021 2021 2021 2021 
2021 2021 2021 2021 2021 2021 2021 2021 2021 
2021 2021 2021 2021 2021 2021 2021 2021 2021 
2021 2021 2021 2021 2021 2021 2021 2021 2021 
2021 2021 2021 2021 2021 2021 2021 2021 2021 
2021 2021 2021 2021 2021 2021 2021 2021 2021 
2021 2021 2021 2021 2021 2021 2021 2021 2021 
2021 2021 2021 2021 2021 2021 2021 2021 2021 
2021 2021 2021 2021 2021 2021 2021 2021 2021 
2021 2021 2021 2021 2021 2021 2021 2021 2021 
2021 2021 2021 2021 2021 2021 2021 2021 2021 
2021 2021 2021 2021 2021 2021 2021 2021 2021 
2021 2021 2021 2021 2021 2021 2021 2021 2021 
2021 2021 2021 2021 2021 2021 2021 2021 2021 
2021 2021 2021 2021 2021 2021 2021 2021 2021 
2021 2021 2021 2021 2021 2021 2021 2021 2021 
2021 2021 2021 2021 2021 2021 2021 2021 2021 
2021 2021 2021 2021 2021 2021 2021 2021 2021 
2021 2021 2021 2021 2021 2021 2021 2021 2021 
2021 2021 2021 2021 2021 2021 2021 2021 2021 
2021 2021 2021 2021 2021 2021 2021 2021 2021 
2021 2021 2021 2021 2021 2021 2021 2021 2021 
2021 2021 2021 2021 2021 2021 2021 2021 2021 
2021 2021 2021 2021 2021 2021 2021 2021 2021 
2021 2021 2021 2021 2021 2021 2021 2021 2021 
2021 2021 2021 2021 2021 2021 2021 2021 2021 
2021 2021 2021 2021 2021 2021 2021 2021 2021 
2021 2021 2021 2021 2021 2021 2021 2021 2021 
2021 2021 2021 2021 2021 2021 2021 2021 2021 
2021 2021 2021 2021 2021 2021 2021 2021 2021 
2021 2021 2021 2021 2021 2021 2021 2021 2021 
2021 2021 2021 2021 2021 2021 2021 2021 2021 
2021 2021 2021 2021 2021 2021 2021 2021 2021 
2021 2021 2021 2021 2021 2021 2021 2021 2021 
2021 2021 2021 2021 2021 2021 2021 2021 2021 
2021 2021 2021 2021 2021 2021 2021 2021 2021 
2021 2021 2021 2021 2021 2021 2021 2021 2021 
2021 2021 2021 2021 2021 2021 2021 2021 2021 
2021 2021 2021 2021 2021 2021 2021 2021 2021 
2021 2021 2021 2021 2021 2021 2021 2021 2021 
2021 2021 2021 2021 2021 2021 2021 2021 2021 
2021 2021 2021 2021 2021 2021 2021 2021 2021 
2021 2021 2021 2021 2021 2021 2021 2021 2021 
2021 2021 2021 2021 2021 2021 2021 2021 2021 
2021 2021 2021 2021 2021 2021 2021 2021 2021 
2021 2021 2021 2021 2021 2021 2021 2021 2021 
2021 2021 2021 2021 2021 2021 2021 2021 2021 
2021 2021 2021 2021 2021 2021 2021 2021 2021 
2021 2021 2021 2021 2021 2021 2021 2021 2021 
2021 2021 2021 2021 2021 2021 2021 2021 2021 
2021 2021 2021 2021 2021 2021 2021 2021 2021 
2021 2021 2021 2021 2021 2021 2021 2021 2021 
2021 2021 2021 2021 2021 2021 2021 2021 2021 
2021 2021 2021 2021 2021 2021 2021 2021 2021 
2021 2021 2021 2021 2021 2021 2021 2021 2021 
2021 2021 2021 2021 2021 2021 2021 2021 2021 
2021 2021 2021 2021 2021 2021 2021 2021 2021 
2021 2021 2021 2021 2021 2021 2021 2021 2021 
2021 2021 2021 2021 2021 2021 2021 2021 2021 
2021 2021 2021 2021 2021 2021 2021 2021 2021 
2021 2021 2021 2021 2021 2021 2021 2021 2021 
2021 2021 2021 2021 2021 2021 2021 2021 2021 
2021 2021 2021 2021 2021 2021 2021 2021 2021 
2021 2021 2021 2021 2021 2021 2021 2021 2021 
2021 2021 2021 2021 2021 2021 2021 2021 2021 
2021 2021 2021 2021 2021 2021 2021 2021 2021 
2021 2021 2021 2021 2021 2021 2021 2021 2021 
2021 2021 2021 2021 2021 2021 2021 2021 2021 
2021 2021 2021 2021 2021 2021 2021 2021 2021 
2021 2021 2021 2021 2021 2021 2021 2021 2021 
2021 2021 2021 2021 2021 2021 2021 2021 2021 
2021 2021 2021 2021 2021 2021 2021 2021 2021 
2021 2021 2021 2021 2021 2021 2021 2021 2021 
2021 2021 2021 2021 2021 2021 2021 2021 2021 
2021 2021 2021 2021 2021 2021 2021 2021 2021 
2021 2021 2021 2021 2021 2021 2021 2021 2021 
2021 2021 2021 2021 2021 2021 2021 2021 2021 
2021 2021 2021 2021 2021 2021 2021 2021 2021 
2021 2021 2021 2021 2021 2021 2021 2021 2021 
2021 2021 2021 2021 2021 2021 2021 2021 2021 
2021 2021 2021 2021 2021 2021 2021 2021 2021 
2021 2021 2021 2021 2021 2021 2021 2021 2021 
2021 2021 2021 2021 2021 2021 2021 2021 2021 
2021 2021 2021 2021 2021 2021 2021 2021 2021 
2021 2021 2021 2021 2021 2021 2021 2021 2021 
2021 2021 2021 2021 2021 2021 2021 2021 2021 
2021 2021 2021 2021 2021 2021 2021 2021 2021 
2021 2021 2021 2021 2021 2021 2021 2021 2021 
2021 2021 2021 2021 2021 2021 2021 2021 2021 
2021 2021 2021 2021 2021 2021 2021 2021 2021 
2021 2021 2021 2021 2021 2021 2021 2021 2021 
2021 2021 2021 2021 2021 2021 2021 2021 2021 
2021 2021 2021 2021 2021 2021 2021 2021 2021 
2021 2021 2021 2021 2021 2021 2021 2021 2021 
2021 2021 2021 2021 2021 2021 2021 2021 2021 
2021 2021 2021 2021 2021 2021 2021 2021 2021 
2021 2021 2021 2021 2021 2021 2021 2021 2021 
2021 2021 2021 2021 2021 2021 2021 2021 2021 
2021 2021 2021 2021 2021 2021 2021 2021 2021 
2021 2021 2021 2021 2021 2021 2021 2021 2021 
2021 2021 2021 2021 2021 2021 2021 2021 2021 
2021 2021 2021 2021 2021 2021 2021 2021 2021 
2021 2021 2021 2021 2021 2021 2021 2021 2021 
2021 2021 2021 2021 2021 2021 2021 2021 2021 
2021 2021 2021 2021 2021 2021 2021 2021 2021 
2021 2021 2021 2021 2021 2021 2021 2021 2021 
2021 2021 2021 2021 2021 2021 2021 2021 2021 
2021 2021 2021 2021 2021 2021 2021 2021 2021 
2021 2021 2021 2021 2021 2021 2021 2021 2021 
2021 2021 2021 2021 2021 2021 2021 2021 2021 
2021 2021 2021 2021 2021 2021 2021 2021 2021 
2021 2021 2021 2021 2021 2021 2021 2021 2021 
2021 2021 2021 2021 2021 2021 2021 2021 2021 
2021 2021 2021 2021 2021 2021 2021 2021 2021 
2021 2021 2021 2021 2021 2021 2021 2021 2021 
2021 2021 2021 2021 2021 2021 2021 2021 2021 
2021 2021 2021 2021 2021 2021 2021 2021 2021 
2021 2021 2021 2021 2021 2021 2021 2021 2021 
2021 2021 2021 2021 2021 2021 2021 2021 2021 
2021 2021 2021 2021 2021 2021 2021 2021 2021 
2021 2021 2021 2021 2021 2021 2021 2021 2021 
2021 2021 2021 2021 2021 2021 2021 2021 2021 
2021 2021 2021 2021 2021 2021 2021 2021 2021 
2021 2021 2021 2021 2021 2021 2021 2021 2021 
2021 2021 2021 2021 2021 2021 2021 2021 2021 
2021 2021 2021 2021 2021 2021 2021 2021 2021 
2021 2021 2021 2021 2021 2021 2021 2021 2021 
2021 2021 2021 2021 2021 2021 2021 2021 2021 
2021 2021 2021 2021 2021 2021 2021 2021 2021 
2021 2021 2021 2021 2021 2021 2021 2021 2021 
2021 2021 2021 2021 2021 2021 2021 2021 2021 
2021 2021 2021 2021 2021 2021 2021 2021 2021 
2021 2021 2021 2021 2021 2021 2021 2021 2021 
2021 2021 2021 2021 2021 2021 2021 2021 2021 
2021 2021 2021 2021 2021 2021 2021 2021 2021 
2021 2021 2021 2021 2021 2021 2021 2021 2021 