# vtk DataFile Version 4.2
vtk output
ASCII
DATASET POLYDATA
POINTS 2832 float
-17.2199 -41.8103 11.3059 -17.1467 -41.5868 11.0494 -17.027 -41.843 11.207 
-17.3571 -41.6752 11.0109 -17.1463 -42.1239 11.3173 -16.9858 -42.3441 10.9888 
-17.4516 -42.0756 11.0692 -17.2664 -42.4408 11.1456 -17.322 -41.4125 10.5144 
-16.9024 -41.7539 10.6634 -17.5897 -41.7138 10.551 -16.7749 -42.451 10.4278 
-17.8692 -42.0007 10.4386 -17.6938 -42.5076 10.817 -18.0953 -42.3228 10.4168 
-17.3243 -42.8729 10.8715 -16.9748 -42.9736 10.466 -17.9009 -43.0389 10.7663 
-18.1448 -42.7264 10.5232 -17.2521 -43.2886 10.5987 -17.4115 -43.5744 10.4368 
-17.6697 -43.3797 10.7175 -18.3632 -43.1093 10.5863 -18.4167 -43.5156 10.7235 
-19.1382 -43.5238 10.7734 -18.8867 -43.2034 10.5584 -19.519 -43.6796 10.7255 
-19.4713 -43.2577 10.5649 -19.8312 -43.4443 10.3537 -17.8291 -43.7165 10.4435 
-18.3692 -43.9083 10.5043 -18.682 -44.1531 10.4513 -18.9925 -43.9189 10.7344 
-19.4173 -44.0347 10.632 -19.7105 -43.8926 10.4831 -19.1356 -44.2928 10.3645 
-17.7928 -40.0424 10.0596 -17.8407 -39.7822 9.95555 -17.5979 -39.918 10.0012 
-17.9599 -39.9981 9.7662 -17.3687 -40.3379 10.1165 -17.298 -40.1856 9.74745 
-17.0336 -40.6174 9.94514 -17.6425 -40.565 10.0926 -18.0264 -40.4694 9.79332 
-17.1266 -41.0349 10.2257 -16.8265 -41.0481 9.86245 -17.5903 -41.0348 10.0352 
-17.8366 -40.7685 9.89967 -16.6686 -41.563 10.1741 -16.5761 -41.438 9.72703 
-16.4044 -41.842 9.91811 -17.8106 -41.6966 10.1738 -17.714 -41.4248 10.0532 
-18.0352 -41.6519 9.9329 -16.5572 -42.1164 10.1966 -16.3886 -42.2224 9.71882 
-18.5312 -42.4951 10.1758 -18.289 -42.0412 10.0469 -18.6876 -42.2173 9.71445 
-16.593 -42.5286 9.96124 -16.7896 -42.8539 9.90741 -18.5721 -42.8877 10.3741 
-18.9875 -42.5555 9.91404 -19.1156 -42.8398 10.2475 -19.6581 -42.9762 10.2567 
-19.4576 -42.6177 9.85086 -19.8534 -42.8215 9.88412 -17.1286 -43.4472 10.2716 
-16.9918 -43.3747 9.78273 -19.9558 -43.3678 9.85318 -17.3426 -43.7079 10.0358 
-17.8326 -43.9256 9.99151 -18.3128 -44.0865 10.1915 -18.1003 -44.1057 9.90774 
-19.5748 -44.1872 10.3186 -19.8577 -44.0053 9.91555 -18.4819 -44.3641 9.92872 
-19.1447 -44.5462 9.94591 -19.5605 -44.4541 9.94865 -17.717 -39.8873 9.78793 
-17.1653 -40.1172 9.27101 -16.9499 -40.4998 9.39635 -17.6524 -40.0486 9.4239 
-18.1199 -40.3182 9.40517 -16.8328 -41.088 9.23232 -18.0427 -41.1202 9.71467 
-18.3357 -40.8013 9.41236 -18.4406 -41.2572 9.45136 -18.664 -41.0488 9.13921 
-16.6443 -41.494 9.24943 -16.4041 -41.7882 9.48127 -18.3838 -41.658 9.67469 
-18.6705 -41.6507 9.28037 -16.4367 -42.1559 9.27925 -18.7944 -42.3766 9.14162 
-19.6782 -42.3501 9.57951 -19.5958 -42.1322 9.17041 -19.4172 -42.3949 9.28067 
-19.8087 -42.3079 9.28539 -16.5845 -42.5593 9.47789 -16.8413 -42.8821 9.21698 
-19.0831 -42.5971 9.41275 -19.999 -42.8309 9.31362 -16.984 -43.5399 9.08057 
-20.0245 -43.5169 9.42185 -17.2993 -43.8507 9.48457 -17.7966 -44.1197 9.60079 
-17.48 -44.1164 9.29257 -19.9964 -44.1241 9.2737 -17.7938 -44.4143 9.29319 
-18.369 -44.6673 9.54157 -18.0633 -44.7563 9.21656 -18.8807 -44.7324 9.64481 
-19.4359 -44.753 9.59208 -19.7991 -44.5649 9.44883 -18.4776 -44.9029 9.26512 
-19.1174 -45.0233 9.17285 -19.6265 -44.8703 9.17323 -17.8747 -39.4743 8.86625 
-17.7803 -39.2027 8.711 -17.5684 -39.3688 8.67657 -17.9413 -39.2811 8.62436 
-17.3749 -39.7698 8.9731 -17.221 -39.5128 8.55287 -16.9795 -39.9338 8.74687 
-17.9576 -39.9953 9.11269 -18.3083 -39.51 8.63204 -18.5307 -39.8986 8.94366 
-19.0834 -40.0493 8.87727 -18.8851 -39.7507 8.67214 -19.2085 -40.0387 8.67516 
-16.9151 -40.491 8.70494 -18.5222 -40.4967 9.09196 -18.9472 -40.3576 8.93203 
-19.2052 -40.3523 8.77247 -16.8664 -41.093 8.61767 -18.9403 -40.6983 8.74981 
-18.7872 -41.1702 8.70877 -16.6172 -41.8938 9.01338 -16.796 -41.6557 8.77136 
-18.7211 -41.7447 8.73164 -15.5018 -42.4862 8.89932 -15.2945 -42.11 8.68467 
-15.0405 -42.367 8.78656 -15.6794 -42.188 8.66362 -16.6563 -42.3494 9.04949 
-16.8038 -42.3773 8.71733 -18.6689 -42.2546 8.68393 -19.6076 -42.1029 8.69065 
-19.412 -42.27 8.79373 -19.9135 -42.2914 8.64423 -14.9936 -42.864 8.94765 
-14.681 -42.6166 8.70919 -14.5145 -43.0886 8.73359 -15.5156 -43.0074 9.04641 
-15.9553 -42.5425 8.74578 -15.9672 -42.953 8.90406 -16.2789 -42.8534 8.64993 
-16.8603 -43.0896 8.7208 -18.9669 -42.8823 8.96306 -18.8063 -42.7715 8.66604 
-19.1798 -42.7371 8.78028 -20.1542 -42.6651 8.77927 -20.2177 -43.0945 8.99876 
-20.3513 -42.8598 8.57909 -14.7799 -43.3631 8.89429 -14.5716 -43.5749 8.70117 
-15.2518 -43.4204 8.9703 -15.8397 -43.4417 8.91396 -16.3231 -43.3133 8.69099 
-16.8321 -43.6036 8.65357 -18.9962 -43.0403 8.69138 -20.3106 -43.6854 9.03582 
-20.555 -43.285 8.61957 -14.9843 -43.7931 8.7506 -15.5719 -43.8471 8.72667 
-16.1012 -43.737 8.65361 -17.2364 -44.0622 9.05573 -16.9528 -43.9415 8.7461 
-20.1971 -44.1743 8.98649 -20.8685 -43.7211 8.64609 -20.6201 -44.0577 8.87713 
-21.0978 -44.0354 8.67509 -17.1913 -44.3881 8.6832 -17.7001 -44.6708 8.94869 
-17.4832 -44.6956 8.68244 -19.9448 -44.6046 8.92511 -20.4031 -44.43 8.6298 
-20.9676 -44.27 8.594 -17.8635 -44.956 8.71803 -18.5614 -45.13 8.90971 
-18.933 -45.2685 8.89227 -18.7112 -45.3092 8.74842 -19.2354 -45.332 8.67253 
-19.649 -44.9922 8.62391 -18.9004 -45.5275 8.55764 -17.2617 -39.31 8.23212 
-17.1294 -39.1715 7.94601 -16.9908 -39.4249 8.21009 -17.7824 -39.2401 8.5552 
-17.4432 -39.2718 7.87507 -16.9025 -39.8844 8.11522 -17.8192 -39.4259 8.24593 
-18.5731 -39.6541 8.22604 -19.0077 -39.895 8.4005 -18.7838 -39.9753 8.01373 
-16.8369 -40.5328 8.14666 -19.0922 -40.2972 8.45004 -18.7557 -40.591 8.13115 
-15.5365 -41.2358 8.32249 -15.3755 -40.8907 7.93622 -15.0594 -41.1449 8.17564 
-16.2087 -41.1837 8.32754 -15.9291 -40.9048 8.12773 -16.6613 -41.061 8.34455 
-16.4473 -40.7756 8.01159 -18.6404 -41.2728 8.2057 -14.3747 -41.7415 8.28632 
-14.182 -41.5276 7.97289 -14.021 -41.8563 8.11376 -14.9135 -41.5409 8.35538 
-14.5976 -41.3128 8.02082 -15.451 -41.8377 8.48343 -16.0634 -41.7029 8.39667 
-16.5872 -41.528 8.46476 -18.5658 -41.8354 8.29504 -14.1866 -42.1766 8.33433 
-13.8662 -42.366 8.06954 -14.747 -42.1324 8.52608 -16.1203 -42.3177 8.49217 
-16.5762 -42.1241 8.45492 -18.5219 -42.3669 8.32391 -18.2366 -42.3843 7.93144 
-18.3358 -41.9634 8.03547 -19.6795 -42.0722 7.99907 -19.2881 -42.3914 8.27524 
-20.0046 -42.167 8.0491 -14.2582 -42.7205 8.44028 -13.865 -43.0665 8.13733 
-16.6083 -42.8432 8.50758 -18.5354 -42.6244 7.97472 -18.8871 -42.59 8.11344 
-19.0284 -42.8583 8.44749 -20.2011 -42.4955 8.31302 -20.5071 -42.8404 8.02288 
-14.2448 -43.4726 8.44291 -13.879 -43.6962 8.02547 -16.5478 -43.5561 8.51329 
-20.7797 -43.2761 8.16753 -20.8464 -43.4784 8.41658 -21.0754 -43.5338 8.03274 
-14.2705 -44.093 8.31871 -14.0321 -44.1359 7.98494 -14.7365 -44.0988 8.52065 
-15.3016 -44.1634 8.53689 -15.9277 -44.1658 8.39623 -16.6131 -44.0654 8.40373 
-21.3911 -44.1399 8.4154 -21.352 -43.8771 8.26391 -21.6274 -44.1502 7.94623 
-14.292 -44.4359 8.12705 -14.5393 -44.739 7.95133 -14.6762 -44.577 8.32845 
-15.2727 -44.5938 8.32824 -15.7465 -44.6279 8.13577 -16.2003 -44.4538 8.08762 
-16.7148 -44.4742 8.17424 -17.2042 -44.7018 8.37613 -16.9232 -44.7905 8.03179 
-20.0959 -44.7292 8.46096 -20.5091 -44.7416 8.04623 -20.8744 -44.5023 8.20258 
-21.3849 -44.3893 8.14166 -15.0153 -44.9063 8.03638 -15.536 -44.8968 7.96299 
-17.3462 -45.0333 8.19279 -17.7557 -45.2479 8.29277 -17.486 -45.2827 8.07217 
-18.32 -45.3379 8.49843 -19.4656 -45.2993 8.27579 -19.7408 -45.1261 8.11454 
-20.0919 -44.9706 8.08905 -17.8317 -45.5391 8.01495 -18.5483 -45.6936 8.25208 
-18.9509 -45.8587 8.27929 -18.7916 -46.0217 8.10373 -19.3183 -45.8101 8.10068 
-19.0786 -46.1654 8.02526 -17.838 -38.6804 7.62063 -17.8447 -38.5639 7.50926 
-17.6125 -38.5526 7.44524 -18.0132 -38.7574 7.34038 -17.2191 -39.087 7.62398 
-16.9174 -39.3424 7.59941 -17.5094 -39.1952 7.49442 -17.7387 -38.8272 7.49184 
-16.8037 -40.0134 7.63875 -17.8122 -39.428 7.63156 -18.3241 -39.5936 7.63988 
-18.6193 -39.897 7.48223 -16.6964 -40.4252 7.7269 -16.6525 -40.2229 7.47397 
-16.4282 -40.4662 7.53064 -18.4578 -40.4254 7.70801 -18.2361 -40.6083 7.49859 
-18.4151 -40.2216 7.31949 -14.8992 -41.0191 7.87543 -14.7726 -40.8927 7.42646 
-14.556 -41.0987 7.6197 -15.2804 -40.7246 7.39212 -15.9234 -40.7062 7.66018 
-18.4037 -40.918 7.80019 -18.1588 -41.0701 7.4293 -14.2682 -41.3158 7.66197 
-13.8746 -41.7068 7.66469 -18.3702 -41.4816 7.85386 -18.1436 -41.7122 7.52583 
-13.6023 -42.2433 7.72683 -13.5285 -41.935 7.42561 -13.3829 -42.351 7.45231 
-18.1083 -42.2065 7.41685 -19.7654 -42.0565 7.33941 -19.3154 -42.2746 7.68053 
-20.2597 -42.3247 7.85645 -20.1617 -42.0439 7.49619 -20.5326 -42.4014 7.40664 
-13.5647 -42.7536 7.83363 -13.3345 -42.9162 7.45235 -18.3859 -42.955 7.82143 
-18.1825 -42.8543 7.55609 -18.6286 -42.9045 7.61363 -19.0037 -42.5748 7.42628 
-20.6062 -43.0002 7.36253 -13.5614 -43.3386 7.78856 -13.3677 -43.5555 7.3132 
-18.3751 -43.3831 7.67096 -18.2168 -43.4922 7.45264 -18.5977 -43.4229 7.43238 
-20.8148 -43.2356 7.69614 -21.0661 -43.4728 7.56721 -13.6044 -43.786 7.61599 
-13.8163 -44.0411 7.66894 -18.4564 -43.7837 7.45877 -21.3344 -43.7988 7.56935 
-21.656 -44.2541 7.37783 -14.071 -44.4309 7.58744 -14.42 -44.7383 7.58421 
-16.0289 -44.8075 7.87649 -16.5294 -44.7656 7.88978 -20.8698 -44.6819 7.87766 
-21.2481 -44.6884 7.79266 -21.6781 -44.6307 7.54387 -14.7608 -45.007 7.50818 
-15.461 -45.0789 7.50793 -15.9637 -45.0344 7.58474 -16.3464 -45.3853 7.29034 
-16.4496 -45.1083 7.66955 -17.0639 -45.213 7.84015 -19.6127 -45.4159 7.97125 
-19.9956 -45.3721 7.76555 -20.5034 -45.2764 7.51406 -20.9742 -45.0001 7.58147 
-21.4623 -45.0098 7.42745 -16.7904 -45.5297 7.49565 -17.3227 -45.6704 7.60948 
-17.8643 -45.9414 7.7135 -17.5551 -46.0143 7.46345 -18.3889 -45.9857 7.94386 
-19.6934 -45.7394 7.76958 -19.9895 -45.9341 7.40118 -20.2472 -45.6295 7.409 
-17.9165 -46.2534 7.5434 -18.1398 -46.5049 7.51942 -18.3116 -46.3487 7.70001 
-18.8386 -46.4231 7.79051 -19.3392 -46.5302 7.52489 -19.6344 -46.2062 7.51037 
-18.4598 -46.7673 7.44078 -19.0308 -46.8435 7.44653 -17.3352 -38.2145 7.08007 
[...]
CELL_DATA 5672
SCALARS scalars float
LOOKUP_TABLE default
1033 1033 1033 1033 1033 1033 1033 1033 1033 
1033 1033 1033 1033 1033 1033 1033 1033 1033 
1033 1033 1033 1033 1033 1033 1033 1033 1033 
1033 1033 1033 1033 1033 1033 1033 1033 1033 
1033 1033 1033 1033 1033 1033 1033 1033 1033 
1033 1033 1033 1033 1033 1033 1033 1033 1033 
1033 1033 1033 1033 1033 1033 1033 1033 1033 
1033 1033 1033 1033 1033 1033 1033 1033 1033 
1033 1033 1033 1033 1033 1033 1033 1033 1033 
1033 1033 1033 1033 1033 1033 1033 1033 1033 
1033 1033 1033 1033 1033 1033 1033 1033 1033 
1033 1033 1033 1033 1033 1033 1033 1033 1033 
1033 1033 1033 1033 1033 1033 1033 1033 1033 
1033 1033 1033 1033 1033 1033 1033 1033 1033 
1033 1033 1033 1033 1033 1033 1033 1033 1033 
1033 1033 1033 1033 1033 1033 1033 1033 1033 
1033 1033 1033 1033 1033 1033 1033 1033 1033 
1033 1033 1033 1033 1033 1033 1033 1033 1033 
1033 1033 1033 1033 1033 1033 1033 1033 1033 
1033 1033 1033 1033 1033 1033 1033 1033 1033 
1033 1033 1033 1033 1033 1033 1033 1033 1033 
1033 1033 1033 1033 1033 1033 1033 1033 1033 
1033 1033 1033 1033 1033 1033 1033 1033 1033 
1033 1033 1033 1033 1033 1033 1033 1033 1033 
1033 1033 1033 1033 1033 1033 1033 1033 1033 
1033 1033 1033 1033 1033 1033 1033 1033 1033 
1033 1033 1033 1033 1033 1033 1033 1033 1033 
1033 1033 1033 1033 1033 1033 1033 1033 1033 
1033 1033 1033 1033 1033 1033 1033 1033 1033 
1033 1033 1033 1033 1033 1033 1033 1033 1033 
1033 1033 1033 1033 1033 1033 1033 1033 1033 
1033 1033 1033 1033 1033 1033 1033 1033 1033 
1033 1033 1033 1033 1033 1033 1033 1033 1033 
1033 1033 1033 1033 1033 1033 1033 1033 1033 
1033 1033 1033 1033 1033 1033 1033 1033 1033 
1033 1033 1033 1033 1033 1033 1033 1033 1033 
1033 1033 1033 1033 1033 1033 1033 1033 1033 
1033 1033 1033 1033 1033 1033 1033 1033 1033 
1033 1033 1033 1033 1033 1033 1033 1033 1033 
1033 1033 1033 1033 1033 1033 1033 1033 1033 
1033 1033 1033 1033 1033 1033 1033 1033 1033 
1033 1033 1033 1033 1033 1033 1033 1033 1033 
1033 1033 1033 1033 1033 1033 1033 1033 1033 
1033 1033 1033 1033 1033 1033 1033 1033 1033 
1033 1033 1033 1033 1033 1033 1033 1033 1033 
1033 1033 1033 1033 1033 1033 1033 1033 1033 
1033 1033 1033 1033 1033 1033 1033 1033 1033 
1033 1033 1033 1033 1033 1033 1033 1033 1033 
1033 1033 1033 1033 1033 1033 1033 1033 1033 
1033 1033 1033 1033 1033 1033 1033 1033 1033 
1033 1033 1033 1033 1033 1033 1033 1033 1033 
1033 1033 1033 1033 1033 1033 1033 1033 1033 
1033 1033 1033 1033 1033 1033 1033 1033 1033 
1033 1033 1033 1033 1033 1033 1033 1033 1033 
1033 1033 1033 1033 1033 1033 1033 1033 1033 
1033 1033 1033 1033 1033 1033 1033 1033 1033 
1033 1033 1033 1033 1033 1033 1033 1033 1033 
1033 1033 1033 1033 1033 1033 1033 1033 1033 
1033 1033 1033 1033 1033 1033 1033 1033 1033 
1033 1033 1033 1033 1033 1033 1033 1033 1033 
1033 1033 1033 1033 1033 1033 1033 1033 1033 
1033 1033 1033 1033 1033 1033 1033 1033 1033 
1033 1033 1033 1033 1033 1033 1033 1033 1033 
1033 1033 1033 1033 1033 1033 1033 1033 1033 
1033 1033 1033 1033 1033 1033 1033 1033 1033 
1033 1033 1033 1033 1033 1033 1033 1033 1033 
1033 1033 1033 1033 1033 1033 1033 1033 1033 
1033 1033 1033 1033 1033 1033 1033 1033 1033 
1033 1033 1033 1033 1033 1033 1033 1033 1033 
1033 1033 1033 1033 1033 1033 1033 1033 1033 
1033 1033 1033 1033 1033 1033 1033 1033 1033 
1033 1033 1033 1033 1033 1033 1033 1033 1033 
1033 1033 1033 1033 1033 1033 1033 1033 1033 
1033 1033 1033 1033 1033 1033 1033 1033 1033 
1033 1033 1033 1033 1033 1033 1033 1033 1033 
1033 1033 1033 1033 1033 1033 1033 1033 1033 
1033 1033 1033 1033 1033 1033 1033 1033 1033 
1033 1033 1033 1033 1033 1033 1033 1033 1033 
1033 1033 1033 1033 1033 1033 1033 1033 1033 
1033 1033 1033 1033 1033 1033 1033 1033 1033 
1033 1033 1033 1033 1033 1033 1033 1033 1033 
1033 1033 1033 1033 1033 1033 1033 1033 1033 
1033 1033 1033 1033 1033 1033 1033 1033 1033 
1033 1033 1033 1033 1033 1033 1033 1033 1033 
1033 1033 1033 1033 1033 1033 1033 1033 1033 
1033 1033 1033 1033 1033 1033 1033 1033 1033 
1033 1033 1033 1033 1033 1033 1033 1033 1033 
1033 1033 1033 1033 1033 1033 1033 1033 1033 
1033 1033 1033 1033 1033 1033 1033 1033 1033 
1033 1033 1033 1033 1033 1033 1033 1033 1033 
1033 1033 1033 1033 1033 1033 1033 1033 1033 
1033 1033 1033 1033 1033 1033 1033 1033 1033 
1033 1033 1033 1033 1033 1033 1033 1033 1033 
1033 1033 1033 1033 1033 1033 1033 1033 1033 
1033 1033 1033 1033 1033 1033 1033 1033 1033 
1033 1033 1033 1033 1033 1033 1033 1033 1033 
1033 1033 1033 1033 1033 1033 1033 1033 1033 
1033 1033 1033 1033 1033 1033 1033 1033 1033 
1033 1033 1033 1033 1033 1033 1033 1033 1033 
1033 1033 1033 1033 1033 1033 1033 1033 1033 
1033 1033 1033 1033 1033 1033 1033 1033 1033 
1033 1033 1033 1033 1033 1033 1033 1033 1033 
1033 1033 1033 1033 1033 1033 1033 1033 1033 
1033 1033 1033 1033 1033 1033 1033 1033 1033 
1033 1033 1033 1033 1033 1033 1033 1033 1033 
1033 1033 1033 1033 1033 1033 1033 1033 1033 
1033 1033 1033 1033 1033 1033 1033 1033 1033 
1033 1033 1033 1033 1033 1033 1033 1033 1033 
1033 1033 1033 1033 1033 1033 1033 1033 1033 
1033 1033 1033 1033 1033 1033 1033 1033 1033 
1033 1033 1033 1033 1033 1033 1033 1033 1033 
1033 1033 1033 1033 1033 1033 1033 1033 1033 
1033 1033 1033 1033 1033 1033 1033 1033 1033 
1033 1033 1033 1033 1033 1033 1033 1033 1033 
1033 1033 1033 1033 1033 1033 1033 1033 1033 
1033 1033 1033 1033 1033 1033 1033 1033 1033 
1033 1033 1033 1033 1033 1033 1033 1033 1033 
1033 1033 1033 1033 1033 1033 1033 1033 1033 
1033 1033 1033 1033 1033 1033 1033 1033 1033 
1033 1033 1033 1033 1033 1033 1033 1033 1033 
1033 1033 1033 1033 1033 1033 1033 1033 1033 
1033 1033 1033 1033 1033 1033 1033 1033 1033 
1033 1033 1033 1033 1033 1033 1033 1033 1033 
1033 1033 1033 1033 1033 1033 1033 1033 1033 
1033 1033 1033 1033 1033 1033 1033 1033 1033 
1033 1033 1033 1033 1033 1033 1033 1033 1033 
1033 1033 1033 1033 1033 1033 1033 1033 1033 
1033 1033 1033 1033 1033 1033 1033 1033 1033 
1033 1033 1033 1033 1033 1033 1033 1033 1033 
1033 1033 1033 1033 1033 1033 1033 1033 1033 
1033 1033 1033 1033 1033 1033 1033 1033 1033 
1033 1033 1033 1033 1033 1033 1033 1033 1033 
1033 1033 1033 1033 1033 1033 1033 1033 1033 
1033 1033 1033 1033 1033 1033 1033 1033 1033 
1033 1033 1033 1033 1033 1033 1033 1033 1033 
1033 1033 1033 1033 1033 1033 1033 1033 1033 
1033 1033 1033 1033 1033 1033 1033 1033 1033 
1033 1033 1033 1033 1033 1033 1033 1033 1033 
1033 1033 1033 1033 1033 1033 1033 1033 1033 
1033 1033 1033 1033 1033 1033 1033 1033 1033 
1033 1033 1033 1033 1033 1033 1033 1033 1033 
1033 1033 1033 1033 1033 1033 1033 1033 1033 
1033 1033 1033 1033 1033 1033 1033 1033 1033 
1033 1033 1033 1033 1033 1033 1033 1033 1033 
1033 1033 1033 1033 1033 1033 1033 1033 1033 
1033 1033 1033 1033 1033 1033 1033 1033 1033 
1033 1033 1033 1033 1033 1033 1033 1033 1033 
1033 1033 1033 1033 1033 1033 1033 1033 1033 
1033 1033 1033 1033 1033 1033 1033 1033 1033 
1033 1033 1033 1033 1033 1033 1033 1033 1033 
1033 1033 1033 1033 1033 1033 1033 1033 1033 
1033 1033 1033 1033 1033 1033 1033 1033 1033 
1033 1033 1033 1033 1033 1033 1033 1033 1033 
1033 1033 1033 1033 1033 1033 1033 1033 1033 
1033 1033 1033 1033 1033 1033 1033 1033 1033 
1033 1033 1033 1033 1033 1033 1033 1033 1033 
1033 1033 1033 1033 1033 1033 1033 1033 1033 
1033 1033 1033 1033 1033 1033 1033 1033 1033 
1033 1033 1033 1033 1033 1033 1033 1033 1033 
1033 1033 1033 1033 1033 1033 1033 1033 1033 
1033 1033 1033 1033 1033 1033 1033 1033 1033 
1033 1033 1033 1033 1033 1033 1033 1033 1033 
1033 1033 1033 1033 1033 1033 1033 1033 1033 
1033 1033 1033 1033 1033 1033 1033 1033 1033 
1033 1033 1033 1033 1033 1033 1033 1033 1033 
1033 1033 1033 1033 1033 1033 1033 1033 1033 
1033 1033 1033 1033 1033 1033 1033 1033 1033 
1033 1033 1033 1033 1033 1033 1033 1033 1033 
1033 1033 1033 1033 1033 1033 1033 1033 1033 
1033 1033 1033 1033 1033 1033 1033 1033 1033 
1033 1033 1033 1033 1033 1033 1033 1033 1033 
1033 1033 1033 1033 1033 1033 1033 1033 1033 
1033 1033 1033 1033 1033 1033 1033 1033 1033 
1033 1033 1033 1033 1033 1033 1033 1033 1033 
1033 1033 1033 1033 1033 1033 1033 1033 1033 
1033 1033 1033 1033 1033 1033 1033 1033 1033 
1033 1033 1033 1033 1033 1033 1033 1033 1033 
1033 1033 1033 1033 1033 1033 1033 1033 1033 
1033 1033 1033 1033 1033 1033 1033 1033 1033 
1033 1033 1033 1033 1033 1033 1033 1033 1033 
1033 1033 1033 1033 1033 1033 1033 1033 1033 
1033 1033 1033 1033 1033 1033 1033 1033 1033 
1033 1033 1033 1033 1033 1033 1033 1033 1033 
1033 1033 1033 1033 1033 1033 1033 1033 1033 
1033 1033 1033 1033 1033 1033 1033 1033 1033 
1033 1033 1033 1033 1033 1033 1033 1033 1033 
1033 1033 1033 1033 1033 1033 1033 1033 1033 
1033 1033 1033 1033 1033 1033 1033 1033 1033 
1033 1033 1033 1033 1033 1033 1033 1033 1033 
1033 1033 1033 1033 1033 1033 1033 1033 1033 
1033 1033 1033 1033 1033 1033 1033 1033 1033 
1033 1033 1033 1033 1033 1033 1033 1033 1033 
1033 1033 1033 1033 1033 1033 1033 1033 1033 
1033 1033 1033 1033 1033 1033 1033 1033 1033 
1033 1033 1033 1033 1033 1033 1033 1033 1033 
1033 1033 1033 1033 1033 1033 1033 1033 1033 
1033 1033 1033 1033 1033 1033 1033 1033 1033 
1033 1033 1033 1033 1033 1033 1033 1033 1033 
1033 1033 1033 1033 1033 1033 1033 1033 1033 
1033 1033 1033 1033 1033 1033 1033 1033 1033 
1033 1033 1033 1033 1033 1033 1033 1033 1033 
1033 1033 1033 1033 1033 1033 1033 1033 1033 
1033 1033 1033 1033 1033 1033 1033 1033 1033 
1033 1033 1033 1033 1033 1033 1033 1033 1033 
1033 1033 1033 1033 1033 1033 1033 1033 1033 
1033 1033 1033 1033 1033 1033 1033 1033 1033 
1033 1033 1033 1033 1033 1033 1033 1033 1033 
1033 1033 1033 1033 1033 1033 1033 1033 1033 
1033 1033 1033 1033 1033 1033 1033 1033 1033 
1033 1033 1033 1033 1033 1033 1033 1033 1033 
1033 1033 1033 1033 1033 1033 1033 1033 1033 
1033 1033 1033 1033 1033 1033 1033 1033 1033 
1033 1033 1033 1033 1033 1033 1033 1033 1033 
1033 1033 1033 1033 1033 1033 1033 1033 1033 
1033 1033 1033 1033 1033 1033 1033 1033 1033 
1033 1033 1033 1033 1033 1033 1033 1033 1033 
1033 1033 1033 1033 1033 1033 1033 1033 1033 
1033 1033 1033 1033 1033 1033 1033 1033 1033 
1033 1033 1033 1033 1033 1033 1033 1033 1033 
1033 1033 1033 1033 1033 1033 1033 1033 1033 
1033 1033 1033 1033 1033 1033 1033 1033 1033 
1033 1033 1033 1033 1033 1033 1033 1033 1033 
1033 1033 1033 1033 1033 1033 1033 1033 1033 
1033 1033 1033 1033 1033 1033 1033 1033 1033 
1033 1033 1033 1033 1033 1033 1033 1033 1033 
1033 1033 1033 1033 1033 1033 1033 1033 1033 
1033 1033 1033 1033 1033 1033 1033 1033 1033 
1033 1033 1033 1033 1033 1033 1033 1033 1033 
1033 1033 1033 1033 1033 1033 1033 1033 1033 
1033 1033 1033 1033 1033 1033 1033 1033 1033 
1033 1033 1033 1033 1033 1033 1033 1033 1033 
1033 1033 1033 1033 1033 1033 1033 1033 1033 
1033 1033 1033 1033 1033 1033 1033 1033 1033 
1033 1033 1033 1033 1033 1033 1033 1033 1033 
1033 1033 1033 1033 1033 1033 1033 1033 1033 
1033 1033 1033 1033 1033 1033 1033 1033 1033 
1033 1033 1033 1033 1033 1033 1033 1033 1033 
1033 1033 1033 1033 1033 1033 1033 1033 1033 
1033 1033 1033 1033 1033 1033 1033 1033 1033 
1033 1033 1033 1033 1033 1033 1033 1033 1033 
1033 1033 1033 1033 1033 1033 1033 1033 1033 
1033 1033 1033 1033 1033 1033 1033 1033 1033 
1033 1033 1033 1033 1033 1033 1033 1033 1033 
1033 1033 1033 1033 1033 1033 1033 1033 1033 
1033 1033 1033 1033 1033 1033 1033 1033 1033 
1033 1033 1033 1033 1033 1033 1033 1033 1033 
1033 1033 1033 1033 1033 1033 1033 1033 1033 
1033 1033 1033 1033 1033 1033 1033 1033 1033 
1033 1033 1033 1033 1033 1033 1033 1033 1033 
1033 1033 1033 1033 1033 1033 1033 1033 1033 
1033 1033 1033 1033 1033 1033 1033 1033 1033 
1033 1033 1033 1033 1033 1033 1033 1033 1033 
1033 1033 1033 1033 1033 1033 1033 1033 1033 
1033 1033 1033 1033 1033 1033 1033 1033 1033 
1033 1033 1033 1033 1033 1033 1033 1033 1033 
1033 1033 1033 1033 1033 1033 1033 1033 1033 
1033 1033 1033 1033 1033 1033 1033 1033 1033 
1033 1033 1033 1033 1033 1033 1033 1033 1033 
1033 1033 1033 1033 1033 1033 1033 1033 1033 
1033 1033 1033 1033 1033 1033 1033 1033 1033 
1033 1033 1033 1033 1033 1033 1033 1033 1033 
1033 1033 1033 1033 1033 1033 1033 1033 1033 
1033 1033 1033 1033 1033 1033 1033 1033 1033 
1033 1033 1033 1033 1033 1033 1033 1033 1033 
1033 1033 1033 1033 1033 1033 1033 1033 1033 
1033 1033 1033 1033 1033 1033 1033 1033 1033 
1033 1033 1033 1033 1033 1033 1033 1033 1033 
1033 1033 1033 1033 1033 1033 1033 1033 1033 
1033 1033 1033 1033 1033 1033 1033 1033 1033 
1033 1033 1033 1033 1033 1033 1033 1033 1033 
1033 1033 1033 1033 1033 1033 1033 1033 1033 
1033 1033 1033 1033 1033 1033 1033 1033 1033 
1033 1033 1033 1033 1033 1033 1033 1033 1033 
1033 1033 1033 1033 1033 1033 1033 1033 1033 
1033 1033 1033 1033 1033 1033 1033 1033 1033 
1033 1033 1033 1033 1033 1033 1033 1033 1033 
1033 1033 1033 1033 1033 1033 1033 1033 1033 
1033 1033 1033 1033 1033 1033 1033 1033 1033 
1033 1033 1033 1033 1033 1033 1033 1033 1033 
1033 1033 1033 1033 1033 1033 1033 1033 1033 
1033 1033 1033 1033 1033 1033 1033 1033 1033 
1033 1033 1033 1033 1033 1033 1033 1033 1033 
1033 1033 1033 1033 1033 1033 1033 1033 1033 
1033 1033 1033 1033 1033 1033 1033 1033 1033 
1033 1033 1033 1033 1033 1033 1033 1033 1033 
1033 1033 1033 1033 1033 1033 1033 1033 1033 
1033 1033 1033 1033 1033 1033 1033 1033 1033 
1033 1033 1033 1033 1033 1033 1033 1033 1033 
1033 1033 1033 1033 1033 1033 1033 1033 1033 
1033 1033 1033 1033 1033 1033 1033 1033 1033 
1033 1033 1033 1033 1033 1033 1033 1033 1033 
1033 1033 1033 1033 1033 1033 1033 1033 1033 
1033 1033 1033 1033 1033 1033 1033 1033 1033 
1033 1033 1033 1033 1033 1033 1033 1033 1033 
1033 1033 1033 1033 1033 1033 1033 1033 1033 
1033 1033 1033 1033 1033 1033 1033 1033 1033 
1033 1033 1033 1033 1033 1033 1033 1033 1033 
1033 1033 1033 1033 1033 1033 1033 1033 1033 
1033 1033 1033 1033 1033 1033 1033 1033 1033 
1033 1033 1033 1033 1033 1033 1033 1033 1033 
1033 1033 1033 1033 1033 1033 1033 1033 1033 
1033 1033 1033 1033 1033 1033 1033 1033 1033 
1033 1033 1033 1033 1033 1033 1033 1033 1033 
1033 1033 1033 1033 1033 1033 1033 1033 1033 
1033 1033 1033 1033 1033 1033 1033 1033 1033 
1033 1033 1033 1033 1033 1033 1033 1033 1033 
1033 1033 1033 1033 1033 1033 1033 1033 1033 
1033 1033 1033 1033 1033 1033 1033 1033 1033 
1033 1033 1033 1033 1033 1033 1033 1033 1033 
1033 1033 1033 1033 1033 1033 1033 1033 1033 
1033 1033 1033 1033 1033 1033 1033 1033 1033 
1033 1033 1033 1033 1033 1033 1033 1033 1033 
1033 1033 1033 1033 1033 1033 1033 1033 1033 
1033 1033 1033 1033 1033 1033 1033 1033 1033 
1033 1033 1033 1033 1033 1033 1033 1033 1033 
1033 1033 1033 1033 1033 1033 1033 1033 1033 
1033 1033 1033 1033 1033 1033 1033 1033 1033 
1033 1033 1033 1033 1033 1033 1033 1033 1033 
1033 1033 1033 1033 1033 1033 1033 1033 1033 
1033 1033 1033 1033 1033 1033 1033 1033 1033 
1033 1033 1033 1033 1033 1033 1033 1033 1033 
1033 1033 1033 1033 1033 1033 1033 1033 1033 
1033 1033 1033 1033 1033 1033 1033 1033 1033 
1033 1033 1033 1033 1033 1033 1033 1033 1033 
1033 1033 1033 1033 1033 1033 1033 1033 1033 
1033 1033 1033 1033 1033 1033 1033 1033 1033 
1033 1033 1033 1033 1033 1033 1033 1033 1033 
1033 1033 1033 1033 1033 1033 1033 1033 1033 
1033 1033 1033 1033 1033 1033 1033 1033 1033 
1033 1033 1033 1033 1033 1033 1033 1033 1033 
1033 1033 1033 1033 1033 1033 1033 1033 1033 
1033 1033 1033 1033 1033 1033 1033 1033 1033 
1033 1033 1033 1033 1033 1033 1033 1033 1033 
1033 1033 1033 1033 1033 1033 1033 1033 1033 
1033 1033 1033 1033 1033 1033 1033 1033 1033 
1033 1033 1033 1033 1033 1033 1033 1033 1033 
1033 1033 1033 1033 1033 1033 1033 1033 1033 
1033 1033 1033 1033 1033 1033 1033 1033 1033 
1033 1033 1033 1033 1033 1033 1033 1033 1033 
1033 1033 1033 1033 1033 1033 1033 1033 1033 
1033 1033 1033 1033 1033 1033 1033 1033 1033 
1033 1033 1033 1033 1033 1033 1033 1033 1033 
1033 1033 1033 1033 1033 1033 1033 1033 1033 
1033 1033 1033 1033 1033 1033 1033 1033 1033 
1033 1033 1033 1033 1033 1033 1033 1033 1033 
1033 1033 1033 1033 1033 1033 1033 1033 1033 
1033 1033 1033 1033 1033 1033 1033 1033 1033 
1033 1033 1033 1033 1033 1033 1033 1033 1033 
1033 1033 1033 1033 1033 1033 1033 1033 1033 
1033 1033 1033 1033 1033 1033 1033 1033 1033 
1033 1033 1033 1033 1033 1033 1033 1033 1033 
1033 1033 1033 1033 1033 1033 1033 1033 1033 
1033 1033 1033 1033 1033 1033 1033 1033 1033 
1033 1033 1033 1033 1033 1033 1033 1033 1033 
1033 1033 1033 1033 1033 1033 1033 1033 1033 
1033 1033 1033 1033 1033 1033 1033 1033 1033 
1033 1033 1033 1033 1033 1033 1033 1033 1033 
1033 1033 1033 1033 1033 1033 1033 1033 1033 
1033 1033 1033 1033 1033 1033 1033 1033 1033 
1033 1033 1033 1033 1033 1033 1033 1033 1033 
1033 1033 1033 1033 1033 1033 1033 1033 1033 
1033 1033 1033 1033 1033 1033 1033 1033 1033 
1033 1033 1033 1033 1033 1033 1033 1033 1033 
1033 1033 1033 1033 1033 1033 1033 1033 1033 
1033 1033 1033 1033 1033 1033 1033 1033 1033 
1033 1033 1033 1033 1033 1033 1033 1033 1033 
1033 1033 1033 1033 1033 1033 1033 1033 1033 
1033 1033 1033 1033 1033 1033 1033 1033 1033 
1033 1033 1033 1033 1033 1033 1033 1033 1033 
1033 1033 1033 1033 1033 1033 1033 1033 1033 
1033 1033 1033 1033 1033 1033 1033 1033 1033 
1033 1033 1033 1033 1033 1033 1033 1033 1033 
1033 1033 1033 1033 1033 1033 1033 1033 1033 
1033 1033 1033 1033 1033 1033 1033 1033 1033 
1033 1033 1033 1033 1033 1033 1033 1033 1033 
1033 1033 1033 1033 1033 1033 1033 1033 1033 
1033 1033 1033 1033 1033 1033 1033 1033 1033 
1033 1033 1033 1033 1033 1033 1033 1033 1033 
1033 1033 1033 1033 1033 1033 1033 1033 1033 
1033 1033 1033 1033 1033 1033 1033 1033 1033 
1033 1033 1033 1033 1033 1033 1033 1033 1033 
1033 1033 1033 1033 1033 1033 1033 1033 1033 
1033 1033 1033 1033 1033 1033 1033 1033 1033 
1033 1033 1033 1033 1033 1033 1033 1033 1033 
1033 1033 1033 1033 1033 1033 1033 1033 1033 
1033 1033 1033 1033 1033 1033 1033 1033 1033 
1033 1033 1033 1033 1033 1033 1033 1033 1033 
1033 1033 1033 1033 1033 1033 1033 1033 1033 
1033 1033 1033 1033 1033 1033 1033 1033 1033 
1033 1033 1033 1033 1033 1033 1033 1033 1033 
1033 1033 1033 1033 1033 1033 1033 1033 1033 
1033 1033 1033 1033 1033 1033 1033 1033 1033 
1033 1033 1033 1033 1033 1033 1033 1033 1033 
1033 1033 1033 1033 1033 1033 1033 1033 1033 
1033 1033 1033 1033 1033 1033 1033 1033 1033 
1033 1033 1033 1033 1033 1033 1033 1033 1033 
1033 1033 1033 1033 1033 1033 1033 1033 1033 
1033 1033 1033 1033 1033 1033 1033 1033 1033 
1033 1033 1033 1033 1033 1033 1033 1033 1033 
1033 1033 1033 1033 1033 1033 1033 1033 1033 
1033 1033 1033 1033 1033 1033 1033 1033 1033 
1033 1033 1033 1033 1033 1033 1033 1033 1033 
1033 1033 1033 1033 1033 1033 1033 1033 1033 
1033 1033 1033 1033 1033 1033 1033 1033 1033 
1033 1033 1033 1033 1033 1033 1033 1033 1033 
1033 1033 1033 1033 1033 1033 1033 1033 1033 
1033 1033 1033 1033 1033 1033 1033 1033 1033 
1033 1033 1033 1033 1033 1033 1033 1033 1033 
1033 1033 1033 1033 1033 1033 1033 1033 1033 
1033 1033 1033 1033 1033 1033 1033 1033 1033 
1033 1033 1033 1033 1033 1033 1033 1033 1033 
1033 1033 1033 1033 1033 1033 1033 1033 1033 
1033 1033 1033 1033 1033 1033 1033 1033 1033 
1033 1033 1033 1033 1033 1033 1033 1033 1033 
1033 1033 1033 1033 1033 1033 1033 1033 1033 
1033 1033 1033 1033 1033 1033 1033 1033 1033 
1033 1033 1033 1033 1033 1033 1033 1033 1033 
1033 1033 1033 1033 1033 1033 1033 1033 1033 
1033 1033 1033 1033 1033 1033 1033 1033 1033 
1033 1033 1033 1033 1033 1033 1033 1033 1033 
1033 1033 1033 1033 1033 1033 1033 1033 1033 
1033 1033 1033 1033 1033 1033 1033 1033 1033 
1033 1033 1033 1033 1033 1033 1033 1033 1033 
1033 1033 1033 1033 1033 1033 1033 1033 1033 
1033 1033 1033 1033 1033 1033 1033 1033 1033 
1033 1033 1033 1033 1033 1033 1033 1033 1033 
1033 1033 1033 1033 1033 1033 1033 1033 1033 
1033 1033 1033 1033 1033 1033 1033 1033 1033 
1033 1033 1033 1033 1033 1033 1033 1033 1033 
1033 1033 1033 1033 1033 1033 1033 1033 1033 
1033 1033 1033 1033 1033 1033 1033 1033 1033 
1033 1033 1033 1033 1033 1033 1033 1033 1033 
1033 1033 1033 1033 1033 1033 1033 1033 1033 