# vtk DataFile Version 4.2
vtk output
ASCII
DATASET POLYDATA
POINTS 10010 float
19.1847 -0.377911 24.5416 19.4247 -0.0663208 24.1381 19.6491 -0.464209 24.3592 
18.768 -0.397687 24.5273 18.81 -0.0793304 24.2675 18.4462 -0.262692 24.2589 
19.4902 -0.903598 24.6082 19.8168 -0.914996 24.421 18.9962 -0.926312 24.5749 
18.4982 -0.692084 24.3624 19.8514 -1.34253 24.5013 20.063 -1.13469 24.2539 
20.1655 -1.60333 24.1457 19.4498 -1.43232 24.5489 19.0456 -1.44216 24.4096 
18.6831 -1.1685 24.3339 19.793 -1.79623 24.2363 19.287 -1.71321 24.1893 
19.9048 -0.276324 24.0203 19.9703 -0.052533 23.7571 20.272 -0.457947 23.7255 
19.4947 0.119861 23.7322 18.9317 0.116364 23.808 18.0325 -0.483856 24.0117 
18.2252 0.0277405 23.6964 17.7682 -0.247339 23.6467 20.019 -0.690308 24.0905 
20.3273 -1.05694 23.8234 18.2544 -1.04763 24.1301 17.6099 -0.554919 23.7745 
17.7451 -0.99939 23.8981 17.3857 -0.83248 23.5219 20.4046 -1.60805 23.743 
18.7254 -1.498 24.1252 18.2152 -1.44404 23.9227 17.8964 -1.41918 23.7776 
17.677 -1.31232 23.547 20.0104 -2.18785 23.9973 20.2332 -2.18856 23.765 
19.7626 -2.15027 23.7935 19.4762 -1.91669 23.7228 18.8814 -1.69797 23.6672 
18.301 -1.59371 23.6832 20.0483 -2.61837 23.8426 20.0861 -2.67803 23.6287 
19.8682 -2.55666 23.6938 19.9834 -2.81946 23.7058 20.484 0.335971 23.2769 
20.6321 0.488113 22.9861 20.7796 0.185358 23.1345 19.9483 0.265283 23.4294 
20.1905 0.632794 23.0212 19.2283 0.316782 23.4339 19.5538 0.608954 23.1312 
18.6077 0.315353 23.4073 18.916 0.601263 23.111 18.217 0.319263 23.3278 
18.339 0.566263 23.0866 17.9394 0.355865 23.1424 20.5084 -0.104462 23.4174 
20.9297 -0.334314 23.0601 17.4945 -0.383267 23.4705 17.6699 -0.0228333 23.2727 
17.3476 -0.256329 23.0433 20.6236 -0.730408 23.4084 20.9322 -1.0385 23.1142 
17.1671 -0.80213 23.0136 20.6239 -1.34742 23.4256 20.9191 -1.67043 23.1367 
18.5881 -1.50206 23.3704 18.957 -1.62296 23.0064 18.6806 -1.38842 23.0525 
18.2359 -1.37066 23.2479 18.1069 -1.45827 23.5405 17.5527 -1.52534 23.3332 
17.8915 -1.52611 23.1363 17.2772 -1.34326 23.2497 20.551 -2.02593 23.3941 
20.8618 -2.22477 23.1608 19.6641 -2.25767 23.3179 19.2791 -1.90717 23.1296 
17.4755 -1.71191 22.9645 20.58 -2.58735 23.2027 20.7796 -2.57596 23.0118 
20.0902 -2.48161 23.0897 20.4377 -2.7678 23.1126 19.9277 -2.67001 23.4702 
20.6052 -2.81567 23.1065 19.8176 0.915253 22.7916 20.0008 1.06815 22.3942 
20.2057 0.886487 22.5862 19.2424 0.909393 22.8241 19.573 1.20471 22.4142 
18.6164 0.901639 22.8004 18.9573 1.21161 22.519 17.9814 0.805609 22.7815 
18.3446 1.21932 22.5108 17.5432 0.776733 22.6398 17.7716 1.18526 22.4946 
17.3647 0.962787 22.4509 20.5438 0.63804 22.4662 20.9166 0.224487 22.6963 
17.5798 0.349896 22.8756 17.2541 0.36882 22.5577 21.1732 -0.219717 22.7183 
21.2004 -0.0189697 22.3125 21.3533 -0.411676 22.5044 17.1302 -0.274081 22.5919 
21.2144 -0.716309 22.8138 21.4332 -0.885736 22.464 16.9933 -0.686993 22.611 
16.9543 -1.14859 22.8101 16.7824 -0.815991 22.3481 21.2245 -1.33248 22.8204 
21.5325 -1.57772 22.3846 18.7831 -1.47983 22.8397 18.4275 -1.48326 22.8688 
17.0438 -1.5668 22.8744 16.7693 -1.3676 22.4514 21.1276 -2.05798 22.7961 
21.4202 -2.23345 22.3476 19.4712 -2.16902 22.8276 19.1541 -1.94082 22.5125 
18.7386 -1.66416 22.482 18.0322 -1.74708 22.5731 17.4543 -1.86534 22.4432 
17.0284 -1.74296 22.5094 21.0731 -2.41215 22.4968 20.5562 -2.53055 22.6515 
20.5143 -2.7184 22.9773 19.8407 -2.52433 22.3759 19.4539 -2.30508 22.4304 
18.7014 1.9765 22.1142 18.7932 2.33672 21.9222 19.129 2.10655 21.9256 
18.0222 2.05038 22.1305 18.3778 2.41924 21.9144 17.4003 2.03799 22.1403 
17.7587 2.45198 21.9281 16.9572 1.97834 22.0844 17.1671 2.39762 21.939 
16.753 2.15777 21.9053 19.2348 1.60074 22.1861 19.4727 1.84538 21.8524 
19.6464 1.53527 21.8883 18.7138 1.51594 22.3114 18.1893 1.60172 22.2937 
17.5251 1.49405 22.2861 17.0252 1.50623 22.1429 16.6656 1.57624 21.878 
19.9378 1.19962 21.8414 20.2796 0.914484 22.078 17.0427 0.844592 22.2025 
16.7677 1.02343 21.9216 20.5648 0.602188 21.7442 20.8819 0.32525 22.0563 
16.9634 0.136798 22.1952 16.7572 0.467038 21.8143 21.2784 0.0117004 21.7143 
21.4901 -0.413507 22.0359 16.9229 -0.36579 22.298 16.7423 -0.236957 21.8737 
21.6302 -0.985822 22.0858 16.6584 -0.910895 21.8885 21.7557 -1.38583 22.092 
21.8395 -1.12297 21.8277 21.9543 -1.56235 21.7337 18.7139 -1.53984 22.059 
19.0442 -1.60622 21.9617 18.6808 -1.21981 21.7555 18.4592 -1.45236 21.8347 
16.7262 -1.45042 21.922 21.7816 -1.73159 22.0425 21.6523 -2.17367 21.9027 
19.24 -2.10147 22.0449 18.3232 -1.69804 22.0871 17.6399 -1.91674 21.8415 
17.0417 -1.78025 21.9267 21.144 -2.72087 22.2071 21.4371 -2.64756 21.8749 
20.7203 -2.72767 22.3376 20.1918 -2.85339 22.1838 19.7372 -2.61118 21.8618 
19.4762 -2.33087 21.9371 21.0709 -3.04948 21.8232 20.7525 -3.33397 21.8205 
20.6812 -3.15196 22.0806 20.3451 -3.27271 21.9739 20.0737 -3.02172 21.7261 
20.5784 -3.43343 21.9315 18.099 3.18571 21.514 18.1801 3.57101 21.3179 
18.5146 3.3239 21.3188 17.4618 3.1749 21.4785 17.8081 3.58485 21.3022 
17.3416 3.43215 21.2684 18.7521 2.687 21.6299 18.8645 3.04579 21.2291 
19.1155 2.69614 21.2331 18.1211 2.74426 21.7239 17.5722 2.81115 21.7021 
17.0024 3.11624 21.3651 16.864 2.671 21.6432 16.3501 2.53096 21.5053 
16.5428 2.95043 21.3392 16.1798 2.80306 21.1695 19.3154 2.24414 21.5891 
19.3948 2.36039 21.1111 19.5904 1.9298 21.4437 16.4265 2.02632 21.644 
16.1377 2.24745 21.269 19.7503 1.57317 21.3026 16.4208 1.44848 21.5377 
16.0916 1.58201 21.1568 19.9566 1.17686 21.1268 20.2583 0.87193 21.4386 
16.5742 0.942096 21.5182 16.3438 1.1516 21.2391 20.6579 0.556073 21.105 
20.9077 0.300833 21.4655 16.6222 0.249298 21.2957 21.6754 -0.294571 21.5724 
21.7449 -0.0803284 21.3111 22.0418 -0.493131 21.3081 21.3213 0.142474 21.295 
16.6632 -0.39809 21.3834 21.7919 -0.69549 21.6658 22.0956 -1.06631 21.4096 
18.9072 -1.01096 21.5772 19.0998 -0.926761 21.3368 18.7265 -0.691745 21.1417 
18.4697 -0.844025 21.3332 16.6562 -0.920068 21.2973 22.1464 -1.646 21.2053 
19.2887 -1.35046 21.5477 19.5461 -1.62737 21.3181 19.399 -1.20331 21.1407 
18.2832 -1.20421 21.4808 18.0915 -1.63225 21.6452 17.9828 -1.38691 21.1787 
16.7484 -1.44503 21.282 21.8602 -2.00359 21.7022 21.9833 -2.16257 21.2551 
19.3861 -1.90933 21.6665 19.5993 -2.13984 21.3646 17.7979 -2.00146 21.2621 
17.6038 -2.15594 21.5113 17.3936 -2.11788 21.3802 17.0482 -1.85215 21.2363 
21.6523 -2.4382 21.2464 21.4978 -2.60447 21.4656 19.6343 -2.61661 21.2854 
17.5421 -2.25944 21.2105 21.2404 -2.8768 21.4706 20.6138 -3.06348 21.3965 
20.4894 -3.34341 21.7785 19.8231 -2.95952 21.1937 17.5072 4.33816 20.8895 
17.6542 4.72229 20.5294 17.954 4.44962 20.7812 17.2271 4.60796 20.6468 
18.1368 3.91235 21.0361 18.216 4.2447 20.7502 18.507 3.94644 20.7077 
17.4759 3.80938 21.1058 16.9242 4.31649 20.6118 16.9196 3.85034 20.9263 
16.6079 3.97122 20.6319 18.7025 3.47054 20.9708 18.8347 3.65262 20.5956 
19.0056 3.2087 20.7467 16.9308 3.39672 21.155 16.4456 3.65037 20.7689 
16.4496 3.30139 21.0327 16.1527 3.34107 20.6479 19.2071 2.77775 20.7306 
15.9932 2.72847 20.7063 19.4027 2.49957 20.6184 19.5954 2.06904 20.7638 
15.9604 2.11897 20.8292 19.7683 1.5519 20.7007 15.7185 1.79674 20.6787 
15.788 1.49062 20.8884 15.4752 1.42436 20.5523 22.2966 0.773328 20.8931 
22.4723 1.13791 20.6823 22.7635 0.832562 20.7602 21.6519 0.734454 20.8662 
21.998 1.17704 20.6908 21.5264 0.990033 20.6446 20.0237 1.15723 20.663 
20.2898 0.844904 20.861 16.3956 0.717975 21.0554 16.1016 0.983221 20.8856 
15.7947 1.2045 20.7494 22.814 0.343021 20.9064 23.1293 0.570612 20.6846 
23.2963 0.097522 20.7194 22.3936 0.334039 21.0083 21.8489 0.301584 21.0663 
21.1172 0.644019 20.772 21.1936 0.393082 21.0652 20.6975 0.691644 20.6736 
16.4522 0.278796 20.8811 16.1063 0.381006 20.5941 22.9336 -0.309357 20.9361 
23.3239 -0.469684 20.7296 22.3699 -0.120648 21.0779 16.6045 -0.309201 20.805 
16.371 0.000595093 20.5814 22.9414 -0.861475 20.8965 23.2578 -0.847943 20.7222 
22.4849 -0.740515 21.0955 19.0627 -0.8418 20.897 18.6679 -0.637134 20.5754 
18.2937 -0.669305 20.8312 18.1177 -0.942719 21.0881 17.9925 -0.958264 20.6829 
16.6762 -0.981262 20.7781 23.0503 -1.19288 20.6493 22.6202 -1.59673 20.6756 
22.4836 -1.30225 20.9874 19.6874 -1.6392 20.7449 19.5012 -1.17307 20.5697 
17.9004 -1.51493 20.7156 16.7396 -1.49324 20.5997 22.3186 -1.76193 20.8173 
22.1585 -2.2054 20.6991 19.5687 -2.17974 20.717 17.8357 -2.0792 20.5721 
17.2481 -2.16608 20.9244 16.9368 -1.94391 20.6472 21.8369 -2.63258 20.9762 
21.9628 -2.65407 20.6713 21.6096 -2.67228 20.7794 21.2047 -2.50746 20.6311 
21.1206 -2.67773 21.0891 20.7509 -2.54693 20.7012 20.5624 -2.77593 20.911 
20.3274 -2.71333 20.5019 19.3761 -2.51012 20.7494 19.405 -2.76508 20.958 
19.2118 -2.68652 20.5445 17.4959 -2.32741 20.7039 21.761 -2.82735 20.5956 
19.9979 -2.9643 20.7292 19.4055 -2.9172 20.6455 18.243 4.44976 20.4918 
18.1606 4.76241 19.9925 18.5489 4.45304 20.1637 17.4777 4.86241 20.0334 
16.9649 4.57075 20.443 17.1243 4.74324 20.2595 16.733 4.50687 20.0234 
18.6865 4.08323 20.3573 18.7902 4.22735 20.1041 19.0243 3.78536 20.1574 
16.3187 3.81022 20.4703 16.4763 4.146 20.2336 16.1744 3.83181 20.0659 
19.1964 3.16254 20.2508 15.9534 3.37989 20.0711 19.3151 2.78328 20.3164 
19.4529 2.93831 20.0117 19.601 2.48522 20.1557 15.8137 2.94966 20.2139 
15.7904 2.49263 20.3975 15.6039 2.82977 19.9397 22.3014 2.00109 20.3164 
22.3578 2.38646 20.1307 22.6987 2.13146 20.1172 21.6526 2.02601 20.3284 
21.972 2.45371 20.1286 21.0678 1.92786 20.2683 21.4104 2.38207 20.1161 
20.9394 2.17474 20.0596 19.7631 1.93705 20.224 15.7817 2.13635 20.5077 
15.4745 2.24927 20.0993 22.9424 1.55728 20.3142 23.0236 1.82362 20.118 
23.3216 1.50126 20.1138 22.4158 1.45446 20.5002 21.7632 1.47991 20.4759 
21.1498 1.47872 20.3936 20.6091 1.86982 20.1167 20.5486 1.54058 20.2847 
20.0215 1.45541 20.3534 20.1529 1.80791 20.0619 15.1715 1.49143 20.3166 
15.2803 1.7562 20.2956 14.9899 1.58062 19.9336 23.4593 1.02404 20.3014 
23.6263 1.16208 20.1211 23.8548 0.777319 20.0961 22.9912 1.00704 20.5263 
[...]
CELL_DATA 20052
SCALARS scalars float
LOOKUP_TABLE default
2003 2003 2003 2003 2003 2003 2003 2003 2003 
2003 2003 2003 2003 2003 2003 2003 2003 2003 
2003 2003 2003 2003 2003 2003 2003 2003 2003 
2003 2003 2003 2003 2003 2003 2003 2003 2003 
2003 2003 2003 2003 2003 2003 2003 2003 2003 
2003 2003 2003 2003 2003 2003 2003 2003 2003 
2003 2003 2003 2003 2003 2003 2003 2003 2003 
2003 2003 2003 2003 2003 2003 2003 2003 2003 
2003 2003 2003 2003 2003 2003 2003 2003 2003 
2003 2003 2003 2003 2003 2003 2003 2003 2003 
2003 2003 2003 2003 2003 2003 2003 2003 2003 
2003 2003 2003 2003 2003 2003 2003 2003 2003 
2003 2003 2003 2003 2003 2003 2003 2003 2003 
2003 2003 2003 2003 2003 2003 2003 2003 2003 
2003 2003 2003 2003 2003 2003 2003 2003 2003 
2003 2003 2003 2003 2003 2003 2003 2003 2003 
2003 2003 2003 2003 2003 2003 2003 2003 2003 
2003 2003 2003 2003 2003 2003 2003 2003 2003 
2003 2003 2003 2003 2003 2003 2003 2003 2003 
2003 2003 2003 2003 2003 2003 2003 2003 2003 
2003 2003 2003 2003 2003 2003 2003 2003 2003 
2003 2003 2003 2003 2003 2003 2003 2003 2003 
2003 2003 2003 2003 2003 2003 2003 2003 2003 
2003 2003 2003 2003 2003 2003 2003 2003 2003 
2003 2003 2003 2003 2003 2003 2003 2003 2003 
2003 2003 2003 2003 2003 2003 2003 2003 2003 
2003 2003 2003 2003 2003 2003 2003 2003 2003 
2003 2003 2003 2003 2003 2003 2003 2003 2003 
2003 2003 2003 2003 2003 2003 2003 2003 2003 
2003 2003 2003 2003 2003 2003 2003 2003 2003 
2003 2003 2003 2003 2003 2003 2003 2003 2003 
2003 2003 2003 2003 2003 2003 2003 2003 2003 
2003 2003 2003 2003 2003 2003 2003 2003 2003 
2003 2003 2003 2003 2003 2003 2003 2003 2003 
2003 2003 2003 2003 2003 2003 2003 2003 2003 
2003 2003 2003 2003 2003 2003 2003 2003 2003 
2003 2003 2003 2003 2003 2003 2003 2003 2003 
2003 2003 2003 2003 2003 2003 2003 2003 2003 
2003 2003 2003 2003 2003 2003 2003 2003 2003 
2003 2003 2003 2003 2003 2003 2003 2003 2003 
2003 2003 2003 2003 2003 2003 2003 2003 2003 
2003 2003 2003 2003 2003 2003 2003 2003 2003 
2003 2003 2003 2003 2003 2003 2003 2003 2003 
2003 2003 2003 2003 2003 2003 2003 2003 2003 
2003 2003 2003 2003 2003 2003 2003 2003 2003 
2003 2003 2003 2003 2003 2003 2003 2003 2003 
2003 2003 2003 2003 2003 2003 2003 2003 2003 
2003 2003 2003 2003 2003 2003 2003 2003 2003 
2003 2003 2003 2003 2003 2003 2003 2003 2003 
2003 2003 2003 2003 2003 2003 2003 2003 2003 
2003 2003 2003 2003 2003 2003 2003 2003 2003 
2003 2003 2003 2003 2003 2003 2003 2003 2003 
2003 2003 2003 2003 2003 2003 2003 2003 2003 
2003 2003 2003 2003 2003 2003 2003 2003 2003 
2003 2003 2003 2003 2003 2003 2003 2003 2003 
2003 2003 2003 2003 2003 2003 2003 2003 2003 
2003 2003 2003 2003 2003 2003 2003 2003 2003 
2003 2003 2003 2003 2003 2003 2003 2003 2003 
2003 2003 2003 2003 2003 2003 2003 2003 2003 
2003 2003 2003 2003 2003 2003 2003 2003 2003 
2003 2003 2003 2003 2003 2003 2003 2003 2003 
2003 2003 2003 2003 2003 2003 2003 2003 2003 
2003 2003 2003 2003 2003 2003 2003 2003 2003 
2003 2003 2003 2003 2003 2003 2003 2003 2003 
2003 2003 2003 2003 2003 2003 2003 2003 2003 
2003 2003 2003 2003 2003 2003 2003 2003 2003 
2003 2003 2003 2003 2003 2003 2003 2003 2003 
2003 2003 2003 2003 2003 2003 2003 2003 2003 
2003 2003 2003 2003 2003 2003 2003 2003 2003 
2003 2003 2003 2003 2003 2003 2003 2003 2003 
2003 2003 2003 2003 2003 2003 2003 2003 2003 
2003 2003 2003 2003 2003 2003 2003 2003 2003 
2003 2003 2003 2003 2003 2003 2003 2003 2003 
2003 2003 2003 2003 2003 2003 2003 2003 2003 
2003 2003 2003 2003 2003 2003 2003 2003 2003 
2003 2003 2003 2003 2003 2003 2003 2003 2003 
2003 2003 2003 2003 2003 2003 2003 2003 2003 
2003 2003 2003 2003 2003 2003 2003 2003 2003 
2003 2003 2003 2003 2003 2003 2003 2003 2003 
2003 2003 2003 2003 2003 2003 2003 2003 2003 
2003 2003 2003 2003 2003 2003 2003 2003 2003 
2003 2003 2003 2003 2003 2003 2003 2003 2003 
2003 2003 2003 2003 2003 2003 2003 2003 2003 
2003 2003 2003 2003 2003 2003 2003 2003 2003 
2003 2003 2003 2003 2003 2003 2003 2003 2003 
2003 2003 2003 2003 2003 2003 2003 2003 2003 
2003 2003 2003 2003 2003 2003 2003 2003 2003 
2003 2003 2003 2003 2003 2003 2003 2003 2003 
2003 2003 2003 2003 2003 2003 2003 2003 2003 
2003 2003 2003 2003 2003 2003 2003 2003 2003 
2003 2003 2003 2003 2003 2003 2003 2003 2003 
2003 2003 2003 2003 2003 2003 2003 2003 2003 
2003 2003 2003 2003 2003 2003 2003 2003 2003 
2003 2003 2003 2003 2003 2003 2003 2003 2003 
2003 2003 2003 2003 2003 2003 2003 2003 2003 
2003 2003 2003 2003 2003 2003 2003 2003 2003 
2003 2003 2003 2003 2003 2003 2003 2003 2003 
2003 2003 2003 2003 2003 2003 2003 2003 2003 
2003 2003 2003 2003 2003 2003 2003 2003 2003 
2003 2003 2003 2003 2003 2003 2003 2003 2003 
2003 2003 2003 2003 2003 2003 2003 2003 2003 
2003 2003 2003 2003 2003 2003 2003 2003 2003 
2003 2003 2003 2003 2003 2003 2003 2003 2003 
2003 2003 2003 2003 2003 2003 2003 2003 2003 
2003 2003 2003 2003 2003 2003 2003 2003 2003 
2003 2003 2003 2003 2003 2003 2003 2003 2003 
2003 2003 2003 2003 2003 2003 2003 2003 2003 
2003 2003 2003 2003 2003 2003 2003 2003 2003 
2003 2003 2003 2003 2003 2003 2003 2003 2003 
2003 2003 2003 2003 2003 2003 2003 2003 2003 
2003 2003 2003 2003 2003 2003 2003 2003 2003 
2003 2003 2003 2003 2003 2003 2003 2003 2003 
2003 2003 2003 2003 2003 2003 2003 2003 2003 
2003 2003 2003 2003 2003 2003 2003 2003 2003 
2003 2003 2003 2003 2003 2003 2003 2003 2003 
2003 2003 2003 2003 2003 2003 2003 2003 2003 
2003 2003 2003 2003 2003 2003 2003 2003 2003 
2003 2003 2003 2003 2003 2003 2003 2003 2003 
2003 2003 2003 2003 2003 2003 2003 2003 2003 
2003 2003 2003 2003 2003 2003 2003 2003 2003 
2003 2003 2003 2003 2003 2003 2003 2003 2003 
2003 2003 2003 2003 2003 2003 2003 2003 2003 
2003 2003 2003 2003 2003 2003 2003 2003 2003 
2003 2003 2003 2003 2003 2003 2003 2003 2003 
2003 2003 2003 2003 2003 2003 2003 2003 2003 
2003 2003 2003 2003 2003 2003 2003 2003 2003 
2003 2003 2003 2003 2003 2003 2003 2003 2003 
2003 2003 2003 2003 2003 2003 2003 2003 2003 
2003 2003 2003 2003 2003 2003 2003 2003 2003 
2003 2003 2003 2003 2003 2003 2003 2003 2003 
2003 2003 2003 2003 2003 2003 2003 2003 2003 
2003 2003 2003 2003 2003 2003 2003 2003 2003 
2003 2003 2003 2003 2003 2003 2003 2003 2003 
2003 2003 2003 2003 2003 2003 2003 2003 2003 
2003 2003 2003 2003 2003 2003 2003 2003 2003 
2003 2003 2003 2003 2003 2003 2003 2003 2003 
2003 2003 2003 2003 2003 2003 2003 2003 2003 
2003 2003 2003 2003 2003 2003 2003 2003 2003 
2003 2003 2003 2003 2003 2003 2003 2003 2003 
2003 2003 2003 2003 2003 2003 2003 2003 2003 
2003 2003 2003 2003 2003 2003 2003 2003 2003 
2003 2003 2003 2003 2003 2003 2003 2003 2003 
2003 2003 2003 2003 2003 2003 2003 2003 2003 
2003 2003 2003 2003 2003 2003 2003 2003 2003 
2003 2003 2003 2003 2003 2003 2003 2003 2003 
2003 2003 2003 2003 2003 2003 2003 2003 2003 
2003 2003 2003 2003 2003 2003 2003 2003 2003 
2003 2003 2003 2003 2003 2003 2003 2003 2003 
2003 2003 2003 2003 2003 2003 2003 2003 2003 
2003 2003 2003 2003 2003 2003 2003 2003 2003 
2003 2003 2003 2003 2003 2003 2003 2003 2003 
2003 2003 2003 2003 2003 2003 2003 2003 2003 
2003 2003 2003 2003 2003 2003 2003 2003 2003 
2003 2003 2003 2003 2003 2003 2003 2003 2003 
2003 2003 2003 2003 2003 2003 2003 2003 2003 
2003 2003 2003 2003 2003 2003 2003 2003 2003 
2003 2003 2003 2003 2003 2003 2003 2003 2003 
2003 2003 2003 2003 2003 2003 2003 2003 2003 
2003 2003 2003 2003 2003 2003 2003 2003 2003 
2003 2003 2003 2003 2003 2003 2003 2003 2003 
2003 2003 2003 2003 2003 2003 2003 2003 2003 
2003 2003 2003 2003 2003 2003 2003 2003 2003 
2003 2003 2003 2003 2003 2003 2003 2003 2003 
2003 2003 2003 2003 2003 2003 2003 2003 2003 
2003 2003 2003 2003 2003 2003 2003 2003 2003 
2003 2003 2003 2003 2003 2003 2003 2003 2003 
2003 2003 2003 2003 2003 2003 2003 2003 2003 
2003 2003 2003 2003 2003 2003 2003 2003 2003 
2003 2003 2003 2003 2003 2003 2003 2003 2003 
2003 2003 2003 2003 2003 2003 2003 2003 2003 
2003 2003 2003 2003 2003 2003 2003 2003 2003 
2003 2003 2003 2003 2003 2003 2003 2003 2003 
2003 2003 2003 2003 2003 2003 2003 2003 2003 
2003 2003 2003 2003 2003 2003 2003 2003 2003 
2003 2003 2003 2003 2003 2003 2003 2003 2003 
2003 2003 2003 2003 2003 2003 2003 2003 2003 
2003 2003 2003 2003 2003 2003 2003 2003 2003 
2003 2003 2003 2003 2003 2003 2003 2003 2003 
2003 2003 2003 2003 2003 2003 2003 2003 2003 
2003 2003 2003 2003 2003 2003 2003 2003 2003 
2003 2003 2003 2003 2003 2003 2003 2003 2003 
2003 2003 2003 2003 2003 2003 2003 2003 2003 
2003 2003 2003 2003 2003 2003 2003 2003 2003 
2003 2003 2003 2003 2003 2003 2003 2003 2003 
2003 2003 2003 2003 2003 2003 2003 2003 2003 
2003 2003 2003 2003 2003 2003 2003 2003 2003 
2003 2003 2003 2003 2003 2003 2003 2003 2003 
2003 2003 2003 2003 2003 2003 2003 2003 2003 
2003 2003 2003 2003 2003 2003 2003 2003 2003 
2003 2003 2003 2003 2003 2003 2003 2003 2003 
2003 2003 2003 2003 2003 2003 2003 2003 2003 
2003 2003 2003 2003 2003 2003 2003 2003 2003 
2003 2003 2003 2003 2003 2003 2003 2003 2003 
2003 2003 2003 2003 2003 2003 2003 2003 2003 
2003 2003 2003 2003 2003 2003 2003 2003 2003 
2003 2003 2003 2003 2003 2003 2003 2003 2003 
2003 2003 2003 2003 2003 2003 2003 2003 2003 
2003 2003 2003 2003 2003 2003 2003 2003 2003 
2003 2003 2003 2003 2003 2003 2003 2003 2003 
2003 2003 2003 2003 2003 2003 2003 2003 2003 
2003 2003 2003 2003 2003 2003 2003 2003 2003 
2003 2003 2003 2003 2003 2003 2003 2003 2003 
2003 2003 2003 2003 2003 2003 2003 2003 2003 
2003 2003 2003 2003 2003 2003 2003 2003 2003 
2003 2003 2003 2003 2003 2003 2003 2003 2003 
2003 2003 2003 2003 2003 2003 2003 2003 2003 
2003 2003 2003 2003 2003 2003 2003 2003 2003 
2003 2003 2003 2003 2003 2003 2003 2003 2003 
2003 2003 2003 2003 2003 2003 2003 2003 2003 
2003 2003 2003 2003 2003 2003 2003 2003 2003 
2003 2003 2003 2003 2003 2003 2003 2003 2003 
2003 2003 2003 2003 2003 2003 2003 2003 2003 
2003 2003 2003 2003 2003 2003 2003 2003 2003 
2003 2003 2003 2003 2003 2003 2003 2003 2003 
2003 2003 2003 2003 2003 2003 2003 2003 2003 
2003 2003 2003 2003 2003 2003 2003 2003 2003 
2003 2003 2003 2003 2003 2003 2003 2003 2003 
2003 2003 2003 2003 2003 2003 2003 2003 2003 
2003 2003 2003 2003 2003 2003 2003 2003 2003 
2003 2003 2003 2003 2003 2003 2003 2003 2003 
2003 2003 2003 2003 2003 2003 2003 2003 2003 
2003 2003 2003 2003 2003 2003 2003 2003 2003 
2003 2003 2003 2003 2003 2003 2003 2003 2003 
2003 2003 2003 2003 2003 2003 2003 2003 2003 
2003 2003 2003 2003 2003 2003 2003 2003 2003 
2003 2003 2003 2003 2003 2003 2003 2003 2003 
2003 2003 2003 2003 2003 2003 2003 2003 2003 
2003 2003 2003 2003 2003 2003 2003 2003 2003 
2003 2003 2003 2003 2003 2003 2003 2003 2003 
2003 2003 2003 2003 2003 2003 2003 2003 2003 
2003 2003 2003 2003 2003 2003 2003 2003 2003 
2003 2003 2003 2003 2003 2003 2003 2003 2003 
2003 2003 2003 2003 2003 2003 2003 2003 2003 
2003 2003 2003 2003 2003 2003 2003 2003 2003 
2003 2003 2003 2003 2003 2003 2003 2003 2003 
2003 2003 2003 2003 2003 2003 2003 2003 2003 
2003 2003 2003 2003 2003 2003 2003 2003 2003 
2003 2003 2003 2003 2003 2003 2003 2003 2003 
2003 2003 2003 2003 2003 2003 2003 2003 2003 
2003 2003 2003 2003 2003 2003 2003 2003 2003 
2003 2003 2003 2003 2003 2003 2003 2003 2003 
2003 2003 2003 2003 2003 2003 2003 2003 2003 
2003 2003 2003 2003 2003 2003 2003 2003 2003 
2003 2003 2003 2003 2003 2003 2003 2003 2003 
2003 2003 2003 2003 2003 2003 2003 2003 2003 
2003 2003 2003 2003 2003 2003 2003 2003 2003 
2003 2003 2003 2003 2003 2003 2003 2003 2003 
2003 2003 2003 2003 2003 2003 2003 2003 2003 
2003 2003 2003 2003 2003 2003 2003 2003 2003 
2003 2003 2003 2003 2003 2003 2003 2003 2003 
2003 2003 2003 2003 2003 2003 2003 2003 2003 
2003 2003 2003 2003 2003 2003 2003 2003 2003 
2003 2003 2003 2003 2003 2003 2003 2003 2003 
2003 2003 2003 2003 2003 2003 2003 2003 2003 
2003 2003 2003 2003 2003 2003 2003 2003 2003 
2003 2003 2003 2003 2003 2003 2003 2003 2003 
2003 2003 2003 2003 2003 2003 2003 2003 2003 
2003 2003 2003 2003 2003 2003 2003 2003 2003 
2003 2003 2003 2003 2003 2003 2003 2003 2003 
2003 2003 2003 2003 2003 2003 2003 2003 2003 
2003 2003 2003 2003 2003 2003 2003 2003 2003 
2003 2003 2003 2003 2003 2003 2003 2003 2003 
2003 2003 2003 2003 2003 2003 2003 2003 2003 
2003 2003 2003 2003 2003 2003 2003 2003 2003 
2003 2003 2003 2003 2003 2003 2003 2003 2003 
2003 2003 2003 2003 2003 2003 2003 2003 2003 
2003 2003 2003 2003 2003 2003 2003 2003 2003 
2003 2003 2003 2003 2003 2003 2003 2003 2003 
2003 2003 2003 2003 2003 2003 2003 2003 2003 
2003 2003 2003 2003 2003 2003 2003 2003 2003 
2003 2003 2003 2003 2003 2003 2003 2003 2003 
2003 2003 2003 2003 2003 2003 2003 2003 2003 
2003 2003 2003 2003 2003 2003 2003 2003 2003 
2003 2003 2003 2003 2003 2003 2003 2003 2003 
2003 2003 2003 2003 2003 2003 2003 2003 2003 
2003 2003 2003 2003 2003 2003 2003 2003 2003 
2003 2003 2003 2003 2003 2003 2003 2003 2003 
2003 2003 2003 2003 2003 2003 2003 2003 2003 
2003 2003 2003 2003 2003 2003 2003 2003 2003 
2003 2003 2003 2003 2003 2003 2003 2003 2003 
2003 2003 2003 2003 2003 2003 2003 2003 2003 
2003 2003 2003 2003 2003 2003 2003 2003 2003 
2003 2003 2003 2003 2003 2003 2003 2003 2003 
2003 2003 2003 2003 2003 2003 2003 2003 2003 
2003 2003 2003 2003 2003 2003 2003 2003 2003 
2003 2003 2003 2003 2003 2003 2003 2003 2003 
2003 2003 2003 2003 2003 2003 2003 2003 2003 
2003 2003 2003 2003 2003 2003 2003 2003 2003 
2003 2003 2003 2003 2003 2003 2003 2003 2003 
2003 2003 2003 2003 2003 2003 2003 2003 2003 
2003 2003 2003 2003 2003 2003 2003 2003 2003 
2003 2003 2003 2003 2003 2003 2003 2003 2003 
2003 2003 2003 2003 2003 2003 2003 2003 2003 
2003 2003 2003 2003 2003 2003 2003 2003 2003 
2003 2003 2003 2003 2003 2003 2003 2003 2003 
2003 2003 2003 2003 2003 2003 2003 2003 2003 
2003 2003 2003 2003 2003 2003 2003 2003 2003 
2003 2003 2003 2003 2003 2003 2003 2003 2003 
2003 2003 2003 2003 2003 2003 2003 2003 2003 
2003 2003 2003 2003 2003 2003 2003 2003 2003 
2003 2003 2003 2003 2003 2003 2003 2003 2003 
2003 2003 2003 2003 2003 2003 2003 2003 2003 
2003 2003 2003 2003 2003 2003 2003 2003 2003 
2003 2003 2003 2003 2003 2003 2003 2003 2003 
2003 2003 2003 2003 2003 2003 2003 2003 2003 
2003 2003 2003 2003 2003 2003 2003 2003 2003 
2003 2003 2003 2003 2003 2003 2003 2003 2003 
2003 2003 2003 2003 2003 2003 2003 2003 2003 
2003 2003 2003 2003 2003 2003 2003 2003 2003 
2003 2003 2003 2003 2003 2003 2003 2003 2003 
2003 2003 2003 2003 2003 2003 2003 2003 2003 
2003 2003 2003 2003 2003 2003 2003 2003 2003 
2003 2003 2003 2003 2003 2003 2003 2003 2003 
2003 2003 2003 2003 2003 2003 2003 2003 2003 
2003 2003 2003 2003 2003 2003 2003 2003 2003 
2003 2003 2003 2003 2003 2003 2003 2003 2003 
2003 2003 2003 2003 2003 2003 2003 2003 2003 
2003 2003 2003 2003 2003 2003 2003 2003 2003 
2003 2003 2003 2003 2003 2003 2003 2003 2003 
2003 2003 2003 2003 2003 2003 2003 2003 2003 
2003 2003 2003 2003 2003 2003 2003 2003 2003 
2003 2003 2003 2003 2003 2003 2003 2003 2003 
2003 2003 2003 2003 2003 2003 2003 2003 2003 
2003 2003 2003 2003 2003 2003 2003 2003 2003 
2003 2003 2003 2003 2003 2003 2003 2003 2003 
2003 2003 2003 2003 2003 2003 2003 2003 2003 
2003 2003 2003 2003 2003 2003 2003 2003 2003 
2003 2003 2003 2003 2003 2003 2003 2003 2003 
2003 2003 2003 2003 2003 2003 2003 2003 2003 
2003 2003 2003 2003 2003 2003 2003 2003 2003 
2003 2003 2003 2003 2003 2003 2003 2003 2003 
2003 2003 2003 2003 2003 2003 2003 2003 2003 
2003 2003 2003 2003 2003 2003 2003 2003 2003 
2003 2003 2003 2003 2003 2003 2003 2003 2003 
2003 2003 2003 2003 2003 2003 2003 2003 2003 
2003 2003 2003 2003 2003 2003 2003 2003 2003 
2003 2003 2003 2003 2003 2003 2003 2003 2003 
2003 2003 2003 2003 2003 2003 2003 2003 2003 
2003 2003 2003 2003 2003 2003 2003 2003 2003 
2003 2003 2003 2003 2003 2003 2003 2003 2003 
2003 2003 2003 2003 2003 2003 2003 2003 2003 
2003 2003 2003 2003 2003 2003 2003 2003 2003 
2003 2003 2003 2003 2003 2003 2003 2003 2003 
2003 2003 2003 2003 2003 2003 2003 2003 2003 
2003 2003 2003 2003 2003 2003 2003 2003 2003 
2003 2003 2003 2003 2003 2003 2003 2003 2003 
2003 2003 2003 2003 2003 2003 2003 2003 2003 
2003 2003 2003 2003 2003 2003 2003 2003 2003 
2003 2003 2003 2003 2003 2003 2003 2003 2003 
2003 2003 2003 2003 2003 2003 2003 2003 2003 
2003 2003 2003 2003 2003 2003 2003 2003 2003 
2003 2003 2003 2003 2003 2003 2003 2003 2003 
2003 2003 2003 2003 2003 2003 2003 2003 2003 
2003 2003 2003 2003 2003 2003 2003 2003 2003 
2003 2003 2003 2003 2003 2003 2003 2003 2003 
2003 2003 2003 2003 2003 2003 2003 2003 2003 
2003 2003 2003 2003 2003 2003 2003 2003 2003 
2003 2003 2003 2003 2003 2003 2003 2003 2003 
2003 2003 2003 2003 2003 2003 2003 2003 2003 
2003 2003 2003 2003 2003 2003 2003 2003 2003 
2003 2003 2003 2003 2003 2003 2003 2003 2003 
2003 2003 2003 2003 2003 2003 2003 2003 2003 
2003 2003 2003 2003 2003 2003 2003 2003 2003 
2003 2003 2003 2003 2003 2003 2003 2003 2003 
2003 2003 2003 2003 2003 2003 2003 2003 2003 
2003 2003 2003 2003 2003 2003 2003 2003 2003 
2003 2003 2003 2003 2003 2003 2003 2003 2003 
2003 2003 2003 2003 2003 2003 2003 2003 2003 
2003 2003 2003 2003 2003 2003 2003 2003 2003 
2003 2003 2003 2003 2003 2003 2003 2003 2003 
2003 2003 2003 2003 2003 2003 2003 2003 2003 
2003 2003 2003 2003 2003 2003 2003 2003 2003 
2003 2003 2003 2003 2003 2003 2003 2003 2003 
2003 2003 2003 2003 2003 2003 2003 2003 2003 
2003 2003 2003 2003 2003 2003 2003 2003 2003 
2003 2003 2003 2003 2003 2003 2003 2003 2003 
2003 2003 2003 2003 2003 2003 2003 2003 2003 
2003 2003 2003 2003 2003 2003 2003 2003 2003 
2003 2003 2003 2003 2003 2003 2003 2003 2003 
2003 2003 2003 2003 2003 2003 2003 2003 2003 
2003 2003 2003 2003 2003 2003 2003 2003 2003 
2003 2003 2003 2003 2003 2003 2003 2003 2003 
2003 2003 2003 2003 2003 2003 2003 2003 2003 
2003 2003 2003 2003 2003 2003 2003 2003 2003 
2003 2003 2003 2003 2003 2003 2003 2003 2003 
2003 2003 2003 2003 2003 2003 2003 2003 2003 
2003 2003 2003 2003 2003 2003 2003 2003 2003 
2003 2003 2003 2003 2003 2003 2003 2003 2003 
2003 2003 2003 2003 2003 2003 2003 2003 2003 
2003 2003 2003 2003 2003 2003 2003 2003 2003 
2003 2003 2003 2003 2003 2003 2003 2003 2003 
2003 2003 2003 2003 2003 2003 2003 2003 2003 
2003 2003 2003 2003 2003 2003 2003 2003 2003 
2003 2003 2003 2003 2003 2003 2003 2003 2003 
2003 2003 2003 2003 2003 2003 2003 2003 2003 
2003 2003 2003 2003 2003 2003 2003 2003 2003 
2003 2003 2003 2003 2003 2003 2003 2003 2003 
2003 2003 2003 2003 2003 2003 2003 2003 2003 
2003 2003 2003 2003 2003 2003 2003 2003 2003 
2003 2003 2003 2003 2003 2003 2003 2003 2003 
2003 2003 2003 2003 2003 2003 2003 2003 2003 
2003 2003 2003 2003 2003 2003 2003 2003 2003 
2003 2003 2003 2003 2003 2003 2003 2003 2003 
2003 2003 2003 2003 2003 2003 2003 2003 2003 
2003 2003 2003 2003 2003 2003 2003 2003 2003 
2003 2003 2003 2003 2003 2003 2003 2003 2003 
2003 2003 2003 2003 2003 2003 2003 2003 2003 
2003 2003 2003 2003 2003 2003 2003 2003 2003 
2003 2003 2003 2003 2003 2003 2003 2003 2003 
2003 2003 2003 2003 2003 2003 2003 2003 2003 
2003 2003 2003 2003 2003 2003 2003 2003 2003 
2003 2003 2003 2003 2003 2003 2003 2003 2003 
2003 2003 2003 2003 2003 2003 2003 2003 2003 
2003 2003 2003 2003 2003 2003 2003 2003 2003 
2003 2003 2003 2003 2003 2003 2003 2003 2003 
2003 2003 2003 2003 2003 2003 2003 2003 2003 
2003 2003 2003 2003 2003 2003 2003 2003 2003 
2003 2003 2003 2003 2003 2003 2003 2003 2003 
2003 2003 2003 2003 2003 2003 2003 2003 2003 
2003 2003 2003 2003 2003 2003 2003 2003 2003 
2003 2003 2003 2003 2003 2003 2003 2003 2003 
2003 2003 2003 2003 2003 2003 2003 2003 2003 
2003 2003 2003 2003 2003 2003 2003 2003 2003 
2003 2003 2003 2003 2003 2003 2003 2003 2003 
2003 2003 2003 2003 2003 2003 2003 2003 2003 
2003 2003 2003 2003 2003 2003 2003 2003 2003 
2003 2003 2003 2003 2003 2003 2003 2003 2003 
2003 2003 2003 2003 2003 2003 2003 2003 2003 
2003 2003 2003 2003 2003 2003 2003 2003 2003 
2003 2003 2003 2003 2003 2003 2003 2003 2003 
2003 2003 2003 2003 2003 2003 2003 2003 2003 
2003 2003 2003 2003 2003 2003 2003 2003 2003 
2003 2003 2003 2003 2003 2003 2003 2003 2003 