# vtk DataFile Version 4.2
vtk output
ASCII
DATASET POLYDATA
POINTS 10272 float
-37.2929 -0.639347 -16.0596 -37.24 -0.0756709 -16.3471 -37.8756 -0.458309 -16.3795 
-36.6073 -0.790512 -16.164 -36.6214 -0.041798 -16.3904 -35.9755 -0.414564 -16.7998 
-38.1471 -1.27551 -16.1661 -38.5378 -0.930525 -16.5656 -38.7018 -1.52735 -16.7847 
-37.4295 -1.42128 -16.082 -36.7891 -1.6456 -16.4952 -36.2051 -1.12984 -16.5956 
-38.0799 -1.86828 -16.5444 -37.4758 -1.87546 -16.4692 -37.2012 0.351206 -16.9029 
-37.0662 0.781065 -17.7272 -37.7285 0.26105 -17.6372 -36.0208 0.454497 -16.9957 
-36.4514 0.895345 -17.4445 -35.3938 0.560466 -17.2849 -35.6301 1.00486 -17.6168 
-34.9597 0.466449 -17.7198 -38.2188 -0.221373 -16.9773 -38.3412 -0.225995 -17.6119 
-38.7453 -0.864179 -17.3452 -35.4816 0.0122173 -17.5148 -35.7118 -0.570776 -17.5351 
-38.8025 -1.56157 -17.6372 -36.0628 -1.85813 -16.915 -35.7231 -1.1931 -17.5091 
-38.2928 -1.94731 -17.4995 -37.2802 -2.12209 -17.2894 -36.438 -2.34257 -17.0555 
-36.5536 -2.49616 -17.6065 -35.4604 -2.03411 -17.3988 -35.6539 -2.55275 -17.2177 
-34.9835 -2.42459 -17.7444 -35.958 -2.80384 -17.541 -35.2908 -2.86462 -17.7017 
-34.9692 1.35238 -18.0326 -35.5288 1.85359 -18.7661 -35.7629 1.48494 -18.3166 
-34.1377 1.50998 -18.0988 -34.5996 2.04426 -18.624 -33.3735 1.32245 -18.1729 
-33.5636 2.02044 -18.4416 -32.5445 1.41126 -18.2863 -32.6101 1.93308 -18.437 
-31.9997 1.65363 -18.5185 -37.3283 0.535154 -18.0131 -36.9754 0.737958 -18.5636 
-36.3985 1.17809 -18.3098 -34.11 0.55012 -18.0066 -33.5656 0.633512 -18.3481 
-32.9571 0.914511 -18.4669 -32.2061 1.16695 -18.5399 -38.5151 -0.668637 -18.0506 
-38.0126 -0.443908 -18.454 -37.4307 0.151971 -18.6691 -35.5399 -0.570707 -18.2393 
-35.1317 -0.220289 -18.3074 -34.5235 -0.479656 -18.1048 -35.0644 -0.705925 -18.5446 
-33.5273 0.0639063 -18.3983 -33.6633 -0.621452 -18.2425 -33 -0.45278 -18.8688 
-38.3403 -1.08572 -18.6777 -38.6689 -1.28043 -18.2376 -35.3983 -0.937718 -18.468 
-34.9571 -1.48968 -18.0604 -34.1724 -1.29063 -18.1642 -33.6686 -1.40499 -18.4142 
-33.2142 -1.10331 -18.6889 -38.2658 -1.83457 -18.4671 -37.3571 -2.05187 -18.4963 
-36.5567 -2.24556 -18.307 -36.1053 -2.61751 -18.0801 -35.9633 -2.44508 -18.7503 
-34.271 -2.03228 -18.3519 -34.7705 -2.68058 -18.2099 -35.4981 -2.93588 -18.4853 
-33.9881 2.52721 -19.0553 -34.5305 2.83697 -19.7653 -34.7708 2.47137 -19.3143 
-32.9924 2.525 -18.9406 -33.5752 3.04779 -19.6512 -31.9666 2.32838 -18.9385 
-32.5129 3.03431 -19.4673 -31.2613 2.26021 -19.2196 -31.5834 2.95326 -19.4744 
-30.9437 2.58775 -19.5547 -36.1654 1.61038 -18.9405 -36.0252 1.86187 -19.6104 
-36.6094 1.19814 -19.4027 -35.3043 2.20853 -19.2566 -31.5072 1.33999 -18.987 
-30.8008 1.58942 -19.5844 -37.0162 0.532913 -19.3796 -33.0617 0.297404 -18.7702 
-32.281 0.670804 -18.8975 -31.5515 0.465825 -19.2638 -31.0024 0.558485 -19.6443 
-37.346 0.0102636 -19.7964 -37.7134 -0.514962 -19.3715 -35.3313 -0.547362 -18.7395 
-32.1921 -0.0950049 -19.3922 -32.578 -0.586702 -19.4404 -31.3086 -0.0251296 -19.7178 
-38.2089 -1.60881 -18.9717 -37.8747 -1.48771 -19.6587 -33.4255 -1.88754 -18.9164 
-32.7635 -1.22717 -19.3589 -37.3358 -2.08069 -19.5663 -36.4432 -2.16794 -19.2902 
-35.9925 -2.75181 -19.615 -34.3634 -2.75768 -18.7775 -33.5597 -2.79176 -19.2093 
-32.8498 -2.19733 -19.5309 -36.1575 -3.38751 -19.2143 -36.3933 -3.28524 -19.5101 
-36.5267 -3.57519 -19.4799 -35.3693 -3.51974 -19.0489 -34.4062 -3.49003 -19.1909 
-33.8181 -3.44259 -19.5052 -33.1298 -2.99703 -19.858 -36.1517 -3.76198 -19.4004 
-35.2578 -3.86782 -19.6003 -34.3475 -3.84646 -19.7006 -33.0139 3.52643 -20.0626 
-33.5374 3.82959 -20.7495 -33.77 3.47165 -20.303 -32.0649 3.53237 -19.9714 
-32.6317 4.04033 -20.6462 -31.0355 3.3402 -19.956 -31.6176 4.03397 -20.4636 
-30.0569 3.34863 -20.0779 -30.6249 4.01848 -20.4535 -29.1995 3.48732 -20.1164 
-29.6163 4.02387 -20.4395 -28.3782 3.32856 -20.1805 -28.4567 4.00962 -20.5509 
-27.298 3.51264 -20.2133 -27.3019 3.88577 -20.5877 -26.522 3.5097 -20.2478 
-26.3448 3.84674 -20.5829 -25.8459 3.62662 -20.5765 -35.406 2.41753 -19.9633 
-35.0473 2.8563 -20.5816 -35.6338 2.2882 -20.6897 -34.288 3.20657 -20.2429 
-30.3144 2.35481 -19.8519 -29.3422 2.58471 -20.0692 -28.6636 2.53654 -20.3647 
-27.9856 2.8943 -20.4441 -27.0413 3.03987 -20.4362 -26.1775 3.22109 -20.4936 
-36.411 1.34843 -20.1593 -35.9764 1.66475 -20.563 -30.3396 1.36261 -20.053 
-29.6909 1.55826 -20.2039 -28.9058 1.76653 -20.4873 -36.3047 0.957104 -20.7079 
-36.7911 0.652056 -20.2234 -30.6078 0.658159 -20.2411 -30.0229 0.837441 -20.704 
-29.1687 1.10551 -20.8074 -37.1969 -0.017371 -20.551 -37.7096 -0.769465 -20.388 
-32.1536 -0.884886 -19.8325 -31.4431 -0.647287 -20.0655 -30.8048 -0.224175 -20.3596 
-37.9054 -1.56944 -20.5815 -32.2962 -1.67017 -19.8684 -31.6414 -1.58902 -20.2446 
-30.8775 -1.15929 -20.5695 -37.4105 -2.43367 -20.1957 -37.6303 -2.24344 -20.7101 
-37.0484 -2.55376 -20.4161 -36.5792 -2.32389 -20.5627 -35.9677 -2.57699 -20.6252 
-32.3089 -2.37496 -20.055 -31.7226 -2.35795 -20.4618 -31.1257 -1.92314 -20.6364 
-37.2994 -2.719 -20.5952 -36.0684 -3.48027 -19.7463 -35.6038 -3.08155 -20.5034 
-35.2932 -3.65055 -20.1567 -34.8934 -3.53945 -20.8605 -33.7626 -3.59675 -20.1597 
-33.1004 -3.32292 -20.5181 -32.3574 -2.91445 -20.4674 -34.3588 -3.86888 -20.4918 
-32.0562 4.51985 -21.0364 -32.233 4.81586 -21.7873 -32.708 4.46269 -21.364 
-31.1171 4.53456 -20.9541 -31.3638 4.8876 -21.5996 -30.1024 4.53574 -20.9505 
-30.3496 4.89283 -21.6062 -29.0781 4.51625 -20.9566 -29.3104 4.9012 -21.624 
-28.2225 4.45085 -21.1275 -28.3718 4.81932 -21.6219 -27.7069 4.5804 -21.6496 
-34.3992 3.42368 -20.9254 -34.0277 3.78617 -21.6366 -34.6233 3.30472 -21.6514 
-33.2508 4.17101 -21.4697 -27.3238 4.20144 -21.3694 -26.2619 4.02252 -21.4503 
-25.192 3.17015 -20.9832 -25.4816 3.82669 -21.287 -24.7849 3.51944 -21.8363 
-21.2995 3.47776 -21.3277 -21.1232 3.70316 -21.6684 -21.6801 3.64558 -21.6188 
-20.8807 3.52929 -21.5849 -35.4436 2.34898 -21.1444 -35.003 2.66129 -21.5323 
-28.3206 2.18278 -20.7242 -27.6023 2.26489 -20.9774 -26.2834 2.48497 -20.9435 
-25.0805 2.29596 -20.9179 -24.3533 3.00184 -21.5079 -24.3192 2.41159 -21.1374 
-23.928 2.51214 -21.6863 -21.4389 3.21968 -21.6247 -20.3135 2.77451 -21.4473 
-20.5219 2.45748 -21.5497 -20.3036 2.51568 -21.3597 -20.0742 2.64974 -21.4924 
-35.341 1.92501 -21.7142 -35.6841 1.70438 -21.2868 -28.3506 1.53506 -21.0066 
-27.9506 1.58525 -21.4413 -27.38 1.95446 -21.6713 -26.4105 1.83776 -21.5286 
-25.8503 1.46349 -21.4631 -25.4996 1.72666 -21.1337 -24.5597 1.628 -21.1341 
-23.7631 1.81379 -21.6153 -20.1743 2.24794 -21.5104 -36.5284 0.181001 -20.9847 
-35.8508 0.776115 -21.3601 -30.1588 0.131003 -20.971 -29.8085 0.51544 -21.3794 
-29.3733 0.861151 -21.4567 -28.6166 1.1804 -21.5062 -25.2478 1.05628 -21.5713 
-24.1315 1.11599 -21.4882 -37.2335 -0.529286 -21.0563 -36.6073 -0.491318 -21.3039 
-35.9018 -0.409983 -21.634 -30.1482 -0.77525 -20.8898 -29.4767 0.157641 -21.455 
-29.2008 -0.547745 -21.1489 -28.3083 -0.745565 -21.2554 -28.6847 -0.0502302 -21.5192 
-27.9877 -0.406614 -21.5571 -37.0541 -1.04674 -21.7104 -37.6584 -1.43967 -21.2251 
-36.4582 -0.768381 -21.6508 -30.313 -1.79788 -20.9012 -29.2896 -1.53945 -21.0122 
-28.3871 -1.49635 -21.1447 -27.7484 -1.24394 -21.4669 -37.2929 -2.12447 -21.3145 
-37.1601 -2.53674 -20.839 -36.2739 -2.45038 -21.0984 -36.7659 -2.3101 -21.7995 
-31.2235 -2.73655 -20.8517 -30.2926 -2.56371 -20.9981 -29.5523 -2.59152 -21.1075 
-28.5825 -2.39504 -21.2039 -27.8163 -2.20849 -21.4765 -35.9496 -2.80136 -21.4586 
-35.298 -3.16644 -21.3524 -34.7844 -3.52295 -21.793 -33.4457 -3.65857 -20.8141 
-32.3339 -3.57266 -21.0237 -31.3182 -3.56208 -21.0169 -30.5006 -3.50447 -21.1528 
-29.7088 -3.42067 -21.407 -28.9478 -3.13788 -21.4673 -28.1851 -2.91221 -21.5629 
-34.1645 -3.88428 -21.5032 -33.3337 -3.92443 -21.337 -32.1505 -4.27911 -21.7408 
-31.6078 -4.62466 -21.4833 -31.426 -4.26163 -21.2429 -30.9272 -4.42374 -21.403 
-30.3262 -4.03369 -21.8131 -31.3239 -4.72386 -21.4289 -23.0874 5.19811 -22.2354 
-23.2695 5.90518 -22.7411 -23.7702 5.1359 -22.44 -22.7429 5.62095 -22.6189 
-32.2433 4.89675 -22.7215 -32.8728 4.54309 -22.1786 -31.3799 5.01642 -22.4796 
-30.3634 5.02233 -22.4817 -29.3049 5.04242 -22.5347 -28.2978 5.03118 -22.5001 
-27.1128 4.44793 -22.109 -27.5354 4.81158 -22.3313 -26.8051 4.50677 -22.8787 
-23.2172 4.48871 -22.1424 -23.787 4.54823 -22.4373 -22.5009 5.07596 -22.3851 
-22.3519 4.35867 -22.0484 -21.9163 4.63248 -22.5296 -34.4132 3.34656 -22.1036 
-34.006 3.44854 -22.6049 -33.4697 4.04896 -22.6027 -26.4323 4.15453 -22.323 
-25.4594 3.85732 -22.3493 -24.8394 3.52919 -22.4808 -23.4736 3.96202 -22.5572 
-22.8656 3.43242 -22.4459 -22.4588 3.63634 -21.9902 -21.3106 4.05157 -22.342 
-20.2562 3.15671 -21.7968 -20.363 3.8348 -22.4046 -19.0506 3.22676 -22.179 
-19.3459 3.78169 -22.6427 -18.6515 3.60441 -22.6956 -34.3232 2.91095 -22.6801 
-34.6868 2.71503 -22.2522 -24.4184 3.0159 -22.4121 -23.8071 2.34538 -22.2316 
-22.3622 2.94494 -22.4173 -21.24 2.43909 -21.9062 -21.9604 2.0915 -22.6079 
-19.5859 2.40674 -21.7915 -18.1966 3.14366 -22.6811 -18.5877 2.38164 -22.207 
-17.8603 2.57917 -22.6403 -35.3562 1.18201 -21.9808 -34.8984 1.7712 -22.3766 
-28.1756 1.55175 -21.9378 -28.7277 1.4924 -22.4939 -27.9903 2.01216 -22.6216 
-27.1383 1.84825 -22.3118 -26.3314 1.45337 -21.9655 -26.7757 1.49965 -22.8327 
-23.5152 1.85402 -22.5223 -23.3499 1.09007 -21.9887 -23.0039 1.20264 -22.7242 
-21.4031 1.6421 -22.1813 -21.6838 1.42259 -22.6988 -20.3739 1.56874 -21.9346 
-19.2117 1.42059 -22.0991 -18.7014 1.45725 -22.5434 -18.1068 2.07569 -22.5758 
-35.1546 0.170716 -22.0195 -34.8042 0.781876 -22.5454 -29.1469 0.568261 -21.793 
-28.1523 0.472648 -22.0138 -28.1139 1.08918 -22.6176 -27.1322 0.244041 -22.1649 
-27.4804 0.73883 -22.5968 -26.0769 0.967161 -22.367 -26.8258 0.420185 -22.7066 
-25.2467 0.362612 -22.0879 -25.7638 0.371384 -22.7504 -24.1407 0.390491 -21.8028 
-23.2061 0.245303 -22.0491 -22.8572 0.581119 -22.4346 -21.0708 1.10561 -22.6159 
[...]
CELL_DATA 20708
SCALARS scalars float
LOOKUP_TABLE default
2013 2013 2013 2013 2013 2013 2013 2013 2013 
2013 2013 2013 2013 2013 2013 2013 2013 2013 
2013 2013 2013 2013 2013 2013 2013 2013 2013 
2013 2013 2013 2013 2013 2013 2013 2013 2013 
2013 2013 2013 2013 2013 2013 2013 2013 2013 
2013 2013 2013 2013 2013 2013 2013 2013 2013 
2013 2013 2013 2013 2013 2013 2013 2013 2013 
2013 2013 2013 2013 2013 2013 2013 2013 2013 
2013 2013 2013 2013 2013 2013 2013 2013 2013 
2013 2013 2013 2013 2013 2013 2013 2013 2013 
2013 2013 2013 2013 2013 2013 2013 2013 2013 
2013 2013 2013 2013 2013 2013 2013 2013 2013 
2013 2013 2013 2013 2013 2013 2013 2013 2013 
2013 2013 2013 2013 2013 2013 2013 2013 2013 
2013 2013 2013 2013 2013 2013 2013 2013 2013 
2013 2013 2013 2013 2013 2013 2013 2013 2013 
2013 2013 2013 2013 2013 2013 2013 2013 2013 
2013 2013 2013 2013 2013 2013 2013 2013 2013 
2013 2013 2013 2013 2013 2013 2013 2013 2013 
2013 2013 2013 2013 2013 2013 2013 2013 2013 
2013 2013 2013 2013 2013 2013 2013 2013 2013 
2013 2013 2013 2013 2013 2013 2013 2013 2013 
2013 2013 2013 2013 2013 2013 2013 2013 2013 
2013 2013 2013 2013 2013 2013 2013 2013 2013 
2013 2013 2013 2013 2013 2013 2013 2013 2013 
2013 2013 2013 2013 2013 2013 2013 2013 2013 
2013 2013 2013 2013 2013 2013 2013 2013 2013 
2013 2013 2013 2013 2013 2013 2013 2013 2013 
2013 2013 2013 2013 2013 2013 2013 2013 2013 
2013 2013 2013 2013 2013 2013 2013 2013 2013 
2013 2013 2013 2013 2013 2013 2013 2013 2013 
2013 2013 2013 2013 2013 2013 2013 2013 2013 
2013 2013 2013 2013 2013 2013 2013 2013 2013 
2013 2013 2013 2013 2013 2013 2013 2013 2013 
2013 2013 2013 2013 2013 2013 2013 2013 2013 
2013 2013 2013 2013 2013 2013 2013 2013 2013 
2013 2013 2013 2013 2013 2013 2013 2013 2013 
2013 2013 2013 2013 2013 2013 2013 2013 2013 
2013 2013 2013 2013 2013 2013 2013 2013 2013 
2013 2013 2013 2013 2013 2013 2013 2013 2013 
2013 2013 2013 2013 2013 2013 2013 2013 2013 
2013 2013 2013 2013 2013 2013 2013 2013 2013 
2013 2013 2013 2013 2013 2013 2013 2013 2013 
2013 2013 2013 2013 2013 2013 2013 2013 2013 
2013 2013 2013 2013 2013 2013 2013 2013 2013 
2013 2013 2013 2013 2013 2013 2013 2013 2013 
2013 2013 2013 2013 2013 2013 2013 2013 2013 
2013 2013 2013 2013 2013 2013 2013 2013 2013 
2013 2013 2013 2013 2013 2013 2013 2013 2013 
2013 2013 2013 2013 2013 2013 2013 2013 2013 
2013 2013 2013 2013 2013 2013 2013 2013 2013 
2013 2013 2013 2013 2013 2013 2013 2013 2013 
2013 2013 2013 2013 2013 2013 2013 2013 2013 
2013 2013 2013 2013 2013 2013 2013 2013 2013 
2013 2013 2013 2013 2013 2013 2013 2013 2013 
2013 2013 2013 2013 2013 2013 2013 2013 2013 
2013 2013 2013 2013 2013 2013 2013 2013 2013 
2013 2013 2013 2013 2013 2013 2013 2013 2013 
2013 2013 2013 2013 2013 2013 2013 2013 2013 
2013 2013 2013 2013 2013 2013 2013 2013 2013 
2013 2013 2013 2013 2013 2013 2013 2013 2013 
2013 2013 2013 2013 2013 2013 2013 2013 2013 
2013 2013 2013 2013 2013 2013 2013 2013 2013 
2013 2013 2013 2013 2013 2013 2013 2013 2013 
2013 2013 2013 2013 2013 2013 2013 2013 2013 
2013 2013 2013 2013 2013 2013 2013 2013 2013 
2013 2013 2013 2013 2013 2013 2013 2013 2013 
2013 2013 2013 2013 2013 2013 2013 2013 2013 
2013 2013 2013 2013 2013 2013 2013 2013 2013 
2013 2013 2013 2013 2013 2013 2013 2013 2013 
2013 2013 2013 2013 2013 2013 2013 2013 2013 
2013 2013 2013 2013 2013 2013 2013 2013 2013 
2013 2013 2013 2013 2013 2013 2013 2013 2013 
2013 2013 2013 2013 2013 2013 2013 2013 2013 
2013 2013 2013 2013 2013 2013 2013 2013 2013 
2013 2013 2013 2013 2013 2013 2013 2013 2013 
2013 2013 2013 2013 2013 2013 2013 2013 2013 
2013 2013 2013 2013 2013 2013 2013 2013 2013 
2013 2013 2013 2013 2013 2013 2013 2013 2013 
2013 2013 2013 2013 2013 2013 2013 2013 2013 
2013 2013 2013 2013 2013 2013 2013 2013 2013 
2013 2013 2013 2013 2013 2013 2013 2013 2013 
2013 2013 2013 2013 2013 2013 2013 2013 2013 
2013 2013 2013 2013 2013 2013 2013 2013 2013 
2013 2013 2013 2013 2013 2013 2013 2013 2013 
2013 2013 2013 2013 2013 2013 2013 2013 2013 
2013 2013 2013 2013 2013 2013 2013 2013 2013 
2013 2013 2013 2013 2013 2013 2013 2013 2013 
2013 2013 2013 2013 2013 2013 2013 2013 2013 
2013 2013 2013 2013 2013 2013 2013 2013 2013 
2013 2013 2013 2013 2013 2013 2013 2013 2013 
2013 2013 2013 2013 2013 2013 2013 2013 2013 
2013 2013 2013 2013 2013 2013 2013 2013 2013 
2013 2013 2013 2013 2013 2013 2013 2013 2013 
2013 2013 2013 2013 2013 2013 2013 2013 2013 
2013 2013 2013 2013 2013 2013 2013 2013 2013 
2013 2013 2013 2013 2013 2013 2013 2013 2013 
2013 2013 2013 2013 2013 2013 2013 2013 2013 
2013 2013 2013 2013 2013 2013 2013 2013 2013 
2013 2013 2013 2013 2013 2013 2013 2013 2013 
2013 2013 2013 2013 2013 2013 2013 2013 2013 
2013 2013 2013 2013 2013 2013 2013 2013 2013 
2013 2013 2013 2013 2013 2013 2013 2013 2013 
2013 2013 2013 2013 2013 2013 2013 2013 2013 
2013 2013 2013 2013 2013 2013 2013 2013 2013 
2013 2013 2013 2013 2013 2013 2013 2013 2013 
2013 2013 2013 2013 2013 2013 2013 2013 2013 
2013 2013 2013 2013 2013 2013 2013 2013 2013 
2013 2013 2013 2013 2013 2013 2013 2013 2013 
2013 2013 2013 2013 2013 2013 2013 2013 2013 
2013 2013 2013 2013 2013 2013 2013 2013 2013 
2013 2013 2013 2013 2013 2013 2013 2013 2013 
2013 2013 2013 2013 2013 2013 2013 2013 2013 
2013 2013 2013 2013 2013 2013 2013 2013 2013 
2013 2013 2013 2013 2013 2013 2013 2013 2013 
2013 2013 2013 2013 2013 2013 2013 2013 2013 
2013 2013 2013 2013 2013 2013 2013 2013 2013 
2013 2013 2013 2013 2013 2013 2013 2013 2013 
2013 2013 2013 2013 2013 2013 2013 2013 2013 
2013 2013 2013 2013 2013 2013 2013 2013 2013 
2013 2013 2013 2013 2013 2013 2013 2013 2013 
2013 2013 2013 2013 2013 2013 2013 2013 2013 
2013 2013 2013 2013 2013 2013 2013 2013 2013 
2013 2013 2013 2013 2013 2013 2013 2013 2013 
2013 2013 2013 2013 2013 2013 2013 2013 2013 
2013 2013 2013 2013 2013 2013 2013 2013 2013 
2013 2013 2013 2013 2013 2013 2013 2013 2013 
2013 2013 2013 2013 2013 2013 2013 2013 2013 
2013 2013 2013 2013 2013 2013 2013 2013 2013 
2013 2013 2013 2013 2013 2013 2013 2013 2013 
2013 2013 2013 2013 2013 2013 2013 2013 2013 
2013 2013 2013 2013 2013 2013 2013 2013 2013 
2013 2013 2013 2013 2013 2013 2013 2013 2013 
2013 2013 2013 2013 2013 2013 2013 2013 2013 
2013 2013 2013 2013 2013 2013 2013 2013 2013 
2013 2013 2013 2013 2013 2013 2013 2013 2013 
2013 2013 2013 2013 2013 2013 2013 2013 2013 
2013 2013 2013 2013 2013 2013 2013 2013 2013 
2013 2013 2013 2013 2013 2013 2013 2013 2013 
2013 2013 2013 2013 2013 2013 2013 2013 2013 
2013 2013 2013 2013 2013 2013 2013 2013 2013 
2013 2013 2013 2013 2013 2013 2013 2013 2013 
2013 2013 2013 2013 2013 2013 2013 2013 2013 
2013 2013 2013 2013 2013 2013 2013 2013 2013 
2013 2013 2013 2013 2013 2013 2013 2013 2013 
2013 2013 2013 2013 2013 2013 2013 2013 2013 
2013 2013 2013 2013 2013 2013 2013 2013 2013 
2013 2013 2013 2013 2013 2013 2013 2013 2013 
2013 2013 2013 2013 2013 2013 2013 2013 2013 
2013 2013 2013 2013 2013 2013 2013 2013 2013 
2013 2013 2013 2013 2013 2013 2013 2013 2013 
2013 2013 2013 2013 2013 2013 2013 2013 2013 
2013 2013 2013 2013 2013 2013 2013 2013 2013 
2013 2013 2013 2013 2013 2013 2013 2013 2013 
2013 2013 2013 2013 2013 2013 2013 2013 2013 
2013 2013 2013 2013 2013 2013 2013 2013 2013 
2013 2013 2013 2013 2013 2013 2013 2013 2013 
2013 2013 2013 2013 2013 2013 2013 2013 2013 
2013 2013 2013 2013 2013 2013 2013 2013 2013 
2013 2013 2013 2013 2013 2013 2013 2013 2013 
2013 2013 2013 2013 2013 2013 2013 2013 2013 
2013 2013 2013 2013 2013 2013 2013 2013 2013 
2013 2013 2013 2013 2013 2013 2013 2013 2013 
2013 2013 2013 2013 2013 2013 2013 2013 2013 
2013 2013 2013 2013 2013 2013 2013 2013 2013 
2013 2013 2013 2013 2013 2013 2013 2013 2013 
2013 2013 2013 2013 2013 2013 2013 2013 2013 
2013 2013 2013 2013 2013 2013 2013 2013 2013 
2013 2013 2013 2013 2013 2013 2013 2013 2013 
2013 2013 2013 2013 2013 2013 2013 2013 2013 
2013 2013 2013 2013 2013 2013 2013 2013 2013 
2013 2013 2013 2013 2013 2013 2013 2013 2013 
2013 2013 2013 2013 2013 2013 2013 2013 2013 
2013 2013 2013 2013 2013 2013 2013 2013 2013 
2013 2013 2013 2013 2013 2013 2013 2013 2013 
2013 2013 2013 2013 2013 2013 2013 2013 2013 
2013 2013 2013 2013 2013 2013 2013 2013 2013 
2013 2013 2013 2013 2013 2013 2013 2013 2013 
2013 2013 2013 2013 2013 2013 2013 2013 2013 
2013 2013 2013 2013 2013 2013 2013 2013 2013 
2013 2013 2013 2013 2013 2013 2013 2013 2013 
2013 2013 2013 2013 2013 2013 2013 2013 2013 
2013 2013 2013 2013 2013 2013 2013 2013 2013 
2013 2013 2013 2013 2013 2013 2013 2013 2013 
2013 2013 2013 2013 2013 2013 2013 2013 2013 
2013 2013 2013 2013 2013 2013 2013 2013 2013 
2013 2013 2013 2013 2013 2013 2013 2013 2013 
2013 2013 2013 2013 2013 2013 2013 2013 2013 
2013 2013 2013 2013 2013 2013 2013 2013 2013 
2013 2013 2013 2013 2013 2013 2013 2013 2013 
2013 2013 2013 2013 2013 2013 2013 2013 2013 
2013 2013 2013 2013 2013 2013 2013 2013 2013 
2013 2013 2013 2013 2013 2013 2013 2013 2013 
2013 2013 2013 2013 2013 2013 2013 2013 2013 
2013 2013 2013 2013 2013 2013 2013 2013 2013 
2013 2013 2013 2013 2013 2013 2013 2013 2013 
2013 2013 2013 2013 2013 2013 2013 2013 2013 
2013 2013 2013 2013 2013 2013 2013 2013 2013 
2013 2013 2013 2013 2013 2013 2013 2013 2013 
2013 2013 2013 2013 2013 2013 2013 2013 2013 
2013 2013 2013 2013 2013 2013 2013 2013 2013 
2013 2013 2013 2013 2013 2013 2013 2013 2013 
2013 2013 2013 2013 2013 2013 2013 2013 2013 
2013 2013 2013 2013 2013 2013 2013 2013 2013 
2013 2013 2013 2013 2013 2013 2013 2013 2013 
2013 2013 2013 2013 2013 2013 2013 2013 2013 
2013 2013 2013 2013 2013 2013 2013 2013 2013 
2013 2013 2013 2013 2013 2013 2013 2013 2013 
2013 2013 2013 2013 2013 2013 2013 2013 2013 
2013 2013 2013 2013 2013 2013 2013 2013 2013 
2013 2013 2013 2013 2013 2013 2013 2013 2013 
2013 2013 2013 2013 2013 2013 2013 2013 2013 
2013 2013 2013 2013 2013 2013 2013 2013 2013 
2013 2013 2013 2013 2013 2013 2013 2013 2013 
2013 2013 2013 2013 2013 2013 2013 2013 2013 
2013 2013 2013 2013 2013 2013 2013 2013 2013 
2013 2013 2013 2013 2013 2013 2013 2013 2013 
2013 2013 2013 2013 2013 2013 2013 2013 2013 
2013 2013 2013 2013 2013 2013 2013 2013 2013 
2013 2013 2013 2013 2013 2013 2013 2013 2013 
2013 2013 2013 2013 2013 2013 2013 2013 2013 
2013 2013 2013 2013 2013 2013 2013 2013 2013 
2013 2013 2013 2013 2013 2013 2013 2013 2013 
2013 2013 2013 2013 2013 2013 2013 2013 2013 
2013 2013 2013 2013 2013 2013 2013 2013 2013 
2013 2013 2013 2013 2013 2013 2013 2013 2013 
2013 2013 2013 2013 2013 2013 2013 2013 2013 
2013 2013 2013 2013 2013 2013 2013 2013 2013 
2013 2013 2013 2013 2013 2013 2013 2013 2013 
2013 2013 2013 2013 2013 2013 2013 2013 2013 
2013 2013 2013 2013 2013 2013 2013 2013 2013 
2013 2013 2013 2013 2013 2013 2013 2013 2013 
2013 2013 2013 2013 2013 2013 2013 2013 2013 
2013 2013 2013 2013 2013 2013 2013 2013 2013 
2013 2013 2013 2013 2013 2013 2013 2013 2013 
2013 2013 2013 2013 2013 2013 2013 2013 2013 
2013 2013 2013 2013 2013 2013 2013 2013 2013 
2013 2013 2013 2013 2013 2013 2013 2013 2013 
2013 2013 2013 2013 2013 2013 2013 2013 2013 
2013 2013 2013 2013 2013 2013 2013 2013 2013 
2013 2013 2013 2013 2013 2013 2013 2013 2013 
2013 2013 2013 2013 2013 2013 2013 2013 2013 
2013 2013 2013 2013 2013 2013 2013 2013 2013 
2013 2013 2013 2013 2013 2013 2013 2013 2013 
2013 2013 2013 2013 2013 2013 2013 2013 2013 
2013 2013 2013 2013 2013 2013 2013 2013 2013 
2013 2013 2013 2013 2013 2013 2013 2013 2013 
2013 2013 2013 2013 2013 2013 2013 2013 2013 
2013 2013 2013 2013 2013 2013 2013 2013 2013 
2013 2013 2013 2013 2013 2013 2013 2013 2013 
2013 2013 2013 2013 2013 2013 2013 2013 2013 
2013 2013 2013 2013 2013 2013 2013 2013 2013 
2013 2013 2013 2013 2013 2013 2013 2013 2013 
2013 2013 2013 2013 2013 2013 2013 2013 2013 
2013 2013 2013 2013 2013 2013 2013 2013 2013 
2013 2013 2013 2013 2013 2013 2013 2013 2013 
2013 2013 2013 2013 2013 2013 2013 2013 2013 
2013 2013 2013 2013 2013 2013 2013 2013 2013 
2013 2013 2013 2013 2013 2013 2013 2013 2013 
2013 2013 2013 2013 2013 2013 2013 2013 2013 
2013 2013 2013 2013 2013 2013 2013 2013 2013 
2013 2013 2013 2013 2013 2013 2013 2013 2013 
2013 2013 2013 2013 2013 2013 2013 2013 2013 
2013 2013 2013 2013 2013 2013 2013 2013 2013 
2013 2013 2013 2013 2013 2013 2013 2013 2013 
2013 2013 2013 2013 2013 2013 2013 2013 2013 
2013 2013 2013 2013 2013 2013 2013 2013 2013 
2013 2013 2013 2013 2013 2013 2013 2013 2013 
2013 2013 2013 2013 2013 2013 2013 2013 2013 
2013 2013 2013 2013 2013 2013 2013 2013 2013 
2013 2013 2013 2013 2013 2013 2013 2013 2013 
2013 2013 2013 2013 2013 2013 2013 2013 2013 
2013 2013 2013 2013 2013 2013 2013 2013 2013 
2013 2013 2013 2013 2013 2013 2013 2013 2013 
2013 2013 2013 2013 2013 2013 2013 2013 2013 
2013 2013 2013 2013 2013 2013 2013 2013 2013 
2013 2013 2013 2013 2013 2013 2013 2013 2013 
2013 2013 2013 2013 2013 2013 2013 2013 2013 
2013 2013 2013 2013 2013 2013 2013 2013 2013 
2013 2013 2013 2013 2013 2013 2013 2013 2013 
2013 2013 2013 2013 2013 2013 2013 2013 2013 
2013 2013 2013 2013 2013 2013 2013 2013 2013 
2013 2013 2013 2013 2013 2013 2013 2013 2013 
2013 2013 2013 2013 2013 2013 2013 2013 2013 
2013 2013 2013 2013 2013 2013 2013 2013 2013 
2013 2013 2013 2013 2013 2013 2013 2013 2013 
2013 2013 2013 2013 2013 2013 2013 2013 2013 
2013 2013 2013 2013 2013 2013 2013 2013 2013 
2013 2013 2013 2013 2013 2013 2013 2013 2013 
2013 2013 2013 2013 2013 2013 2013 2013 2013 
2013 2013 2013 2013 2013 2013 2013 2013 2013 
2013 2013 2013 2013 2013 2013 2013 2013 2013 
2013 2013 2013 2013 2013 2013 2013 2013 2013 
2013 2013 2013 2013 2013 2013 2013 2013 2013 
2013 2013 2013 2013 2013 2013 2013 2013 2013 
2013 2013 2013 2013 2013 2013 2013 2013 2013 
2013 2013 2013 2013 2013 2013 2013 2013 2013 
2013 2013 2013 2013 2013 2013 2013 2013 2013 
2013 2013 2013 2013 2013 2013 2013 2013 2013 
2013 2013 2013 2013 2013 2013 2013 2013 2013 
2013 2013 2013 2013 2013 2013 2013 2013 2013 
2013 2013 2013 2013 2013 2013 2013 2013 2013 
2013 2013 2013 2013 2013 2013 2013 2013 2013 
2013 2013 2013 2013 2013 2013 2013 2013 2013 
2013 2013 2013 2013 2013 2013 2013 2013 2013 
2013 2013 2013 2013 2013 2013 2013 2013 2013 
2013 2013 2013 2013 2013 2013 2013 2013 2013 
2013 2013 2013 2013 2013 2013 2013 2013 2013 
2013 2013 2013 2013 2013 2013 2013 2013 2013 
2013 2013 2013 2013 2013 2013 2013 2013 2013 
2013 2013 2013 2013 2013 2013 2013 2013 2013 
2013 2013 2013 2013 2013 2013 2013 2013 2013 
2013 2013 2013 2013 2013 2013 2013 2013 2013 
2013 2013 2013 2013 2013 2013 2013 2013 2013 
2013 2013 2013 2013 2013 2013 2013 2013 2013 
2013 2013 2013 2013 2013 2013 2013 2013 2013 
2013 2013 2013 2013 2013 2013 2013 2013 2013 
2013 2013 2013 2013 2013 2013 2013 2013 2013 
2013 2013 2013 2013 2013 2013 2013 2013 2013 
2013 2013 2013 2013 2013 2013 2013 2013 2013 
2013 2013 2013 2013 2013 2013 2013 2013 2013 
2013 2013 2013 2013 2013 2013 2013 2013 2013 
2013 2013 2013 2013 2013 2013 2013 2013 2013 
2013 2013 2013 2013 2013 2013 2013 2013 2013 
2013 2013 2013 2013 2013 2013 2013 2013 2013 
2013 2013 2013 2013 2013 2013 2013 2013 2013 
2013 2013 2013 2013 2013 2013 2013 2013 2013 
2013 2013 2013 2013 2013 2013 2013 2013 2013 
2013 2013 2013 2013 2013 2013 2013 2013 2013 
2013 2013 2013 2013 2013 2013 2013 2013 2013 
2013 2013 2013 2013 2013 2013 2013 2013 2013 
2013 2013 2013 2013 2013 2013 2013 2013 2013 
2013 2013 2013 2013 2013 2013 2013 2013 2013 
2013 2013 2013 2013 2013 2013 2013 2013 2013 
2013 2013 2013 2013 2013 2013 2013 2013 2013 
2013 2013 2013 2013 2013 2013 2013 2013 2013 
2013 2013 2013 2013 2013 2013 2013 2013 2013 
2013 2013 2013 2013 2013 2013 2013 2013 2013 
2013 2013 2013 2013 2013 2013 2013 2013 2013 
2013 2013 2013 2013 2013 2013 2013 2013 2013 
2013 2013 2013 2013 2013 2013 2013 2013 2013 
2013 2013 2013 2013 2013 2013 2013 2013 2013 
2013 2013 2013 2013 2013 2013 2013 2013 2013 
2013 2013 2013 2013 2013 2013 2013 2013 2013 
2013 2013 2013 2013 2013 2013 2013 2013 2013 
2013 2013 2013 2013 2013 2013 2013 2013 2013 
2013 2013 2013 2013 2013 2013 2013 2013 2013 
2013 2013 2013 2013 2013 2013 2013 2013 2013 
2013 2013 2013 2013 2013 2013 2013 2013 2013 
2013 2013 2013 2013 2013 2013 2013 2013 2013 
2013 2013 2013 2013 2013 2013 2013 2013 2013 
2013 2013 2013 2013 2013 2013 2013 2013 2013 
2013 2013 2013 2013 2013 2013 2013 2013 2013 
2013 2013 2013 2013 2013 2013 2013 2013 2013 
2013 2013 2013 2013 2013 2013 2013 2013 2013 
2013 2013 2013 2013 2013 2013 2013 2013 2013 
2013 2013 2013 2013 2013 2013 2013 2013 2013 
2013 2013 2013 2013 2013 2013 2013 2013 2013 
2013 2013 2013 2013 2013 2013 2013 2013 2013 
2013 2013 2013 2013 2013 2013 2013 2013 2013 
2013 2013 2013 2013 2013 2013 2013 2013 2013 
2013 2013 2013 2013 2013 2013 2013 2013 2013 
2013 2013 2013 2013 2013 2013 2013 2013 2013 
2013 2013 2013 2013 2013 2013 2013 2013 2013 
2013 2013 2013 2013 2013 2013 2013 2013 2013 
2013 2013 2013 2013 2013 2013 2013 2013 2013 
2013 2013 2013 2013 2013 2013 2013 2013 2013 
2013 2013 2013 2013 2013 2013 2013 2013 2013 
2013 2013 2013 2013 2013 2013 2013 2013 2013 
2013 2013 2013 2013 2013 2013 2013 2013 2013 
2013 2013 2013 2013 2013 2013 2013 2013 2013 
2013 2013 2013 2013 2013 2013 2013 2013 2013 
2013 2013 2013 2013 2013 2013 2013 2013 2013 
2013 2013 2013 2013 2013 2013 2013 2013 2013 
2013 2013 2013 2013 2013 2013 2013 2013 2013 
2013 2013 2013 2013 2013 2013 2013 2013 2013 
2013 2013 2013 2013 2013 2013 2013 2013 2013 
2013 2013 2013 2013 2013 2013 2013 2013 2013 
2013 2013 2013 2013 2013 2013 2013 2013 2013 
2013 2013 2013 2013 2013 2013 2013 2013 2013 
2013 2013 2013 2013 2013 2013 2013 2013 2013 
2013 2013 2013 2013 2013 2013 2013 2013 2013 
2013 2013 2013 2013 2013 2013 2013 2013 2013 
2013 2013 2013 2013 2013 2013 2013 2013 2013 
2013 2013 2013 2013 2013 2013 2013 2013 2013 
2013 2013 2013 2013 2013 2013 2013 2013 2013 
2013 2013 2013 2013 2013 2013 2013 2013 2013 
2013 2013 2013 2013 2013 2013 2013 2013 2013 
2013 2013 2013 2013 2013 2013 2013 2013 2013 
2013 2013 2013 2013 2013 2013 2013 2013 2013 
2013 2013 2013 2013 2013 2013 2013 2013 2013 
2013 2013 2013 2013 2013 2013 2013 2013 2013 
2013 2013 2013 2013 2013 2013 2013 2013 2013 
2013 2013 2013 2013 2013 2013 2013 2013 2013 
2013 2013 2013 2013 2013 2013 2013 2013 2013 
2013 2013 2013 2013 2013 2013 2013 2013 2013 
2013 2013 2013 2013 2013 2013 2013 2013 2013 
2013 2013 2013 2013 2013 2013 2013 2013 2013 
2013 2013 2013 2013 2013 2013 2013 2013 2013 
2013 2013 2013 2013 2013 2013 2013 2013 2013 
2013 2013 2013 2013 2013 2013 2013 2013 2013 
2013 2013 2013 2013 2013 2013 2013 2013 2013 
2013 2013 2013 2013 2013 2013 2013 2013 2013 
2013 2013 2013 2013 2013 2013 2013 2013 2013 
2013 2013 2013 2013 2013 2013 2013 2013 2013 
2013 2013 2013 2013 2013 2013 2013 2013 2013 
2013 2013 2013 2013 2013 2013 2013 2013 2013 
2013 2013 2013 2013 2013 2013 2013 2013 2013 
2013 2013 2013 2013 2013 2013 2013 2013 2013 
2013 2013 2013 2013 2013 2013 2013 2013 2013 
2013 2013 2013 2013 2013 2013 2013 2013 2013 
2013 2013 2013 2013 2013 2013 2013 2013 2013 
2013 2013 2013 2013 2013 2013 2013 2013 2013 
2013 2013 2013 2013 2013 2013 2013 2013 2013 
2013 2013 2013 2013 2013 2013 2013 2013 2013 
2013 2013 2013 2013 2013 2013 2013 2013 2013 
2013 2013 2013 2013 2013 2013 2013 2013 2013 
2013 2013 2013 2013 2013 2013 2013 2013 2013 
2013 2013 2013 2013 2013 2013 2013 2013 2013 
2013 2013 2013 2013 2013 2013 2013 2013 2013 
2013 2013 2013 2013 2013 2013 2013 2013 2013 
2013 2013 2013 2013 2013 2013 2013 2013 2013 
2013 2013 2013 2013 2013 2013 2013 2013 2013 
2013 2013 2013 2013 2013 2013 2013 2013 2013 
2013 2013 2013 2013 2013 2013 2013 2013 2013 
2013 2013 2013 2013 2013 2013 2013 2013 2013 
2013 2013 2013 2013 2013 2013 2013 2013 2013 
2013 2013 2013 2013 2013 2013 2013 2013 2013 
2013 2013 2013 2013 2013 2013 2013 2013 2013 
2013 2013 2013 2013 2013 2013 2013 2013 2013 
2013 2013 2013 2013 2013 2013 2013 2013 2013 
2013 2013 2013 2013 2013 2013 2013 2013 2013 
2013 2013 2013 2013 2013 2013 2013 2013 2013 