# vtk DataFile Version 4.2
vtk output
ASCII
DATASET POLYDATA
POINTS 1638 float
30.7608 -20.3181 1.71598 30.9013 -19.9226 1.34237 31.174 -20.3077 1.38564 
30.4393 -20.0446 1.48603 31.3137 -20.573 1.67812 31.4723 -20.5401 1.53574 
31.5363 -20.7017 1.55612 30.9416 -20.7151 1.75627 30.2067 -20.3041 1.63358 
30.272 -20.6631 1.72477 29.6913 -20.7514 1.64081 29.6273 -20.3996 1.43602 
29.3241 -20.6609 1.44067 31.3163 -20.8128 1.60034 30.7515 -20.8687 1.47177 
30.0055 -20.9307 1.44935 29.509 -20.8717 1.43508 28.9117 -21.0475 1.38393 
29.0911 -21.2623 1.36023 29.0137 -21.2867 1.59863 28.7692 -21.251 1.47629 
28.8419 -21.4316 1.40862 31.3394 -20.0185 1.17397 31.2881 -19.8095 1.04281 
31.5734 -19.9485 0.892845 30.9231 -19.6792 0.958589 29.9765 -20.0792 1.30016 
30.3565 -19.763 1.04303 29.6094 -20.0984 1.14888 29.6364 -19.7785 0.798679 
29.27 -20.0899 0.908272 31.302 -20.6776 1.43388 31.4133 -20.2948 0.859016 
30.8134 -20.6556 1.15723 30.909 -20.4691 0.971484 30.5249 -20.774 0.82842 
29.1557 -20.8755 1.22168 29.086 -20.4341 1.07817 28.7618 -20.6518 0.978401 
31.4532 -21.0748 0.866016 31.546 -21.3033 0.757343 31.3809 -21.2986 1.01974 
31.2311 -21.2082 0.911673 30.1968 -21.0041 0.984677 29.5981 -21.0566 1.07099 
29.2345 -21.3128 0.948569 28.2952 -21.3657 1.23528 28.4776 -20.9841 1.11389 
27.7593 -21.4222 1.09849 27.837 -20.9911 0.825412 27.4579 -21.2941 0.855391 
31.2431 -21.4564 0.79801 28.8985 -21.5828 1.00869 28.4281 -21.6854 1.07109 
28.1074 -22.0993 0.809747 27.8832 -21.8637 1.11952 27.4617 -21.7515 0.95826 
27.8278 -22.3571 1.02701 27.9122 -22.5009 0.789821 27.5118 -22.4569 0.879684 
27.7601 -22.6285 0.897148 31.3513 -19.5959 0.643076 31.4605 -19.2846 0.140396 
31.7829 -19.557 0.400182 30.6229 -19.4784 0.636456 30.8056 -19.2703 0.235666 
30.007 -19.4882 0.607306 30.1711 -19.2671 0.233455 29.6186 -19.4896 0.520706 
29.6263 -19.3087 0.222734 29.2885 -19.4807 0.296068 31.8622 -19.9579 0.553665 
32.0852 -19.7266 0.245325 32.2021 -20.1632 0.115439 28.7676 -20.1886 0.639949 
29.0547 -19.7758 0.448906 28.2654 -20.2584 0.467816 28.5684 -19.8396 0.297116 
28.1508 -20.0057 0.26001 31.8594 -20.4299 0.445088 31.3384 -20.8022 0.684892 
31.7591 -20.9301 0.455759 30.8177 -20.7594 0.716006 28.3317 -20.6063 0.729533 
27.7546 -20.3243 0.213419 27.9135 -20.6056 0.544318 27.4762 -20.706 0.321414 
31.7711 -21.3485 0.298064 30.8157 -21.3068 0.664641 30.1845 -21.2913 0.648985 
29.5934 -21.3994 0.711108 27.1699 -21.4782 0.600142 27.2861 -21.0372 0.482451 
26.9913 -21.1574 0.154605 31.4836 -21.5564 0.336887 30.9241 -21.5911 0.305507 
30.4554 -21.8445 0.307507 30.214 -21.8848 0.51481 29.5603 -21.9407 0.576169 
29.0853 -21.801 0.666202 28.5731 -21.9993 0.642311 27.1577 -22.0802 0.656978 
26.8735 -21.7307 0.219191 30.1165 -22.211 0.372899 29.8895 -22.4378 0.129497 
29.6922 -22.4195 0.477374 29.0737 -22.3936 0.478336 28.6172 -22.4116 0.324573 
28.3036 -22.2462 0.392152 28.0591 -22.5156 0.403011 27.1328 -22.6362 0.612469 
26.8634 -22.3951 0.350166 29.4649 -22.722 0.29117 29.0133 -22.766 0.178313 
27.7185 -22.8212 0.551038 27.3025 -22.9885 0.529106 27.5373 -23.193 0.238998 
26.9239 -22.9526 0.353055 27.112 -23.3086 0.128947 31.9519 -19.434 0.0995224 
31.9954 -19.2594 -0.393622 32.3314 -19.6801 -0.280522 31.4267 -19.1694 -0.271028 
30.9781 -19.1026 -0.293903 30.3689 -19.0898 -0.196019 29.766 -19.1019 -0.200391 
28.7998 -19.4748 0.0517593 29.158 -19.1725 -0.186603 28.2227 -19.5895 0.00936584 
28.4455 -19.1702 -0.347603 27.7671 -19.6253 -0.118163 27.8183 -19.305 -0.359477 
27.4678 -19.5082 -0.374318 32.35 -20.1172 -0.294644 27.8776 -19.9402 0.0795822 
27.4714 -19.9595 -0.206822 32.088 -20.6643 0.132243 32.2862 -20.6391 -0.304225 
27.1296 -20.7948 0.0660599 27.1662 -20.3958 -0.282115 26.8761 -20.7762 -0.308496 
32.0427 -21.1365 -0.0122086 32.2223 -21.2726 -0.514764 30.6215 -21.3926 -0.000686646 
31.0216 -21.3319 -0.223682 30.7281 -21.0553 -0.476898 30.2635 -21.0498 -0.358543 
30.2314 -21.3988 -0.0948441 29.9231 -21.2474 -0.364879 26.765 -21.2357 -0.218564 
31.8387 -21.5415 -0.261493 31.3585 -21.5381 -0.265833 30.2569 -21.8783 0.124503 
29.9282 -21.8137 -0.217781 26.6343 -21.6407 -0.194994 26.586 -22.1114 -0.0338242 
26.4078 -21.7657 -0.45466 29.7883 -22.3805 -0.285974 28.4389 -22.7152 0.12692 
26.5743 -22.7017 0.0538467 26.265 -22.3677 -0.386453 29.5134 -22.8151 -0.106261 
28.9089 -23.1169 -0.0691589 29.2831 -23.0641 -0.319226 28.4178 -23.1413 -0.00430298 
28.0028 -23.1367 0.0669571 26.6705 -23.151 0.0597794 26.2983 -22.9741 -0.248781 
28.9415 -23.3937 -0.250122 28.6789 -23.6666 -0.474532 28.4717 -23.5366 -0.126892 
28.0499 -23.654 -0.218198 27.5854 -23.4803 -0.271669 27.0605 -23.4445 -0.36839 
26.5327 -23.3492 -0.321776 28.2435 -23.9038 -0.438414 30.6022 -18.8771 -0.614671 
30.6535 -18.7522 -1.0503 30.9529 -18.9374 -0.777585 30.047 -18.8666 -0.572681 
30.2076 -18.6595 -0.973329 29.4412 -18.8715 -0.573866 29.6128 -18.6512 -0.956053 
28.8452 -18.8783 -0.583031 28.9977 -18.6524 -0.957545 28.3482 -18.9055 -0.674652 
28.437 -18.6955 -0.958484 28.0411 -18.8278 -0.970802 32.5649 -19.4212 -0.654611 
32.4545 -19.2987 -0.98091 32.7335 -19.4494 -0.916324 31.9333 -19.1617 -0.989832 
31.3353 -19.1083 -0.834087 27.8202 -19.0621 -0.801448 27.1747 -19.6892 -0.620517 
27.3393 -19.3047 -0.757059 27.0179 -19.5016 -1.0288 32.6369 -19.6194 -0.804666 
32.4277 -19.9958 -0.854288 27.1665 -20.0391 -0.512961 26.873 -19.9498 -0.937537 
32.28 -20.7495 -1.00643 26.5749 -20.8789 -0.640599 26.5841 -20.387 -0.904806 
26.2795 -20.6889 -0.991539 32.2678 -21.3565 -0.997202 31.0866 -21.2901 -0.698232 
30.6479 -21.0611 -1.01113 30.2152 -20.9108 -0.902486 29.6809 -21.0222 -0.839323 
29.4986 -21.4558 -0.617624 29.2255 -21.2074 -0.957614 26.5471 -21.3285 -0.494234 
26.2807 -21.2237 -0.840079 32.0557 -21.5763 -0.819232 31.5459 -21.6052 -0.885878 
29.535 -22.0602 -0.52435 29.0601 -21.5067 -0.843114 29.08 -21.906 -0.715041 
28.7655 -21.8066 -0.912396 26.1605 -21.844 -0.807156 29.4834 -22.6478 -0.471611 
29.0987 -22.5071 -0.665433 28.6875 -22.3328 -0.876608 26.0079 -22.2691 -0.787262 
25.9628 -22.7268 -0.622865 25.7767 -22.4071 -1.04944 29.0822 -23.106 -0.50349 
28.7062 -23.145 -0.869019 26.0401 -23.1533 -0.564812 25.7592 -22.9605 -0.971375 
28.6064 -23.7878 -0.975078 27.882 -23.8016 -0.517502 27.594 -23.6944 -0.822528 
27.1598 -23.4987 -0.953481 26.5594 -23.4424 -0.880399 26.0278 -23.3328 -0.915523 
28.3147 -24.0064 -0.90845 27.8814 -23.9379 -0.92254 30.9073 -18.9363 -1.13814 
30.6196 -18.8391 -1.44503 30.2066 -18.6462 -1.55525 29.6351 -18.5609 -1.46966 
29.0138 -18.563 -1.47369 28.4012 -18.5691 -1.48119 27.664 -18.9022 -1.23041 
27.8502 -18.6774 -1.45429 27.413 -18.8324 -1.58449 32.6306 -19.5513 -1.06498 
32.3572 -19.5538 -1.34949 31.9726 -19.2733 -1.54297 31.4109 -19.1576 -1.49582 
30.8947 -19.052 -1.51518 27.166 -19.1226 -1.44311 26.7927 -19.5226 -1.47502 
32.2093 -20.037 -1.43355 26.5008 -19.7801 -1.58362 26.5724 -20.0733 -1.22249 
26.2648 -20.0938 -1.48883 31.9367 -20.3818 -1.58463 32.0686 -20.7806 -1.34772 
31.7546 -20.651 -1.59609 25.9829 -20.8813 -1.23776 26.0769 -20.4269 -1.34144 
25.7874 -20.5683 -1.6553 31.9201 -20.9523 -1.53092 32.1807 -21.1734 -1.3277 
30.9318 -21.5065 -1.15786 30.4871 -21.2807 -1.39725 30.1161 -21.0372 -1.54364 
29.6089 -20.9172 -1.48852 29.1063 -21.0106 -1.36171 28.7683 -21.3662 -1.13978 
28.4495 -20.9465 -1.64264 28.3495 -21.4164 -1.31797 28.0671 -21.2744 -1.54655 
25.9711 -21.4584 -1.17897 25.7589 -21.1347 -1.58601 31.9578 -21.6129 -1.29167 
31.4091 -21.8468 -1.29305 31.6773 -21.864 -1.54453 30.939 -21.9505 -1.3448 
30.5394 -21.7396 -1.48004 28.4182 -21.955 -1.15367 28.0647 -21.8187 -1.51296 
25.9287 -21.955 -1.08416 25.6662 -21.8239 -1.51513 31.2188 -22.1164 -1.54932 
30.6572 -22.1462 -1.64606 28.3789 -22.6656 -1.15357 28.1653 -22.3884 -1.44391 
25.5665 -22.6042 -1.47888 28.4477 -23.1835 -1.28481 28.2256 -22.921 -1.57265 
25.7206 -23.1402 -1.37806 28.4374 -23.3989 -1.72636 28.5778 -23.6616 -1.46977 
27.4857 -23.7261 -1.34686 27.0804 -23.5035 -1.67271 26.5695 -23.4211 -1.50867 
26.0363 -23.3571 -1.47946 28.3488 -23.9989 -1.52027 27.8893 -23.9791 -1.50885 
30.025 -18.7123 -2.21049 30.4517 -18.8859 -1.89604 29.5907 -18.5752 -2.09035 
28.9957 -18.5669 -2.07265 28.3736 -18.5652 -2.09596 27.7769 -18.5749 -2.08659 
27.1686 -18.8706 -1.81384 27.3331 -18.6992 -1.98648 26.9287 -18.9046 -2.21747 
32.0316 -19.66 -1.78395 31.7201 -19.5385 -2.1281 31.3387 -19.2841 -2.1412 
30.7506 -19.1179 -2.12607 26.5604 -19.4929 -1.82771 26.6023 -19.2459 -2.08313 
26.2656 -19.4847 -2.12045 31.9948 -20.0065 -1.77458 31.7273 -20.024 -2.11413 
25.9161 -20.1713 -1.74397 26.0582 -19.82 -1.95922 25.7502 -20.0364 -2.18222 
31.5089 -20.4634 -1.98764 31.4977 -20.9091 -1.83109 31.2322 -20.6932 -2.23666 
28.3673 -20.6406 -1.90529 28.5888 -20.6964 -2.03373 28.3367 -20.5261 -2.26675 
28.0681 -20.651 -2.05262 25.6677 -20.6496 -2.11014 31.8237 -21.4113 -1.6473 
31.409 -21.4308 -1.88173 31.1401 -21.1573 -2.14682 30.1857 -21.4659 -1.74283 
29.8737 -21.2766 -2.01965 29.5138 -21.0485 -2.14804 28.9978 -20.8775 -2.01803 
27.873 -20.995 -1.88857 27.7692 -21.4645 -1.78785 27.5706 -21.1489 -2.22627 
25.5759 -21.2215 -2.11362 31.4208 -21.8866 -1.78999 31.0708 -21.7539 -2.0826 
30.2544 -21.9237 -1.79462 29.9134 -21.7192 -2.09123 27.8122 -21.9421 -1.84503 
27.4642 -21.8177 -2.23848 25.4079 -21.6675 -1.98336 25.3473 -22.1264 -1.80833 
25.1762 -21.7991 -2.23175 30.8216 -22.1727 -2.00629 30.1563 -22.1533 -2.15441 
27.7513 -22.2526 -2.1685 28.0127 -22.5114 -1.95106 25.3816 -22.5945 -1.85669 
25.1682 -22.3259 -2.14502 28.192 -23.2193 -2.15495 25.6778 -23.0388 -1.87392 
25.4451 -22.7792 -2.26761 28.4315 -23.5224 -2.09139 28.5315 -23.6996 -1.98711 
27.53 -23.7363 -1.94913 27.2077 -23.495 -2.3178 26.6723 -23.4083 -2.03922 
26.1696 -23.306 -2.11739 28.4225 -23.9089 -1.98791 28.0213 -23.9298 -2.06769 
30.2688 -18.9357 -2.35066 29.9743 -18.8428 -2.65079 29.5622 -18.6624 -2.76506 
28.9709 -18.5967 -2.69324 28.3556 -18.6037 -2.7136 27.7431 -18.5898 -2.72342 
[...]
CELL_DATA 3280
SCALARS scalars float
LOOKUP_TABLE default
2034 2034 2034 2034 2034 2034 2034 2034 2034 
2034 2034 2034 2034 2034 2034 2034 2034 2034 
2034 2034 2034 2034 2034 2034 2034 2034 2034 
2034 2034 2034 2034 2034 2034 2034 2034 2034 
2034 2034 2034 2034 2034 2034 2034 2034 2034 
2034 2034 2034 2034 2034 2034 2034 2034 2034 
2034 2034 2034 2034 2034 2034 2034 2034 2034 
2034 2034 2034 2034 2034 2034 2034 2034 2034 
2034 2034 2034 2034 2034 2034 2034 2034 2034 
2034 2034 2034 2034 2034 2034 2034 2034 2034 
2034 2034 2034 2034 2034 2034 2034 2034 2034 
2034 2034 2034 2034 2034 2034 2034 2034 2034 
2034 2034 2034 2034 2034 2034 2034 2034 2034 
2034 2034 2034 2034 2034 2034 2034 2034 2034 
2034 2034 2034 2034 2034 2034 2034 2034 2034 
2034 2034 2034 2034 2034 2034 2034 2034 2034 
2034 2034 2034 2034 2034 2034 2034 2034 2034 
2034 2034 2034 2034 2034 2034 2034 2034 2034 
2034 2034 2034 2034 2034 2034 2034 2034 2034 
2034 2034 2034 2034 2034 2034 2034 2034 2034 
2034 2034 2034 2034 2034 2034 2034 2034 2034 
2034 2034 2034 2034 2034 2034 2034 2034 2034 
2034 2034 2034 2034 2034 2034 2034 2034 2034 
2034 2034 2034 2034 2034 2034 2034 2034 2034 
2034 2034 2034 2034 2034 2034 2034 2034 2034 
2034 2034 2034 2034 2034 2034 2034 2034 2034 
2034 2034 2034 2034 2034 2034 2034 2034 2034 
2034 2034 2034 2034 2034 2034 2034 2034 2034 
2034 2034 2034 2034 2034 2034 2034 2034 2034 
2034 2034 2034 2034 2034 2034 2034 2034 2034 
2034 2034 2034 2034 2034 2034 2034 2034 2034 
2034 2034 2034 2034 2034 2034 2034 2034 2034 
2034 2034 2034 2034 2034 2034 2034 2034 2034 
2034 2034 2034 2034 2034 2034 2034 2034 2034 
2034 2034 2034 2034 2034 2034 2034 2034 2034 
2034 2034 2034 2034 2034 2034 2034 2034 2034 
2034 2034 2034 2034 2034 2034 2034 2034 2034 
2034 2034 2034 2034 2034 2034 2034 2034 2034 
2034 2034 2034 2034 2034 2034 2034 2034 2034 
2034 2034 2034 2034 2034 2034 2034 2034 2034 
2034 2034 2034 2034 2034 2034 2034 2034 2034 
2034 2034 2034 2034 2034 2034 2034 2034 2034 
2034 2034 2034 2034 2034 2034 2034 2034 2034 
2034 2034 2034 2034 2034 2034 2034 2034 2034 
2034 2034 2034 2034 2034 2034 2034 2034 2034 
2034 2034 2034 2034 2034 2034 2034 2034 2034 
2034 2034 2034 2034 2034 2034 2034 2034 2034 
2034 2034 2034 2034 2034 2034 2034 2034 2034 
2034 2034 2034 2034 2034 2034 2034 2034 2034 
2034 2034 2034 2034 2034 2034 2034 2034 2034 
2034 2034 2034 2034 2034 2034 2034 2034 2034 
2034 2034 2034 2034 2034 2034 2034 2034 2034 
2034 2034 2034 2034 2034 2034 2034 2034 2034 
2034 2034 2034 2034 2034 2034 2034 2034 2034 
2034 2034 2034 2034 2034 2034 2034 2034 2034 
2034 2034 2034 2034 2034 2034 2034 2034 2034 
2034 2034 2034 2034 2034 2034 2034 2034 2034 
2034 2034 2034 2034 2034 2034 2034 2034 2034 
2034 2034 2034 2034 2034 2034 2034 2034 2034 
2034 2034 2034 2034 2034 2034 2034 2034 2034 
2034 2034 2034 2034 2034 2034 2034 2034 2034 
2034 2034 2034 2034 2034 2034 2034 2034 2034 
2034 2034 2034 2034 2034 2034 2034 2034 2034 
2034 2034 2034 2034 2034 2034 2034 2034 2034 
2034 2034 2034 2034 2034 2034 2034 2034 2034 
2034 2034 2034 2034 2034 2034 2034 2034 2034 
2034 2034 2034 2034 2034 2034 2034 2034 2034 
2034 2034 2034 2034 2034 2034 2034 2034 2034 
2034 2034 2034 2034 2034 2034 2034 2034 2034 
2034 2034 2034 2034 2034 2034 2034 2034 2034 
2034 2034 2034 2034 2034 2034 2034 2034 2034 
2034 2034 2034 2034 2034 2034 2034 2034 2034 
2034 2034 2034 2034 2034 2034 2034 2034 2034 
2034 2034 2034 2034 2034 2034 2034 2034 2034 
2034 2034 2034 2034 2034 2034 2034 2034 2034 
2034 2034 2034 2034 2034 2034 2034 2034 2034 
2034 2034 2034 2034 2034 2034 2034 2034 2034 
2034 2034 2034 2034 2034 2034 2034 2034 2034 
2034 2034 2034 2034 2034 2034 2034 2034 2034 
2034 2034 2034 2034 2034 2034 2034 2034 2034 
2034 2034 2034 2034 2034 2034 2034 2034 2034 
2034 2034 2034 2034 2034 2034 2034 2034 2034 
2034 2034 2034 2034 2034 2034 2034 2034 2034 
2034 2034 2034 2034 2034 2034 2034 2034 2034 
2034 2034 2034 2034 2034 2034 2034 2034 2034 
2034 2034 2034 2034 2034 2034 2034 2034 2034 
2034 2034 2034 2034 2034 2034 2034 2034 2034 
2034 2034 2034 2034 2034 2034 2034 2034 2034 
2034 2034 2034 2034 2034 2034 2034 2034 2034 
2034 2034 2034 2034 2034 2034 2034 2034 2034 
2034 2034 2034 2034 2034 2034 2034 2034 2034 
2034 2034 2034 2034 2034 2034 2034 2034 2034 
2034 2034 2034 2034 2034 2034 2034 2034 2034 
2034 2034 2034 2034 2034 2034 2034 2034 2034 
2034 2034 2034 2034 2034 2034 2034 2034 2034 
2034 2034 2034 2034 2034 2034 2034 2034 2034 
2034 2034 2034 2034 2034 2034 2034 2034 2034 
2034 2034 2034 2034 2034 2034 2034 2034 2034 
2034 2034 2034 2034 2034 2034 2034 2034 2034 
2034 2034 2034 2034 2034 2034 2034 2034 2034 
2034 2034 2034 2034 2034 2034 2034 2034 2034 
2034 2034 2034 2034 2034 2034 2034 2034 2034 
2034 2034 2034 2034 2034 2034 2034 2034 2034 
2034 2034 2034 2034 2034 2034 2034 2034 2034 
2034 2034 2034 2034 2034 2034 2034 2034 2034 
2034 2034 2034 2034 2034 2034 2034 2034 2034 
2034 2034 2034 2034 2034 2034 2034 2034 2034 
2034 2034 2034 2034 2034 2034 2034 2034 2034 
2034 2034 2034 2034 2034 2034 2034 2034 2034 
2034 2034 2034 2034 2034 2034 2034 2034 2034 
2034 2034 2034 2034 2034 2034 2034 2034 2034 
2034 2034 2034 2034 2034 2034 2034 2034 2034 
2034 2034 2034 2034 2034 2034 2034 2034 2034 
2034 2034 2034 2034 2034 2034 2034 2034 2034 
2034 2034 2034 2034 2034 2034 2034 2034 2034 
2034 2034 2034 2034 2034 2034 2034 2034 2034 
2034 2034 2034 2034 2034 2034 2034 2034 2034 
2034 2034 2034 2034 2034 2034 2034 2034 2034 
2034 2034 2034 2034 2034 2034 2034 2034 2034 
2034 2034 2034 2034 2034 2034 2034 2034 2034 
2034 2034 2034 2034 2034 2034 2034 2034 2034 
2034 2034 2034 2034 2034 2034 2034 2034 2034 
2034 2034 2034 2034 2034 2034 2034 2034 2034 
2034 2034 2034 2034 2034 2034 2034 2034 2034 
2034 2034 2034 2034 2034 2034 2034 2034 2034 
2034 2034 2034 2034 2034 2034 2034 2034 2034 
2034 2034 2034 2034 2034 2034 2034 2034 2034 
2034 2034 2034 2034 2034 2034 2034 2034 2034 
2034 2034 2034 2034 2034 2034 2034 2034 2034 
2034 2034 2034 2034 2034 2034 2034 2034 2034 
2034 2034 2034 2034 2034 2034 2034 2034 2034 
2034 2034 2034 2034 2034 2034 2034 2034 2034 
2034 2034 2034 2034 2034 2034 2034 2034 2034 
2034 2034 2034 2034 2034 2034 2034 2034 2034 
2034 2034 2034 2034 2034 2034 2034 2034 2034 
2034 2034 2034 2034 2034 2034 2034 2034 2034 
2034 2034 2034 2034 2034 2034 2034 2034 2034 
2034 2034 2034 2034 2034 2034 2034 2034 2034 
2034 2034 2034 2034 2034 2034 2034 2034 2034 
2034 2034 2034 2034 2034 2034 2034 2034 2034 
2034 2034 2034 2034 2034 2034 2034 2034 2034 
2034 2034 2034 2034 2034 2034 2034 2034 2034 
2034 2034 2034 2034 2034 2034 2034 2034 2034 
2034 2034 2034 2034 2034 2034 2034 2034 2034 
2034 2034 2034 2034 2034 2034 2034 2034 2034 
2034 2034 2034 2034 2034 2034 2034 2034 2034 
2034 2034 2034 2034 2034 2034 2034 2034 2034 
2034 2034 2034 2034 2034 2034 2034 2034 2034 
2034 2034 2034 2034 2034 2034 2034 2034 2034 
2034 2034 2034 2034 2034 2034 2034 2034 2034 
2034 2034 2034 2034 2034 2034 2034 2034 2034 
2034 2034 2034 2034 2034 2034 2034 2034 2034 
2034 2034 2034 2034 2034 2034 2034 2034 2034 
2034 2034 2034 2034 2034 2034 2034 2034 2034 
2034 2034 2034 2034 2034 2034 2034 2034 2034 
2034 2034 2034 2034 2034 2034 2034 2034 2034 
2034 2034 2034 2034 2034 2034 2034 2034 2034 
2034 2034 2034 2034 2034 2034 2034 2034 2034 
2034 2034 2034 2034 2034 2034 2034 2034 2034 
2034 2034 2034 2034 2034 2034 2034 2034 2034 
2034 2034 2034 2034 2034 2034 2034 2034 2034 
2034 2034 2034 2034 2034 2034 2034 2034 2034 
2034 2034 2034 2034 2034 2034 2034 2034 2034 
2034 2034 2034 2034 2034 2034 2034 2034 2034 
2034 2034 2034 2034 2034 2034 2034 2034 2034 
2034 2034 2034 2034 2034 2034 2034 2034 2034 
2034 2034 2034 2034 2034 2034 2034 2034 2034 
2034 2034 2034 2034 2034 2034 2034 2034 2034 
2034 2034 2034 2034 2034 2034 2034 2034 2034 
2034 2034 2034 2034 2034 2034 2034 2034 2034 
2034 2034 2034 2034 2034 2034 2034 2034 2034 
2034 2034 2034 2034 2034 2034 2034 2034 2034 
2034 2034 2034 2034 2034 2034 2034 2034 2034 
2034 2034 2034 2034 2034 2034 2034 2034 2034 
2034 2034 2034 2034 2034 2034 2034 2034 2034 
2034 2034 2034 2034 2034 2034 2034 2034 2034 
2034 2034 2034 2034 2034 2034 2034 2034 2034 
2034 2034 2034 2034 2034 2034 2034 2034 2034 
2034 2034 2034 2034 2034 2034 2034 2034 2034 
2034 2034 2034 2034 2034 2034 2034 2034 2034 
2034 2034 2034 2034 2034 2034 2034 2034 2034 
2034 2034 2034 2034 2034 2034 2034 2034 2034 
2034 2034 2034 2034 2034 2034 2034 2034 2034 
2034 2034 2034 2034 2034 2034 2034 2034 2034 
2034 2034 2034 2034 2034 2034 2034 2034 2034 
2034 2034 2034 2034 2034 2034 2034 2034 2034 
2034 2034 2034 2034 2034 2034 2034 2034 2034 
2034 2034 2034 2034 2034 2034 2034 2034 2034 
2034 2034 2034 2034 2034 2034 2034 2034 2034 
2034 2034 2034 2034 2034 2034 2034 2034 2034 
2034 2034 2034 2034 2034 2034 2034 2034 2034 
2034 2034 2034 2034 2034 2034 2034 2034 2034 
2034 2034 2034 2034 2034 2034 2034 2034 2034 
2034 2034 2034 2034 2034 2034 2034 2034 2034 
2034 2034 2034 2034 2034 2034 2034 2034 2034 
2034 2034 2034 2034 2034 2034 2034 2034 2034 
2034 2034 2034 2034 2034 2034 2034 2034 2034 
2034 2034 2034 2034 2034 2034 2034 2034 2034 
2034 2034 2034 2034 2034 2034 2034 2034 2034 
2034 2034 2034 2034 2034 2034 2034 2034 2034 
2034 2034 2034 2034 2034 2034 2034 2034 2034 
2034 2034 2034 2034 2034 2034 2034 2034 2034 
2034 2034 2034 2034 2034 2034 2034 2034 2034 
2034 2034 2034 2034 2034 2034 2034 2034 2034 
2034 2034 2034 2034 2034 2034 2034 2034 2034 
2034 2034 2034 2034 2034 2034 2034 2034 2034 
2034 2034 2034 2034 2034 2034 2034 2034 2034 
2034 2034 2034 2034 2034 2034 2034 2034 2034 
2034 2034 2034 2034 2034 2034 2034 2034 2034 
2034 2034 2034 2034 2034 2034 2034 2034 2034 
2034 2034 2034 2034 2034 2034 2034 2034 2034 
2034 2034 2034 2034 2034 2034 2034 2034 2034 
2034 2034 2034 2034 2034 2034 2034 2034 2034 
2034 2034 2034 2034 2034 2034 2034 2034 2034 
2034 2034 2034 2034 2034 2034 2034 2034 2034 
2034 2034 2034 2034 2034 2034 2034 2034 2034 
2034 2034 2034 2034 2034 2034 2034 2034 2034 
2034 2034 2034 2034 2034 2034 2034 2034 2034 
2034 2034 2034 2034 2034 2034 2034 2034 2034 
2034 2034 2034 2034 2034 2034 2034 2034 2034 
2034 2034 2034 2034 2034 2034 2034 2034 2034 
2034 2034 2034 2034 2034 2034 2034 2034 2034 
2034 2034 2034 2034 2034 2034 2034 2034 2034 
2034 2034 2034 2034 2034 2034 2034 2034 2034 
2034 2034 2034 2034 2034 2034 2034 2034 2034 
2034 2034 2034 2034 2034 2034 2034 2034 2034 
2034 2034 2034 2034 2034 2034 2034 2034 2034 
2034 2034 2034 2034 2034 2034 2034 2034 2034 
2034 2034 2034 2034 2034 2034 2034 2034 2034 
2034 2034 2034 2034 2034 2034 2034 2034 2034 
2034 2034 2034 2034 2034 2034 2034 2034 2034 
2034 2034 2034 2034 2034 2034 2034 2034 2034 
2034 2034 2034 2034 2034 2034 2034 2034 2034 
2034 2034 2034 2034 2034 2034 2034 2034 2034 
2034 2034 2034 2034 2034 2034 2034 2034 2034 
2034 2034 2034 2034 2034 2034 2034 2034 2034 
2034 2034 2034 2034 2034 2034 2034 2034 2034 
2034 2034 2034 2034 2034 2034 2034 2034 2034 
2034 2034 2034 2034 2034 2034 2034 2034 2034 
2034 2034 2034 2034 2034 2034 2034 2034 2034 
2034 2034 2034 2034 2034 2034 2034 2034 2034 
2034 2034 2034 2034 2034 2034 2034 2034 2034 
2034 2034 2034 2034 2034 2034 2034 2034 2034 
2034 2034 2034 2034 2034 2034 2034 2034 2034 
2034 2034 2034 2034 2034 2034 2034 2034 2034 
2034 2034 2034 2034 2034 2034 2034 2034 2034 
2034 2034 2034 2034 2034 2034 2034 2034 2034 
2034 2034 2034 2034 2034 2034 2034 2034 2034 
2034 2034 2034 2034 2034 2034 2034 2034 2034 
2034 2034 2034 2034 2034 2034 2034 2034 2034 
2034 2034 2034 2034 2034 2034 2034 2034 2034 
2034 2034 2034 2034 2034 2034 2034 2034 2034 
2034 2034 2034 2034 2034 2034 2034 2034 2034 
2034 2034 2034 2034 2034 2034 2034 2034 2034 
2034 2034 2034 2034 2034 2034 2034 2034 2034 
2034 2034 2034 2034 2034 2034 2034 2034 2034 
2034 2034 2034 2034 2034 2034 2034 2034 2034 
2034 2034 2034 2034 2034 2034 2034 2034 2034 
2034 2034 2034 2034 2034 2034 2034 2034 2034 
2034 2034 2034 2034 2034 2034 2034 2034 2034 
2034 2034 2034 2034 2034 2034 2034 2034 2034 
2034 2034 2034 2034 2034 2034 2034 2034 2034 
2034 2034 2034 2034 2034 2034 2034 2034 2034 
2034 2034 2034 2034 2034 2034 2034 2034 2034 
2034 2034 2034 2034 2034 2034 2034 2034 2034 
2034 2034 2034 2034 2034 2034 2034 2034 2034 
2034 2034 2034 2034 2034 2034 2034 2034 2034 
2034 2034 2034 2034 2034 2034 2034 2034 2034 
2034 2034 2034 2034 2034 2034 2034 2034 2034 
2034 2034 2034 2034 2034 2034 2034 2034 2034 
2034 2034 2034 2034 2034 2034 2034 2034 2034 
2034 2034 2034 2034 2034 2034 2034 2034 2034 
2034 2034 2034 2034 2034 2034 2034 2034 2034 
2034 2034 2034 2034 2034 2034 2034 2034 2034 
2034 2034 2034 2034 2034 2034 2034 2034 2034 
2034 2034 2034 2034 2034 2034 2034 2034 2034 
2034 2034 2034 2034 2034 2034 2034 2034 2034 
2034 2034 2034 2034 2034 2034 2034 2034 2034 
2034 2034 2034 2034 2034 2034 2034 2034 2034 
2034 2034 2034 2034 2034 2034 2034 2034 2034 
2034 2034 2034 2034 2034 2034 2034 2034 2034 
2034 2034 2034 2034 2034 2034 2034 2034 2034 
2034 2034 2034 2034 2034 2034 2034 2034 2034 
2034 2034 2034 2034 2034 2034 2034 2034 2034 
2034 2034 2034 2034 2034 2034 2034 2034 2034 
2034 2034 2034 2034 2034 2034 2034 2034 2034 
2034 2034 2034 2034 2034 2034 2034 2034 2034 
2034 2034 2034 2034 2034 2034 2034 2034 2034 
2034 2034 2034 2034 2034 2034 2034 2034 2034 
2034 2034 2034 2034 2034 2034 2034 2034 2034 
2034 2034 2034 2034 2034 2034 2034 2034 2034 
2034 2034 2034 2034 2034 2034 2034 2034 2034 
2034 2034 2034 2034 2034 2034 2034 2034 2034 
2034 2034 2034 2034 2034 2034 2034 2034 2034 
2034 2034 2034 2034 2034 2034 2034 2034 2034 
2034 2034 2034 2034 2034 2034 2034 2034 2034 
2034 2034 2034 2034 2034 2034 2034 2034 2034 
2034 2034 2034 2034 2034 2034 2034 2034 2034 
2034 2034 2034 2034 2034 2034 2034 2034 2034 
2034 2034 2034 2034 2034 2034 2034 2034 2034 
2034 2034 2034 2034 2034 2034 2034 2034 2034 
2034 2034 2034 2034 2034 2034 2034 2034 2034 
2034 2034 2034 2034 2034 2034 2034 2034 2034 
2034 2034 2034 2034 2034 2034 2034 2034 2034 
2034 2034 2034 2034 2034 2034 2034 2034 2034 
2034 2034 2034 2034 2034 2034 2034 2034 2034 
2034 2034 2034 2034 2034 2034 2034 2034 2034 
2034 2034 2034 2034 2034 2034 2034 2034 2034 
2034 2034 2034 2034 2034 2034 2034 2034 2034 
2034 2034 2034 2034 2034 2034 2034 2034 2034 
2034 2034 2034 2034 2034 2034 2034 2034 2034 
2034 2034 2034 2034 2034 2034 2034 2034 2034 
2034 2034 2034 2034 2034 2034 2034 2034 2034 
2034 2034 2034 2034 2034 2034 2034 2034 2034 
2034 2034 2034 2034 2034 2034 2034 2034 2034 
2034 2034 2034 2034 2034 2034 2034 2034 2034 
2034 2034 2034 2034 2034 2034 2034 2034 2034 
2034 2034 2034 2034 2034 2034 2034 2034 2034 
2034 2034 2034 2034 2034 2034 2034 2034 2034 
2034 2034 2034 2034 2034 2034 2034 2034 2034 
2034 2034 2034 2034 2034 2034 2034 2034 2034 
2034 2034 2034 2034 2034 2034 2034 2034 2034 
2034 2034 2034 2034 2034 2034 2034 2034 2034 
2034 2034 2034 2034 2034 2034 2034 2034 2034 
2034 2034 2034 2034 2034 2034 2034 2034 2034 
2034 2034 2034 2034 2034 2034 2034 2034 2034 
2034 2034 2034 2034 2034 2034 2034 2034 2034 
2034 2034 2034 2034 2034 2034 2034 2034 2034 
2034 2034 2034 2034 2034 2034 2034 2034 2034 
2034 2034 2034 2034 2034 2034 2034 2034 2034 
2034 2034 2034 2034 2034 2034 2034 2034 2034 
2034 2034 2034 2034 2034 2034 2034 2034 2034 
2034 2034 2034 2034 2034 2034 2034 2034 2034 
2034 2034 2034 2034 2034 2034 2034 2034 2034 
2034 2034 2034 2034 2034 2034 2034 2034 2034 
2034 2034 2034 2034 2034 2034 2034 2034 2034 
2034 2034 2034 2034 2034 2034 2034 2034 2034 
2034 2034 2034 2034 2034 2034 2034 2034 2034 
2034 2034 2034 2034 2034 2034 2034 2034 2034 
2034 2034 2034 2034 2034 2034 2034 2034 2034 
2034 2034 2034 2034 2034 2034 2034 2034 2034 
2034 2034 2034 2034 2034 2034 2034 2034 2034 
2034 2034 2034 2034 2034 2034 2034 2034 2034 
2034 2034 2034 2034 2034 2034 2034 2034 2034 
2034 2034 2034 2034 2034 2034 2034 2034 2034 
2034 2034 2034 2034 2034 2034 2034 2034 2034 
2034 2034 2034 2034 2034 2034 2034 2034 2034 
2034 2034 2034 2034 2034 2034 2034 2034 2034 
2034 2034 2034 2034 2034 2034 2034 2034 2034 
2034 2034 2034 2034 2034 2034 2034 2034 2034 
2034 2034 2034 2034 2034 2034 2034 2034 2034 
2034 2034 2034 2034 2034 2034 2034 2034 2034 
2034 2034 2034 2034 2034 2034 2034 2034 2034 
2034 2034 2034 2034 2034 2034 2034 2034 2034 
2034 2034 2034 2034 2034 2034 2034 2034 2034 
2034 2034 2034 2034 2034 2034 2034 2034 2034 
2034 2034 2034 2034 2034 2034 2034 2034 2034 
2034 2034 2034 2034 2034 2034 2034 2034 2034 
2034 2034 2034 2034 2034 2034 2034 2034 2034 
2034 2034 2034 2034 2034 2034 2034 2034 2034 
2034 2034 2034 2034 2034 2034 2034 2034 2034 
2034 2034 2034 2034 2034 2034 2034 2034 2034 
2034 2034 2034 2034 2034 2034 2034 2034 2034 
2034 2034 2034 2034 2034 2034 2034 2034 2034 
2034 2034 2034 2034 
