# vtk DataFile Version 4.2
vtk output
ASCII
DATASET POLYDATA
POINTS 4080 float
5.67586 -2.49832 64.7706 5.59672 -2.30649 64.4115 5.51585 -2.56054 64.4331 
5.8388 -2.42908 64.3781 5.75795 -2.68313 64.3997 7.65895 -1.44921 63.6803 
7.75108 -1.22931 63.274 7.45846 -1.46728 63.51 8.20396 -1.56078 63.2606 
5.773 -2.21332 63.4416 5.42012 -2.40782 63.7835 6.1957 -2.62307 63.3922 
7.57365 -1.92116 63.2883 5.52566 -2.94745 63.4972 4.94289 6.23691 62.732 
4.50264 6.75939 62.4156 4.23986 6.1973 62.5093 5.0924 6.64354 62.4139 
4.84232 5.49396 62.9006 4.18099 5.27035 62.5246 5.62111 6.15889 62.5601 
5.83875 5.48562 62.9082 7.03089 5.31178 62.8912 6.45525 5.97177 62.4834 
8.0428 5.29396 62.8804 7.48215 5.95984 62.4735 8.76268 5.24045 62.7603 
8.42124 5.90182 62.4874 9.09121 5.56353 62.4313 4.80792 4.50174 62.9114 
4.20443 4.24864 62.5238 5.66931 4.51321 63.0491 6.71159 4.47096 63.0546 
7.74716 4.43129 63.0403 8.6303 4.46801 62.889 9.27966 4.74143 62.5236 
4.69706 3.61406 62.8689 4.21339 3.189 62.5488 5.41398 3.43948 62.9086 
6.421 3.60865 62.8917 7.44212 3.5824 62.891 8.39168 3.58367 62.8103 
9.19424 3.77651 62.5189 4.79798 2.5373 62.8213 4.17099 2.12732 62.5623 
5.36715 2.51666 62.6214 6.03193 2.86538 62.5093 7.0034 2.93378 62.4974 
8.0227 2.92882 62.5092 8.84975 3.09022 62.4308 4.60003 1.61509 62.7156 
4.16698 1.38171 62.4097 5.13088 1.77655 62.5262 4.79244 1.12817 62.1901 
7.93113 -1.1472 62.3672 7.32896 -1.69808 62.6301 9.0706 -1.54549 62.9706 
8.49861 -1.07537 62.7745 9.71856 -1.7338 62.7927 9.36542 -0.998695 62.4357 
9.98224 -1.32031 62.2714 11.6797 -1.47549 62.6668 11.7501 -1.28869 62.2185 
11.4514 -1.52679 62.4734 12.104 -1.41244 62.4181 5.90069 -2.21508 62.4583 
5.31803 -2.67929 62.6113 6.97371 -2.34246 62.943 6.517 -2.18207 62.6159 
7.50233 -2.57256 62.8147 8.13044 -2.3093 62.7815 8.82761 -2.13474 62.781 
9.20346 -2.87641 62.5571 9.58075 -2.4824 62.819 10.1708 -2.41692 62.2607 
11.6034 -1.83888 62.3604 4.72654 -3.54023 62.9152 4.72246 -3.1994 62.3576 
4.22935 -3.78316 62.335 5.39654 -3.82149 62.9026 6.15598 -3.15414 62.3829 
6.90282 -2.78192 62.5135 7.73214 -2.83147 62.2662 9.66754 -3.33791 62.7217 
9.4422 -3.64787 62.4622 10.0089 -3.49694 62.3946 3.87907 -4.27537 62.7221 
3.63818 -4.31695 62.3592 3.46323 -4.54783 62.4875 4.56624 -4.41775 62.8057 
5.25245 -4.45499 62.5913 5.8673 -3.99875 62.4311 9.80973 -4.01049 62.368 
3.85041 -4.7035 62.4444 4.66042 -4.85521 62.3284 3.8787 -6.48807 62.7539 
3.62206 -6.02326 62.3964 3.31588 -6.64185 62.2299 4.45757 -6.62821 62.7614 
4.32971 -6.08095 62.537 4.94675 -6.40296 62.4812 3.99242 -6.99531 62.5984 
4.76631 -6.90433 62.5146 5.8093 10.3291 61.86 5.74939 10.959 61.5522 
5.17379 10.55 61.5206 6.91011 10.4103 61.9065 6.54389 11.0466 61.4346 
7.96416 10.3769 61.9211 7.6456 10.9105 61.4082 8.90091 10.2581 61.8449 
8.61304 10.8342 61.3819 9.28062 10.6344 61.3789 4.84606 9.46962 61.8443 
4.48619 9.95014 61.4491 4.04954 9.3349 61.5825 5.78704 9.36745 61.9987 
6.64493 9.51287 62.0265 7.67983 9.52515 62.0639 8.69328 9.47015 62.043 
9.56239 10.1155 61.6046 9.54589 9.42992 61.8227 10.0558 9.62371 61.4594 
3.98018 8.52918 61.8162 3.47502 8.87781 61.4537 3.18928 8.12667 61.4984 
4.83003 8.33857 61.9649 5.65446 8.48895 61.9592 6.64769 8.48535 61.9773 
7.67139 8.48841 62.0008 8.51415 8.62471 62.0227 9.35901 8.41712 61.8099 
10.1111 8.80813 61.4737 3.66736 7.64077 61.8322 3.1376 7.18533 61.509 
4.6206 7.3723 62.0766 5.69281 7.45505 61.9596 6.70613 7.4719 61.9302 
7.7424 7.45342 61.9547 8.85391 7.48907 61.8646 9.43318 7.59704 61.5311 
9.86403 8.02965 61.3831 3.81481 6.78197 62.0029 3.16762 6.1952 61.5017 
5.75115 6.61494 62.1758 6.71909 6.59424 62.073 7.73068 6.59852 62.0923 
8.81587 6.39947 62.0915 9.54197 7.03816 61.5194 9.76748 6.332 61.7856 
10.0908 6.61675 61.3843 3.67842 5.77184 62.0009 3.17422 5.18595 61.4866 
9.77739 5.3288 62.1073 10.5297 6.03761 61.5217 10.5955 5.39042 61.7658 
11.0596 5.53579 61.4019 3.68546 4.75687 61.9915 3.18632 4.17783 61.4992 
9.91981 4.16019 62.1541 10.6428 4.4466 61.8494 11.2631 4.71664 61.4737 
3.70224 3.72743 62.0168 3.17005 3.16233 61.5164 9.69309 3.11326 62.1117 
10.6219 3.43422 61.8453 11.288 3.73091 61.4984 3.67205 2.67549 62.044 
3.13902 2.13513 61.339 5.70093 2.19506 62.273 6.562 2.18521 61.9819 
7.71185 2.31862 62.143 8.74652 2.52103 62.1524 9.5068 2.20294 61.8792 
10.4073 2.55007 61.7709 11.1773 2.7966 61.4726 3.65859 1.72172 61.9892 
3.3871 1.41432 61.3133 5.67356 1.55951 61.9821 6.31398 1.40167 61.3198 
6.80796 1.73955 61.5192 7.10844 1.41701 61.3242 7.44796 1.72924 61.7702 
8.50709 1.69381 61.8266 9.2669 1.56461 61.6032 10.0341 1.83992 61.5202 
10.8223 2.10724 61.4007 3.94526 1.09367 61.7652 4.64714 0.736007 61.4359 
5.53446 0.906185 61.4825 7.8774 1.13364 61.2445 8.88713 1.15509 61.2607 
11.6688 0.441216 61.6213 11.6715 0.915192 61.2044 11.4674 0.47509 61.4722 
12.1852 0.32957 61.193 9.74371 -0.611999 61.9709 9.75545 -0.236475 61.2039 
9.3394 -0.510216 61.6388 10.1748 -0.637067 61.5174 11.5396 0.00770956 61.2638 
7.67483 -1.44003 61.9852 8.01909 -1.34771 61.5456 8.67142 -0.936853 61.5538 
10.365 -1.46403 61.6246 11.7298 -1.11866 61.3252 11.1467 -1.66266 61.8526 
12.6637 -1.68816 62.0783 12.6948 -1.11821 61.547 13.5218 -1.7838 61.8045 
13.7651 -1.21806 61.4112 14.2639 -1.44096 61.3891 5.85394 -2.61281 62.0998 
6.42012 -2.53258 62.1593 7.11954 -2.63397 61.8036 7.62705 -1.88215 61.2886 
8.50172 -2.78735 62.2802 10.568 -1.99294 61.6595 10.8154 -2.51657 61.9009 
11.7081 -2.49314 61.9441 12.6524 -2.41993 61.8746 13.1135 -2.38528 61.651 
13.7671 -1.97169 61.2088 4.64449 -3.44575 61.978 5.17615 -3.46209 61.4664 
5.88944 -3.08525 61.4319 6.58101 -3.64539 61.9388 6.63884 -3.01996 61.3637 
7.71064 -3.5956 61.8327 8.87163 -3.54764 62.1266 10.3879 -3.42863 61.7729 
10.9966 -3.20051 61.486 11.9434 -2.99601 61.3821 12.6019 -2.75008 61.57 
3.55016 -4.58435 62.2345 4.08261 -4.63782 61.8733 4.64389 -3.97691 61.4915 
5.66589 -4.68147 62.1379 6.55116 -4.55662 61.7289 7.23684 -4.35097 61.4949 
7.84875 -4.23986 61.521 8.22223 -4.53699 61.4616 8.54048 -4.23408 61.7378 
9.42862 -4.39901 61.9231 10.2199 -4.4847 61.4488 3.83187 -5.02132 61.109 
3.29605 -5.7298 61.6801 3.9066 -5.43191 61.9567 4.89221 -5.54522 62.1294 
5.9772 -5.60954 61.8535 6.40286 -5.33681 61.5044 6.80644 -4.91096 61.3771 
7.64286 -5.20929 61.4807 7.40998 -5.34835 61.436 7.64037 -5.4509 61.5356 
8.86524 -4.93736 61.3908 8.05315 -5.56655 61.1966 9.72014 -5.11179 61.2902 
3.05383 -6.32486 61.373 5.58345 -6.71622 62.1358 6.53833 -5.94542 61.5359 
6.59939 -6.60483 61.7816 7.6172 -5.85632 61.2728 7.05363 -6.46174 61.4118 
3.60447 -7.40122 62.0997 3.2193 -7.48777 61.3439 4.55571 -7.4324 62.1028 
5.7011 -7.68899 61.9079 6.62366 -7.56568 61.8783 7.26242 -7.28346 61.4699 
3.93863 -7.98575 61.375 4.92381 -7.87262 61.373 5.90827 -8.09951 61.3751 
6.439 -8.76552 61.4136 6.55077 -8.55186 61.7656 7.04953 -8.45323 61.372 
6.63976 -9.42271 61.659 6.56472 -9.44601 61.4114 6.88602 -9.40984 61.5824 
6.73301 -9.77801 61.504 5.81333 11.3238 61.018 5.7018 11.8086 60.1427 
5.1788 11.3566 60.5723 6.77737 11.4559 60.8755 6.68128 11.7715 60.349 
7.31468 11.5558 60.3504 3.75579 10.3282 60.802 3.61711 10.8054 60.4209 
3.09266 10.3148 60.5777 4.69374 10.6271 61.0175 4.41167 11.0494 60.4866 
7.62482 11.1968 60.6381 8.65822 11.0172 60.5208 10.0471 10.3845 61.0885 
9.635 10.9257 60.5595 10.932 10.2771 60.81 10.4806 10.8018 60.4773 
11.1532 10.5665 60.1657 2.93675 9.66445 60.8097 2.5697 10.0586 60.3523 
2.34993 9.40046 60.3552 3.71444 9.60011 61.1824 10.7642 9.40825 61.1369 
11.5785 10.0255 60.5196 11.835 9.40163 60.8882 12.172 9.32581 60.2386 
2.8152 8.75387 61.015 2.28942 8.48866 60.3598 10.6689 8.19873 61.0968 
11.7388 8.51359 61.0291 12.6101 8.88608 60.6584 12.6347 8.4408 60.8605 
13.0133 8.2216 60.3118 2.63483 7.70274 61.0155 2.2927 7.47593 60.3459 
10.0362 7.3258 61.1807 10.8652 7.2848 60.9574 11.5296 7.64547 60.9618 
12.3932 7.47626 60.8347 13.0436 7.55143 60.3637 2.64701 6.68676 61.0064 
2.3058 6.44403 60.3592 10.8173 6.39181 61.1254 11.7014 6.61411 60.847 
12.3848 6.58345 60.557 12.8174 6.89745 60.344 2.66872 5.67645 60.9984 
2.30438 5.42944 60.3721 11.7793 5.31257 60.9689 12.3109 5.81898 60.4945 
2.67598 4.67252 61.0033 2.29092 4.4188 60.3934 11.8998 4.14832 61.1156 
12.5778 5.062 60.5516 12.5947 4.38967 60.7637 13.1114 4.58014 60.4183 
2.66681 3.66672 61.0267 2.26791 3.41497 60.3935 11.7527 3.25437 61.1549 
12.4081 3.38267 60.7907 13.1715 3.8211 60.4542 2.65194 2.71422 60.9575 
2.31922 2.53322 60.2009 11.6548 2.30274 60.9774 12.3872 2.54426 60.5194 
12.9079 3.05818 60.3782 2.69912 2.05279 60.618 3.11404 1.50875 60.413 
6.71626 1.46297 61.1647 9.63339 1.35295 61.2163 10.7456 1.39839 61.0231 
11.5628 1.54658 60.9698 12.218 1.6894 60.608 3.81035 0.896969 60.8252 
4.54995 0.443338 60.8849 4.22157 0.416607 60.2046 5.32195 0.385885 60.9465 
6.11311 0.617238 60.7545 6.9415 0.946207 60.7384 7.85994 0.751981 60.5074 
8.76177 0.829252 60.4603 9.80236 1.07211 60.5123 10.8043 1.00384 60.2864 
11.1955 0.530138 60.7624 12.9552 0.465904 60.8795 12.5832 0.946798 60.7928 
13.4984 0.336451 60.6628 13.3916 0.861648 60.5196 13.9285 0.723805 60.2148 
4.9932 0.0957413 60.3453 5.87683 0.100256 60.2248 9.91344 -0.182157 60.2968 
9.26983 -0.604413 60.5419 10.8286 -0.534318 61.072 10.6893 -8.65084e-05 60.5111 
11.5813 -0.729667 60.9406 12.223 -0.382041 60.7248 12.9628 -0.0950646 60.4133 
13.7007 0.174968 60.2213 8.76291 -1.14347 60.3789 8.27997 -1.61741 60.4792 
10.9123 -1.31058 61.241 12.6272 -0.8618 60.5175 13.7705 -1.00095 60.4364 
14.6814 -1.57976 60.947 14.5923 -1.21222 60.676 14.9914 -1.47454 60.2574 
7.78605 -2.16224 60.3032 7.30207 -2.65478 60.4388 12.6416 -2.6202 61.0902 
12.4505 -2.60433 60.5001 13.0259 -2.23958 60.3821 13.9261 -2.01125 60.3439 
14.6718 -1.82912 60.4383 5.68741 -3.51212 60.9167 6.18991 -3.64156 60.2804 
6.63092 -3.16185 60.4511 10.665 -3.87548 61.2046 11.3386 -3.73507 60.8662 
12.1507 -3.18505 60.5774 4.49717 -4.55857 61.0018 5.19657 -4.50401 60.4227 
[...]
CELL_DATA 8172
SCALARS scalars float
LOOKUP_TABLE default
1026 1026 1026 1026 1026 1026 1026 1026 1026 
1026 1026 1026 1026 1026 1026 1026 1026 1026 
1026 1026 1026 1026 1026 1026 1026 1026 1026 
1026 1026 1026 1026 1026 1026 1026 1026 1026 
1026 1026 1026 1026 1026 1026 1026 1026 1026 
1026 1026 1026 1026 1026 1026 1026 1026 1026 
1026 1026 1026 1026 1026 1026 1026 1026 1026 
1026 1026 1026 1026 1026 1026 1026 1026 1026 
1026 1026 1026 1026 1026 1026 1026 1026 1026 
1026 1026 1026 1026 1026 1026 1026 1026 1026 
1026 1026 1026 1026 1026 1026 1026 1026 1026 
1026 1026 1026 1026 1026 1026 1026 1026 1026 
1026 1026 1026 1026 1026 1026 1026 1026 1026 
1026 1026 1026 1026 1026 1026 1026 1026 1026 
1026 1026 1026 1026 1026 1026 1026 1026 1026 
1026 1026 1026 1026 1026 1026 1026 1026 1026 
1026 1026 1026 1026 1026 1026 1026 1026 1026 
1026 1026 1026 1026 1026 1026 1026 1026 1026 
1026 1026 1026 1026 1026 1026 1026 1026 1026 
1026 1026 1026 1026 1026 1026 1026 1026 1026 
1026 1026 1026 1026 1026 1026 1026 1026 1026 
1026 1026 1026 1026 1026 1026 1026 1026 1026 
1026 1026 1026 1026 1026 1026 1026 1026 1026 
1026 1026 1026 1026 1026 1026 1026 1026 1026 
1026 1026 1026 1026 1026 1026 1026 1026 1026 
1026 1026 1026 1026 1026 1026 1026 1026 1026 
1026 1026 1026 1026 1026 1026 1026 1026 1026 
1026 1026 1026 1026 1026 1026 1026 1026 1026 
1026 1026 1026 1026 1026 1026 1026 1026 1026 
1026 1026 1026 1026 1026 1026 1026 1026 1026 
1026 1026 1026 1026 1026 1026 1026 1026 1026 
1026 1026 1026 1026 1026 1026 1026 1026 1026 
1026 1026 1026 1026 1026 1026 1026 1026 1026 
1026 1026 1026 1026 1026 1026 1026 1026 1026 
1026 1026 1026 1026 1026 1026 1026 1026 1026 
1026 1026 1026 1026 1026 1026 1026 1026 1026 
1026 1026 1026 1026 1026 1026 1026 1026 1026 
1026 1026 1026 1026 1026 1026 1026 1026 1026 
1026 1026 1026 1026 1026 1026 1026 1026 1026 
1026 1026 1026 1026 1026 1026 1026 1026 1026 
1026 1026 1026 1026 1026 1026 1026 1026 1026 
1026 1026 1026 1026 1026 1026 1026 1026 1026 
1026 1026 1026 1026 1026 1026 1026 1026 1026 
1026 1026 1026 1026 1026 1026 1026 1026 1026 
1026 1026 1026 1026 1026 1026 1026 1026 1026 
1026 1026 1026 1026 1026 1026 1026 1026 1026 
1026 1026 1026 1026 1026 1026 1026 1026 1026 
1026 1026 1026 1026 1026 1026 1026 1026 1026 
1026 1026 1026 1026 1026 1026 1026 1026 1026 
1026 1026 1026 1026 1026 1026 1026 1026 1026 
1026 1026 1026 1026 1026 1026 1026 1026 1026 
1026 1026 1026 1026 1026 1026 1026 1026 1026 
1026 1026 1026 1026 1026 1026 1026 1026 1026 
1026 1026 1026 1026 1026 1026 1026 1026 1026 
1026 1026 1026 1026 1026 1026 1026 1026 1026 
1026 1026 1026 1026 1026 1026 1026 1026 1026 
1026 1026 1026 1026 1026 1026 1026 1026 1026 
1026 1026 1026 1026 1026 1026 1026 1026 1026 
1026 1026 1026 1026 1026 1026 1026 1026 1026 
1026 1026 1026 1026 1026 1026 1026 1026 1026 
1026 1026 1026 1026 1026 1026 1026 1026 1026 
1026 1026 1026 1026 1026 1026 1026 1026 1026 
1026 1026 1026 1026 1026 1026 1026 1026 1026 
1026 1026 1026 1026 1026 1026 1026 1026 1026 
1026 1026 1026 1026 1026 1026 1026 1026 1026 
1026 1026 1026 1026 1026 1026 1026 1026 1026 
1026 1026 1026 1026 1026 1026 1026 1026 1026 
1026 1026 1026 1026 1026 1026 1026 1026 1026 
1026 1026 1026 1026 1026 1026 1026 1026 1026 
1026 1026 1026 1026 1026 1026 1026 1026 1026 
1026 1026 1026 1026 1026 1026 1026 1026 1026 
1026 1026 1026 1026 1026 1026 1026 1026 1026 
1026 1026 1026 1026 1026 1026 1026 1026 1026 
1026 1026 1026 1026 1026 1026 1026 1026 1026 
1026 1026 1026 1026 1026 1026 1026 1026 1026 
1026 1026 1026 1026 1026 1026 1026 1026 1026 
1026 1026 1026 1026 1026 1026 1026 1026 1026 
1026 1026 1026 1026 1026 1026 1026 1026 1026 
1026 1026 1026 1026 1026 1026 1026 1026 1026 
1026 1026 1026 1026 1026 1026 1026 1026 1026 
1026 1026 1026 1026 1026 1026 1026 1026 1026 
1026 1026 1026 1026 1026 1026 1026 1026 1026 
1026 1026 1026 1026 1026 1026 1026 1026 1026 
1026 1026 1026 1026 1026 1026 1026 1026 1026 
1026 1026 1026 1026 1026 1026 1026 1026 1026 
1026 1026 1026 1026 1026 1026 1026 1026 1026 
1026 1026 1026 1026 1026 1026 1026 1026 1026 
1026 1026 1026 1026 1026 1026 1026 1026 1026 
1026 1026 1026 1026 1026 1026 1026 1026 1026 
1026 1026 1026 1026 1026 1026 1026 1026 1026 
1026 1026 1026 1026 1026 1026 1026 1026 1026 
1026 1026 1026 1026 1026 1026 1026 1026 1026 
1026 1026 1026 1026 1026 1026 1026 1026 1026 
1026 1026 1026 1026 1026 1026 1026 1026 1026 
1026 1026 1026 1026 1026 1026 1026 1026 1026 
1026 1026 1026 1026 1026 1026 1026 1026 1026 
1026 1026 1026 1026 1026 1026 1026 1026 1026 
1026 1026 1026 1026 1026 1026 1026 1026 1026 
1026 1026 1026 1026 1026 1026 1026 1026 1026 
1026 1026 1026 1026 1026 1026 1026 1026 1026 
1026 1026 1026 1026 1026 1026 1026 1026 1026 
1026 1026 1026 1026 1026 1026 1026 1026 1026 
1026 1026 1026 1026 1026 1026 1026 1026 1026 
1026 1026 1026 1026 1026 1026 1026 1026 1026 
1026 1026 1026 1026 1026 1026 1026 1026 1026 
1026 1026 1026 1026 1026 1026 1026 1026 1026 
1026 1026 1026 1026 1026 1026 1026 1026 1026 
1026 1026 1026 1026 1026 1026 1026 1026 1026 
1026 1026 1026 1026 1026 1026 1026 1026 1026 
1026 1026 1026 1026 1026 1026 1026 1026 1026 
1026 1026 1026 1026 1026 1026 1026 1026 1026 
1026 1026 1026 1026 1026 1026 1026 1026 1026 
1026 1026 1026 1026 1026 1026 1026 1026 1026 
1026 1026 1026 1026 1026 1026 1026 1026 1026 
1026 1026 1026 1026 1026 1026 1026 1026 1026 
1026 1026 1026 1026 1026 1026 1026 1026 1026 
1026 1026 1026 1026 1026 1026 1026 1026 1026 
1026 1026 1026 1026 1026 1026 1026 1026 1026 
1026 1026 1026 1026 1026 1026 1026 1026 1026 
1026 1026 1026 1026 1026 1026 1026 1026 1026 
1026 1026 1026 1026 1026 1026 1026 1026 1026 
1026 1026 1026 1026 1026 1026 1026 1026 1026 
1026 1026 1026 1026 1026 1026 1026 1026 1026 
1026 1026 1026 1026 1026 1026 1026 1026 1026 
1026 1026 1026 1026 1026 1026 1026 1026 1026 
1026 1026 1026 1026 1026 1026 1026 1026 1026 
1026 1026 1026 1026 1026 1026 1026 1026 1026 
1026 1026 1026 1026 1026 1026 1026 1026 1026 
1026 1026 1026 1026 1026 1026 1026 1026 1026 
1026 1026 1026 1026 1026 1026 1026 1026 1026 
1026 1026 1026 1026 1026 1026 1026 1026 1026 
1026 1026 1026 1026 1026 1026 1026 1026 1026 
1026 1026 1026 1026 1026 1026 1026 1026 1026 
1026 1026 1026 1026 1026 1026 1026 1026 1026 
1026 1026 1026 1026 1026 1026 1026 1026 1026 
1026 1026 1026 1026 1026 1026 1026 1026 1026 
1026 1026 1026 1026 1026 1026 1026 1026 1026 
1026 1026 1026 1026 1026 1026 1026 1026 1026 
1026 1026 1026 1026 1026 1026 1026 1026 1026 
1026 1026 1026 1026 1026 1026 1026 1026 1026 
1026 1026 1026 1026 1026 1026 1026 1026 1026 
1026 1026 1026 1026 1026 1026 1026 1026 1026 
1026 1026 1026 1026 1026 1026 1026 1026 1026 
1026 1026 1026 1026 1026 1026 1026 1026 1026 
1026 1026 1026 1026 1026 1026 1026 1026 1026 
1026 1026 1026 1026 1026 1026 1026 1026 1026 
1026 1026 1026 1026 1026 1026 1026 1026 1026 
1026 1026 1026 1026 1026 1026 1026 1026 1026 
1026 1026 1026 1026 1026 1026 1026 1026 1026 
1026 1026 1026 1026 1026 1026 1026 1026 1026 
1026 1026 1026 1026 1026 1026 1026 1026 1026 
1026 1026 1026 1026 1026 1026 1026 1026 1026 
1026 1026 1026 1026 1026 1026 1026 1026 1026 
1026 1026 1026 1026 1026 1026 1026 1026 1026 
1026 1026 1026 1026 1026 1026 1026 1026 1026 
1026 1026 1026 1026 1026 1026 1026 1026 1026 
1026 1026 1026 1026 1026 1026 1026 1026 1026 
1026 1026 1026 1026 1026 1026 1026 1026 1026 
1026 1026 1026 1026 1026 1026 1026 1026 1026 
1026 1026 1026 1026 1026 1026 1026 1026 1026 
1026 1026 1026 1026 1026 1026 1026 1026 1026 
1026 1026 1026 1026 1026 1026 1026 1026 1026 
1026 1026 1026 1026 1026 1026 1026 1026 1026 
1026 1026 1026 1026 1026 1026 1026 1026 1026 
1026 1026 1026 1026 1026 1026 1026 1026 1026 
1026 1026 1026 1026 1026 1026 1026 1026 1026 
1026 1026 1026 1026 1026 1026 1026 1026 1026 
1026 1026 1026 1026 1026 1026 1026 1026 1026 
1026 1026 1026 1026 1026 1026 1026 1026 1026 
1026 1026 1026 1026 1026 1026 1026 1026 1026 
1026 1026 1026 1026 1026 1026 1026 1026 1026 
1026 1026 1026 1026 1026 1026 1026 1026 1026 
1026 1026 1026 1026 1026 1026 1026 1026 1026 
1026 1026 1026 1026 1026 1026 1026 1026 1026 
1026 1026 1026 1026 1026 1026 1026 1026 1026 
1026 1026 1026 1026 1026 1026 1026 1026 1026 
1026 1026 1026 1026 1026 1026 1026 1026 1026 
1026 1026 1026 1026 1026 1026 1026 1026 1026 
1026 1026 1026 1026 1026 1026 1026 1026 1026 
1026 1026 1026 1026 1026 1026 1026 1026 1026 
1026 1026 1026 1026 1026 1026 1026 1026 1026 
1026 1026 1026 1026 1026 1026 1026 1026 1026 
1026 1026 1026 1026 1026 1026 1026 1026 1026 
1026 1026 1026 1026 1026 1026 1026 1026 1026 
1026 1026 1026 1026 1026 1026 1026 1026 1026 
1026 1026 1026 1026 1026 1026 1026 1026 1026 
1026 1026 1026 1026 1026 1026 1026 1026 1026 
1026 1026 1026 1026 1026 1026 1026 1026 1026 
1026 1026 1026 1026 1026 1026 1026 1026 1026 
1026 1026 1026 1026 1026 1026 1026 1026 1026 
1026 1026 1026 1026 1026 1026 1026 1026 1026 
1026 1026 1026 1026 1026 1026 1026 1026 1026 
1026 1026 1026 1026 1026 1026 1026 1026 1026 
1026 1026 1026 1026 1026 1026 1026 1026 1026 
1026 1026 1026 1026 1026 1026 1026 1026 1026 
1026 1026 1026 1026 1026 1026 1026 1026 1026 
1026 1026 1026 1026 1026 1026 1026 1026 1026 
1026 1026 1026 1026 1026 1026 1026 1026 1026 
1026 1026 1026 1026 1026 1026 1026 1026 1026 
1026 1026 1026 1026 1026 1026 1026 1026 1026 
1026 1026 1026 1026 1026 1026 1026 1026 1026 
1026 1026 1026 1026 1026 1026 1026 1026 1026 
1026 1026 1026 1026 1026 1026 1026 1026 1026 
1026 1026 1026 1026 1026 1026 1026 1026 1026 
1026 1026 1026 1026 1026 1026 1026 1026 1026 
1026 1026 1026 1026 1026 1026 1026 1026 1026 
1026 1026 1026 1026 1026 1026 1026 1026 1026 
1026 1026 1026 1026 1026 1026 1026 1026 1026 
1026 1026 1026 1026 1026 1026 1026 1026 1026 
1026 1026 1026 1026 1026 1026 1026 1026 1026 
1026 1026 1026 1026 1026 1026 1026 1026 1026 
1026 1026 1026 1026 1026 1026 1026 1026 1026 
1026 1026 1026 1026 1026 1026 1026 1026 1026 
1026 1026 1026 1026 1026 1026 1026 1026 1026 
1026 1026 1026 1026 1026 1026 1026 1026 1026 
1026 1026 1026 1026 1026 1026 1026 1026 1026 
1026 1026 1026 1026 1026 1026 1026 1026 1026 
1026 1026 1026 1026 1026 1026 1026 1026 1026 
1026 1026 1026 1026 1026 1026 1026 1026 1026 
1026 1026 1026 1026 1026 1026 1026 1026 1026 
1026 1026 1026 1026 1026 1026 1026 1026 1026 
1026 1026 1026 1026 1026 1026 1026 1026 1026 
1026 1026 1026 1026 1026 1026 1026 1026 1026 
1026 1026 1026 1026 1026 1026 1026 1026 1026 
1026 1026 1026 1026 1026 1026 1026 1026 1026 
1026 1026 1026 1026 1026 1026 1026 1026 1026 
1026 1026 1026 1026 1026 1026 1026 1026 1026 
1026 1026 1026 1026 1026 1026 1026 1026 1026 
1026 1026 1026 1026 1026 1026 1026 1026 1026 
1026 1026 1026 1026 1026 1026 1026 1026 1026 
1026 1026 1026 1026 1026 1026 1026 1026 1026 
1026 1026 1026 1026 1026 1026 1026 1026 1026 
1026 1026 1026 1026 1026 1026 1026 1026 1026 
1026 1026 1026 1026 1026 1026 1026 1026 1026 
1026 1026 1026 1026 1026 1026 1026 1026 1026 
1026 1026 1026 1026 1026 1026 1026 1026 1026 
1026 1026 1026 1026 1026 1026 1026 1026 1026 
1026 1026 1026 1026 1026 1026 1026 1026 1026 
1026 1026 1026 1026 1026 1026 1026 1026 1026 
1026 1026 1026 1026 1026 1026 1026 1026 1026 
1026 1026 1026 1026 1026 1026 1026 1026 1026 
1026 1026 1026 1026 1026 1026 1026 1026 1026 
1026 1026 1026 1026 1026 1026 1026 1026 1026 
1026 1026 1026 1026 1026 1026 1026 1026 1026 
1026 1026 1026 1026 1026 1026 1026 1026 1026 
1026 1026 1026 1026 1026 1026 1026 1026 1026 
1026 1026 1026 1026 1026 1026 1026 1026 1026 
1026 1026 1026 1026 1026 1026 1026 1026 1026 
1026 1026 1026 1026 1026 1026 1026 1026 1026 
1026 1026 1026 1026 1026 1026 1026 1026 1026 
1026 1026 1026 1026 1026 1026 1026 1026 1026 
1026 1026 1026 1026 1026 1026 1026 1026 1026 
1026 1026 1026 1026 1026 1026 1026 1026 1026 
1026 1026 1026 1026 1026 1026 1026 1026 1026 
1026 1026 1026 1026 1026 1026 1026 1026 1026 
1026 1026 1026 1026 1026 1026 1026 1026 1026 
1026 1026 1026 1026 1026 1026 1026 1026 1026 
1026 1026 1026 1026 1026 1026 1026 1026 1026 
1026 1026 1026 1026 1026 1026 1026 1026 1026 
1026 1026 1026 1026 1026 1026 1026 1026 1026 
1026 1026 1026 1026 1026 1026 1026 1026 1026 
1026 1026 1026 1026 1026 1026 1026 1026 1026 
1026 1026 1026 1026 1026 1026 1026 1026 1026 
1026 1026 1026 1026 1026 1026 1026 1026 1026 
1026 1026 1026 1026 1026 1026 1026 1026 1026 
1026 1026 1026 1026 1026 1026 1026 1026 1026 
1026 1026 1026 1026 1026 1026 1026 1026 1026 
1026 1026 1026 1026 1026 1026 1026 1026 1026 
1026 1026 1026 1026 1026 1026 1026 1026 1026 
1026 1026 1026 1026 1026 1026 1026 1026 1026 
1026 1026 1026 1026 1026 1026 1026 1026 1026 
1026 1026 1026 1026 1026 1026 1026 1026 1026 
1026 1026 1026 1026 1026 1026 1026 1026 1026 
1026 1026 1026 1026 1026 1026 1026 1026 1026 
1026 1026 1026 1026 1026 1026 1026 1026 1026 
1026 1026 1026 1026 1026 1026 1026 1026 1026 
1026 1026 1026 1026 1026 1026 1026 1026 1026 
1026 1026 1026 1026 1026 1026 1026 1026 1026 
1026 1026 1026 1026 1026 1026 1026 1026 1026 
1026 1026 1026 1026 1026 1026 1026 1026 1026 
1026 1026 1026 1026 1026 1026 1026 1026 1026 
1026 1026 1026 1026 1026 1026 1026 1026 1026 
1026 1026 1026 1026 1026 1026 1026 1026 1026 
1026 1026 1026 1026 1026 1026 1026 1026 1026 
1026 1026 1026 1026 1026 1026 1026 1026 1026 
1026 1026 1026 1026 1026 1026 1026 1026 1026 
1026 1026 1026 1026 1026 1026 1026 1026 1026 
1026 1026 1026 1026 1026 1026 1026 1026 1026 
1026 1026 1026 1026 1026 1026 1026 1026 1026 
1026 1026 1026 1026 1026 1026 1026 1026 1026 
1026 1026 1026 1026 1026 1026 1026 1026 1026 
1026 1026 1026 1026 1026 1026 1026 1026 1026 
1026 1026 1026 1026 1026 1026 1026 1026 1026 
1026 1026 1026 1026 1026 1026 1026 1026 1026 
1026 1026 1026 1026 1026 1026 1026 1026 1026 
1026 1026 1026 1026 1026 1026 1026 1026 1026 
1026 1026 1026 1026 1026 1026 1026 1026 1026 
1026 1026 1026 1026 1026 1026 1026 1026 1026 
1026 1026 1026 1026 1026 1026 1026 1026 1026 
1026 1026 1026 1026 1026 1026 1026 1026 1026 
1026 1026 1026 1026 1026 1026 1026 1026 1026 
1026 1026 1026 1026 1026 1026 1026 1026 1026 
1026 1026 1026 1026 1026 1026 1026 1026 1026 
1026 1026 1026 1026 1026 1026 1026 1026 1026 
1026 1026 1026 1026 1026 1026 1026 1026 1026 
1026 1026 1026 1026 1026 1026 1026 1026 1026 
1026 1026 1026 1026 1026 1026 1026 1026 1026 
1026 1026 1026 1026 1026 1026 1026 1026 1026 
1026 1026 1026 1026 1026 1026 1026 1026 1026 
1026 1026 1026 1026 1026 1026 1026 1026 1026 
1026 1026 1026 1026 1026 1026 1026 1026 1026 
1026 1026 1026 1026 1026 1026 1026 1026 1026 
1026 1026 1026 1026 1026 1026 1026 1026 1026 
1026 1026 1026 1026 1026 1026 1026 1026 1026 
1026 1026 1026 1026 1026 1026 1026 1026 1026 
1026 1026 1026 1026 1026 1026 1026 1026 1026 
1026 1026 1026 1026 1026 1026 1026 1026 1026 
1026 1026 1026 1026 1026 1026 1026 1026 1026 
1026 1026 1026 1026 1026 1026 1026 1026 1026 
1026 1026 1026 1026 1026 1026 1026 1026 1026 
1026 1026 1026 1026 1026 1026 1026 1026 1026 
1026 1026 1026 1026 1026 1026 1026 1026 1026 
1026 1026 1026 1026 1026 1026 1026 1026 1026 
1026 1026 1026 1026 1026 1026 1026 1026 1026 
1026 1026 1026 1026 1026 1026 1026 1026 1026 
1026 1026 1026 1026 1026 1026 1026 1026 1026 
1026 1026 1026 1026 1026 1026 1026 1026 1026 
1026 1026 1026 1026 1026 1026 1026 1026 1026 
1026 1026 1026 1026 1026 1026 1026 1026 1026 
1026 1026 1026 1026 1026 1026 1026 1026 1026 
1026 1026 1026 1026 1026 1026 1026 1026 1026 
1026 1026 1026 1026 1026 1026 1026 1026 1026 
1026 1026 1026 1026 1026 1026 1026 1026 1026 
1026 1026 1026 1026 1026 1026 1026 1026 1026 
1026 1026 1026 1026 1026 1026 1026 1026 1026 
1026 1026 1026 1026 1026 1026 1026 1026 1026 
1026 1026 1026 1026 1026 1026 1026 1026 1026 
1026 1026 1026 1026 1026 1026 1026 1026 1026 
1026 1026 1026 1026 1026 1026 1026 1026 1026 
1026 1026 1026 1026 1026 1026 1026 1026 1026 
1026 1026 1026 1026 1026 1026 1026 1026 1026 
1026 1026 1026 1026 1026 1026 1026 1026 1026 
1026 1026 1026 1026 1026 1026 1026 1026 1026 
1026 1026 1026 1026 1026 1026 1026 1026 1026 
1026 1026 1026 1026 1026 1026 1026 1026 1026 
1026 1026 1026 1026 1026 1026 1026 1026 1026 
1026 1026 1026 1026 1026 1026 1026 1026 1026 
1026 1026 1026 1026 1026 1026 1026 1026 1026 
1026 1026 1026 1026 1026 1026 1026 1026 1026 
1026 1026 1026 1026 1026 1026 1026 1026 1026 
1026 1026 1026 1026 1026 1026 1026 1026 1026 
1026 1026 1026 1026 1026 1026 1026 1026 1026 
1026 1026 1026 1026 1026 1026 1026 1026 1026 
1026 1026 1026 1026 1026 1026 1026 1026 1026 
1026 1026 1026 1026 1026 1026 1026 1026 1026 
1026 1026 1026 1026 1026 1026 1026 1026 1026 
1026 1026 1026 1026 1026 1026 1026 1026 1026 
1026 1026 1026 1026 1026 1026 1026 1026 1026 
1026 1026 1026 1026 1026 1026 1026 1026 1026 
1026 1026 1026 1026 1026 1026 1026 1026 1026 
1026 1026 1026 1026 1026 1026 1026 1026 1026 
1026 1026 1026 1026 1026 1026 1026 1026 1026 
1026 1026 1026 1026 1026 1026 1026 1026 1026 
1026 1026 1026 1026 1026 1026 1026 1026 1026 
1026 1026 1026 1026 1026 1026 1026 1026 1026 
1026 1026 1026 1026 1026 1026 1026 1026 1026 
1026 1026 1026 1026 1026 1026 1026 1026 1026 
1026 1026 1026 1026 1026 1026 1026 1026 1026 
1026 1026 1026 1026 1026 1026 1026 1026 1026 
1026 1026 1026 1026 1026 1026 1026 1026 1026 
1026 1026 1026 1026 1026 1026 1026 1026 1026 
1026 1026 1026 1026 1026 1026 1026 1026 1026 
1026 1026 1026 1026 1026 1026 1026 1026 1026 
1026 1026 1026 1026 1026 1026 1026 1026 1026 
1026 1026 1026 1026 1026 1026 1026 1026 1026 
1026 1026 1026 1026 1026 1026 1026 1026 1026 
1026 1026 1026 1026 1026 1026 1026 1026 1026 
1026 1026 1026 1026 1026 1026 1026 1026 1026 
1026 1026 1026 1026 1026 1026 1026 1026 1026 
1026 1026 1026 1026 1026 1026 1026 1026 1026 
1026 1026 1026 1026 1026 1026 1026 1026 1026 
1026 1026 1026 1026 1026 1026 1026 1026 1026 
1026 1026 1026 1026 1026 1026 1026 1026 1026 
1026 1026 1026 1026 1026 1026 1026 1026 1026 
1026 1026 1026 1026 1026 1026 1026 1026 1026 
1026 1026 1026 1026 1026 1026 1026 1026 1026 
1026 1026 1026 1026 1026 1026 1026 1026 1026 
1026 1026 1026 1026 1026 1026 1026 1026 1026 
1026 1026 1026 1026 1026 1026 1026 1026 1026 
1026 1026 1026 1026 1026 1026 1026 1026 1026 
1026 1026 1026 1026 1026 1026 1026 1026 1026 
1026 1026 1026 1026 1026 1026 1026 1026 1026 
1026 1026 1026 1026 1026 1026 1026 1026 1026 
1026 1026 1026 1026 1026 1026 1026 1026 1026 
1026 1026 1026 1026 1026 1026 1026 1026 1026 
1026 1026 1026 1026 1026 1026 1026 1026 1026 
1026 1026 1026 1026 1026 1026 1026 1026 1026 
1026 1026 1026 1026 1026 1026 1026 1026 1026 
1026 1026 1026 1026 1026 1026 1026 1026 1026 
1026 1026 1026 1026 1026 1026 1026 1026 1026 
1026 1026 1026 1026 1026 1026 1026 1026 1026 
1026 1026 1026 1026 1026 1026 1026 1026 1026 
1026 1026 1026 1026 1026 1026 1026 1026 1026 
1026 1026 1026 1026 1026 1026 1026 1026 1026 
1026 1026 1026 1026 1026 1026 1026 1026 1026 
1026 1026 1026 1026 1026 1026 1026 1026 1026 
1026 1026 1026 1026 1026 1026 1026 1026 1026 
1026 1026 1026 1026 1026 1026 1026 1026 1026 
1026 1026 1026 1026 1026 1026 1026 1026 1026 
1026 1026 1026 1026 1026 1026 1026 1026 1026 
1026 1026 1026 1026 1026 1026 1026 1026 1026 
1026 1026 1026 1026 1026 1026 1026 1026 1026 
1026 1026 1026 1026 1026 1026 1026 1026 1026 
1026 1026 1026 1026 1026 1026 1026 1026 1026 
1026 1026 1026 1026 1026 1026 1026 1026 1026 
1026 1026 1026 1026 1026 1026 1026 1026 1026 
1026 1026 1026 1026 1026 1026 1026 1026 1026 
1026 1026 1026 1026 1026 1026 1026 1026 1026 
1026 1026 1026 1026 1026 1026 1026 1026 1026 
1026 1026 1026 1026 1026 1026 1026 1026 1026 
1026 1026 1026 1026 1026 1026 1026 1026 1026 
1026 1026 1026 1026 1026 1026 1026 1026 1026 
1026 1026 1026 1026 1026 1026 1026 1026 1026 
1026 1026 1026 1026 1026 1026 1026 1026 1026 
1026 1026 1026 1026 1026 1026 1026 1026 1026 
1026 1026 1026 1026 1026 1026 1026 1026 1026 
1026 1026 1026 1026 1026 1026 1026 1026 1026 
1026 1026 1026 1026 1026 1026 1026 1026 1026 
1026 1026 1026 1026 1026 1026 1026 1026 1026 
1026 1026 1026 1026 1026 1026 1026 1026 1026 
1026 1026 1026 1026 1026 1026 1026 1026 1026 
1026 1026 1026 1026 1026 1026 1026 1026 1026 
1026 1026 1026 1026 1026 1026 1026 1026 1026 