# vtk DataFile Version 4.2
vtk output
ASCII
DATASET POLYDATA
POINTS 20016 float
58.7727 16.2279 13.7094 58.7619 16.8338 13.2514 58.2329 16.0885 13.5277 
59.2493 16.4351 13.3873 58.5916 15.6978 13.7338 58.3218 15.3638 13.4857 
59.1491 15.7754 13.5478 58.8395 15.2061 13.4844 58.6469 20.1756 12.7585 
58.7732 20.8896 12.2376 58.0954 20.3474 12.6164 59.2584 20.4872 12.3661 
58.0079 19.5066 12.8655 57.6517 20.0018 12.5784 57.291 19.3057 12.4731 
58.6962 19.3417 12.8704 59.2322 19.7246 12.5343 57.8111 18.4399 12.8784 
57.188 18.1865 12.4995 58.562 18.4858 12.8929 59.2235 18.7134 12.5287 
57.6765 17.6015 12.8495 57.1664 17.2 12.4993 58.3534 17.5602 12.9988 
59.2229 17.6649 12.6352 57.7169 16.6005 13.0069 56.9874 16.3739 12.5616 
59.7223 16.1031 12.9631 59.5689 16.8686 12.7699 60.0372 16.6382 12.2018 
56.9985 15.5778 12.7446 56.6497 15.9563 12.4498 56.4462 15.485 12.319 
57.7983 15.4497 13.1646 59.5617 15.1263 13.0372 60.1002 15.6963 12.3337 
56.8054 14.8707 12.5297 57.0794 14.1283 12.4723 57.6315 14.5028 12.8799 
58.7595 14.5418 13.1458 59.7265 14.2217 12.8515 60.1011 14.6934 12.3669 
57.8549 13.4409 12.8515 57.2337 13.1838 12.4438 58.7014 13.4394 13.0297 
59.5872 13.3928 12.871 60.1056 13.6969 12.3513 57.9116 12.4316 12.8564 
57.2614 12.1684 12.4654 58.5864 12.6142 13.0259 59.397 12.3482 12.8475 
60.0551 12.6196 12.2563 57.7465 11.2901 12.8836 57.0988 11.3592 12.5746 
58.7364 11.5757 12.9133 59.4318 11.4767 12.5991 59.8252 11.8206 12.3461 
56.0273 10.278 12.823 55.6517 10.7128 12.4298 55.25 10.0758 12.3182 
56.9195 10.6055 12.8934 56.4242 10.9946 12.5109 57.5018 10.2237 12.8906 
58.4011 10.5727 12.7995 59.1785 10.7668 12.5133 55.6603 9.64972 12.7738 
55.4033 9.43294 12.2768 56.4867 9.67853 12.8554 57.2285 9.55371 12.5931 
58.0489 9.85658 12.523 58.8222 10.1356 12.4199 55.8549 9.20262 12.5038 
56.5834 9.07995 12.313 56.6465 6.40567 12.6699 56.6681 6.68927 12.5933 
56.302 6.48099 12.3704 56.9896 6.60025 12.3067 56.6066 6.19648 12.191 
57.9503 21.4884 11.7403 57.8184 21.8749 11.4657 57.3157 21.3065 11.4385 
58.4929 21.3694 11.8825 58.402 21.9459 11.4821 59.1348 21.5843 11.5769 
57.6737 20.5586 12.1025 56.9765 20.3752 11.5868 59.7733 20.1541 11.9452 
59.6111 20.942 11.7576 60.1104 20.6511 11.2216 56.8502 19.6467 11.8645 
56.5779 20.0071 11.3133 56.376 19.3549 11.3435 59.7482 19.1775 12.0001 
60.1389 19.6961 11.3332 56.6927 18.7239 11.9808 56.2046 18.3449 11.3622 
59.7473 18.149 11.9881 60.0891 18.6929 11.3211 56.6892 17.7104 11.9817 
56.1884 17.203 11.4743 59.818 17.343 12.1475 60.1202 17.5637 11.4364 
56.5365 16.5014 12.0595 56.0333 16.3747 11.5197 60.3376 16.518 11.4044 
50.8409 15.2867 11.8813 50.8511 15.661 11.3623 50.2843 15.3411 11.4541 
51.9332 15.3659 11.8905 51.6432 15.871 11.3517 52.6859 15.2342 11.7486 
52.6153 15.7649 11.3756 53.177 15.4164 11.2987 55.9683 15.5132 11.803 
55.5544 15.8684 11.3438 55.2609 15.103 11.4027 60.3789 15.4342 11.6209 
49.9413 14.5624 11.8732 49.6807 15.1312 11.221 49.2607 14.4676 11.3509 
50.7659 14.3519 12.0814 51.6349 14.5122 12.0578 52.7113 14.427 11.8933 
53.2595 14.7445 11.466 55.7081 14.3301 11.8056 54.9943 14.3278 11.4844 
56.4025 14.6759 12.1514 60.3745 14.428 11.6452 49.691 13.5511 11.8242 
49.2039 13.4497 11.1427 50.5845 13.4906 12.0468 51.6193 13.4702 12.0547 
52.6675 13.4543 12.0129 53.5735 14.0773 11.5432 53.7983 13.4127 11.8354 
55.0035 13.4409 11.7832 54.3289 13.9785 11.4372 55.9009 13.2994 11.901 
56.5303 13.7294 12.0787 60.3701 13.4205 11.623 49.7243 12.8509 11.5858 
50.2271 12.2654 11.4517 50.4224 12.7203 11.8219 51.5549 12.4654 11.8856 
52.6961 12.4232 12.0019 53.7264 12.3915 11.9869 54.7542 12.3874 11.9371 
55.7649 12.4299 11.9264 56.603 12.7234 12.0635 60.3947 12.5855 11.5042 
51.0267 11.9954 11.4934 51.8381 11.7631 11.5536 52.3357 11.2403 11.4221 
52.6909 11.5231 11.8175 53.7274 11.4303 11.9925 54.5822 11.5553 11.9958 
55.6056 11.4239 12.0902 56.5899 11.7735 12.1605 59.7661 11.0949 12.0802 
60.2467 11.7002 11.6617 52.9006 10.8227 11.552 53.1654 10.3238 11.2995 
53.5653 10.6906 11.7831 54.6733 10.6746 11.983 59.5391 10.1605 11.9736 
60.2263 10.5475 11.3865 53.8238 10.1469 11.3154 54.5969 9.95609 11.4628 
55.1669 9.4601 11.6026 57.6751 9.09306 12.161 58.735 9.5533 12.1245 
59.457 9.2626 11.7652 60.019 9.55105 11.3279 55.8525 8.91589 11.8135 
56.8708 8.42125 11.9152 56.1156 8.1222 11.4556 57.8545 8.28589 11.9459 
58.7175 8.57143 11.869 59.4251 8.53411 11.5531 59.8204 8.87414 11.3044 
56.6839 7.25601 12.0041 55.9663 7.14202 11.2408 57.5617 7.69392 11.8888 
58.4079 7.61979 11.7494 59.1919 7.77862 11.4686 55.8283 6.67645 11.7969 
55.6103 6.71559 11.4405 55.5374 6.44351 11.5038 57.8234 6.90089 11.6522 
57.194 6.3362 11.7446 58.8439 7.12385 11.3855 56.0086 6.19362 11.6052 
56.7522 6.08099 11.4191 57.4485 5.38493 11.4373 57.9311 5.24164 11.7925 
57.7036 5.77622 11.5076 58.1345 5.64937 11.4581 57.7033 4.68941 11.829 
57.3716 4.42047 11.1793 58.544 5.07492 11.6094 58.3749 4.48705 11.8226 
59.0095 4.55692 11.1958 58.0078 3.96682 11.6039 58.7057 3.87907 11.4089 
58.0337 25.3365 10.8713 57.6378 25.8354 10.4696 57.2575 25.1976 10.5138 
58.7276 25.2401 10.8448 58.419 25.8827 10.5579 59.0451 25.6292 10.2894 
57.8238 24.5105 10.9069 57.1571 24.2559 10.4824 58.5951 24.4954 10.933 
59.0987 24.7129 10.4232 57.8386 23.4962 10.8694 57.1696 23.2335 10.4695 
58.8023 23.4598 10.9048 59.2747 23.4461 10.2502 57.6501 22.3676 11.0332 
57.0199 22.4058 10.5254 58.8255 22.4718 11.1047 59.6094 22.8669 10.6041 
59.6771 22.3876 10.7881 59.9406 22.2093 10.4299 56.8937 21.6694 10.8096 
56.6449 22.0505 10.2588 56.4177 21.3767 10.3065 59.7547 21.5748 11.1116 
60.0941 21.2877 10.4049 56.6758 20.7691 11.0258 56.1969 20.3125 10.5068 
60.2736 20.2721 10.6182 56 19.2633 10.7288 60.2445 19.4486 10.4622 
55.7947 18.5507 10.7892 55.6478 19.0778 10.2957 55.4314 18.4149 10.3086 
60.3313 18.5037 10.3886 50.9154 17.2488 10.8157 50.6882 17.7281 10.237 
50.3852 17.2471 10.5852 51.2344 17.6135 10.3946 55.6214 17.5773 10.9333 
55.0955 17.5193 10.3733 60.434 17.5111 10.6116 50.7306 16.5308 10.7834 
50.2474 16.5345 10.2169 51.5155 17.0825 10.606 51.5532 16.4324 10.8578 
52.1183 16.6357 10.4442 54.8476 16.5023 10.7656 54.7262 16.9144 10.4116 
54.2238 16.3867 10.4188 55.5657 16.5218 11.1412 60.6496 16.8634 10.633 
60.7197 16.094 10.9029 61.0221 16.6575 10.2108 49.7746 15.5191 10.668 
49.674 15.6456 10.3995 49.3857 15.2719 10.7063 50.5627 15.8593 10.3282 
50.6585 15.5096 11.0362 49.939 15.5823 10.3911 50.9429 15.4943 10.5237 
52.4863 16.1543 10.7659 53.9713 15.3671 10.9377 53.3612 15.9695 10.6414 
54.909 15.6316 11.0509 60.7346 15.1435 10.9945 61.0943 15.7015 10.3316 
49.1975 14.5322 10.58 50.2952 15.3112 10.6491 53.9005 14.4195 11.1924 
54.5502 14.7223 11.1353 60.7237 14.1372 10.9939 61.0824 14.7009 10.348 
49.1891 13.7 10.4089 60.7206 13.1333 10.9841 61.0591 13.6858 10.3409 
49.6565 12.3382 11.1275 49.2719 12.5957 10.5361 60.7142 12.1564 11.0021 
61.0578 12.693 10.3405 49.706 11.4871 10.756 49.3896 11.6455 10.3573 
50.5988 11.4276 11.0808 51.661 11.2613 11.1815 60.6963 11.1725 10.9765 
61.069 11.7055 10.3598 49.7368 10.9379 10.4846 50.2092 10.4656 10.3734 
50.4268 10.6014 10.7229 51.4062 10.4945 10.8203 52.3895 10.5306 11.0134 
60.6525 10.3593 10.8034 61.0284 10.6233 10.2515 50.9052 10.1449 10.4934 
51.7039 10.1285 10.4271 52.7898 9.90358 10.4191 53.9064 9.74584 10.708 
54.6189 9.24975 10.9467 53.9488 9.28641 10.5179 60.4374 9.66367 10.7401 
60.7892 9.8551 10.3341 54.0304 8.55208 10.7079 53.4904 8.88564 10.3638 
53.3616 8.45199 10.436 54.8784 8.35357 10.9304 55.4328 8.67599 11.1697 
59.7646 8.12455 11.0583 60.2444 8.60582 10.5389 53.5278 7.92606 10.3557 
54.2445 7.23578 10.4146 54.5474 7.71109 10.7509 55.5055 7.69571 10.9353 
59.5727 7.16604 10.9512 60.078 7.60026 10.4836 55.0894 6.99273 10.4832 
55.772 6.93459 10.5969 55.8429 6.50017 11.1004 56.0452 6.58886 10.5993 
57.633 6.07086 11.1637 58.7771 6.57009 11.1169 59.5025 6.26338 10.7712 
60.0538 6.61644 10.2266 56.4271 6.03119 10.526 57.107 5.25847 10.4374 
58.7949 5.66467 11.1216 59.3802 5.26947 10.5512 59.8041 5.86994 10.2976 
57.1978 4.44354 10.4246 59.2663 4.43161 10.5042 57.7161 3.57981 11.0459 
57.3337 3.76352 10.4126 58.4215 3.36531 11.0065 59.103 3.5972 10.4485 
57.8264 2.91872 10.3801 58.7314 2.86278 10.3524 55.0076 32.3857 9.83862 
54.6055 32.881 9.44299 54.2117 32.206 9.49271 55.9221 32.2311 9.86443 
55.4048 32.9351 9.51605 56.1848 32.6387 9.18964 54.1092 31.2287 9.47559 
54.8035 31.5096 9.89061 55.7255 31.5007 10.0748 56.5852 31.935 9.57223 
56.6037 31.3932 9.87283 57.003 31.4456 9.32266 54.7824 30.4814 9.86933 
54.1586 30.2033 9.45223 55.6923 30.4908 10.0821 56.5996 30.4835 9.95689 
57.21 30.6415 9.2693 54.7999 29.5377 9.77354 54.3493 29.3678 9.39065 
55.6889 29.4764 10.0435 56.7809 29.3603 9.97535 57.0685 29.7096 9.4738 
50.6965 28.4181 9.65736 50.5257 28.6595 9.52284 50.2754 28.3406 9.39155 
50.9782 28.5682 9.48714 54.8496 28.8792 9.52563 55.283 28.3002 9.3972 
55.6475 28.5759 9.81726 56.7376 28.4057 10.041 57.3995 29.0658 9.32747 
57.6372 28.3234 9.83236 58.0654 28.6394 9.25618 50.8297 28.1739 9.17218 
55.8758 27.8523 9.5282 56.1689 27.1031 9.46071 56.6876 27.4934 9.87167 
57.8335 27.3534 9.92498 58.343 27.74 9.35025 56.7461 26.6109 9.80192 
56.2352 26.1872 9.44646 57.6254 26.4847 10.1301 58.6481 26.9748 9.59874 
58.6249 26.4255 10.0449 59.0887 26.4622 9.3949 56.8826 25.7715 9.98143 
56.2093 25.2063 9.44566 59.2433 25.4465 9.51113 56.681 24.7584 9.96794 
56.2051 24.1954 9.44297 59.4108 24.5216 9.48871 56.6905 23.754 9.93927 
56.2205 23.1932 9.44237 59.684 23.8015 9.6997 59.7485 23.4165 9.86124 
59.9929 23.6602 9.28099 56.7005 22.7916 10.0007 56.2172 22.1494 9.60704 
58.975 22.4439 9.91084 58.2875 22.2415 9.35853 58.6801 22.866 9.33755 
59.6771 23.1812 9.47067 59.5941 22.5335 10.2876 56.0291 21.2258 9.69463 
58.8369 21.9158 9.49826 59.5817 21.7721 9.9338 59.2719 21.4315 9.12732 
55.7993 20.5494 9.75292 55.5502 20.8928 9.34954 55.2937 20.1852 9.4151 
59.8332 21.0744 9.51889 60.1445 20.3729 9.58859 55.7115 19.8003 10.0135 
[...]
CELL_DATA 40320
SCALARS scalars float
LOOKUP_TABLE default
1022 1022 1022 1022 1022 1022 1022 1022 1022 
1022 1022 1022 1022 1022 1022 1022 1022 1022 
1022 1022 1022 1022 1022 1022 1022 1022 1022 
1022 1022 1022 1022 1022 1022 1022 1022 1022 
1022 1022 1022 1022 1022 1022 1022 1022 1022 
1022 1022 1022 1022 1022 1022 1022 1022 1022 
1022 1022 1022 1022 1022 1022 1022 1022 1022 
1022 1022 1022 1022 1022 1022 1022 1022 1022 
1022 1022 1022 1022 1022 1022 1022 1022 1022 
1022 1022 1022 1022 1022 1022 1022 1022 1022 
1022 1022 1022 1022 1022 1022 1022 1022 1022 
1022 1022 1022 1022 1022 1022 1022 1022 1022 
1022 1022 1022 1022 1022 1022 1022 1022 1022 
1022 1022 1022 1022 1022 1022 1022 1022 1022 
1022 1022 1022 1022 1022 1022 1022 1022 1022 
1022 1022 1022 1022 1022 1022 1022 1022 1022 
1022 1022 1022 1022 1022 1022 1022 1022 1022 
1022 1022 1022 1022 1022 1022 1022 1022 1022 
1022 1022 1022 1022 1022 1022 1022 1022 1022 
1022 1022 1022 1022 1022 1022 1022 1022 1022 
1022 1022 1022 1022 1022 1022 1022 1022 1022 
1022 1022 1022 1022 1022 1022 1022 1022 1022 
1022 1022 1022 1022 1022 1022 1022 1022 1022 
1022 1022 1022 1022 1022 1022 1022 1022 1022 
1022 1022 1022 1022 1022 1022 1022 1022 1022 
1022 1022 1022 1022 1022 1022 1022 1022 1022 
1022 1022 1022 1022 1022 1022 1022 1022 1022 
1022 1022 1022 1022 1022 1022 1022 1022 1022 
1022 1022 1022 1022 1022 1022 1022 1022 1022 
1022 1022 1022 1022 1022 1022 1022 1022 1022 
1022 1022 1022 1022 1022 1022 1022 1022 1022 
1022 1022 1022 1022 1022 1022 1022 1022 1022 
1022 1022 1022 1022 1022 1022 1022 1022 1022 
1022 1022 1022 1022 1022 1022 1022 1022 1022 
1022 1022 1022 1022 1022 1022 1022 1022 1022 
1022 1022 1022 1022 1022 1022 1022 1022 1022 
1022 1022 1022 1022 1022 1022 1022 1022 1022 
1022 1022 1022 1022 1022 1022 1022 1022 1022 
1022 1022 1022 1022 1022 1022 1022 1022 1022 
1022 1022 1022 1022 1022 1022 1022 1022 1022 
1022 1022 1022 1022 1022 1022 1022 1022 1022 
1022 1022 1022 1022 1022 1022 1022 1022 1022 
1022 1022 1022 1022 1022 1022 1022 1022 1022 
1022 1022 1022 1022 1022 1022 1022 1022 1022 
1022 1022 1022 1022 1022 1022 1022 1022 1022 
1022 1022 1022 1022 1022 1022 1022 1022 1022 
1022 1022 1022 1022 1022 1022 1022 1022 1022 
1022 1022 1022 1022 1022 1022 1022 1022 1022 
1022 1022 1022 1022 1022 1022 1022 1022 1022 
1022 1022 1022 1022 1022 1022 1022 1022 1022 
1022 1022 1022 1022 1022 1022 1022 1022 1022 
1022 1022 1022 1022 1022 1022 1022 1022 1022 
1022 1022 1022 1022 1022 1022 1022 1022 1022 
1022 1022 1022 1022 1022 1022 1022 1022 1022 
1022 1022 1022 1022 1022 1022 1022 1022 1022 
1022 1022 1022 1022 1022 1022 1022 1022 1022 
1022 1022 1022 1022 1022 1022 1022 1022 1022 
1022 1022 1022 1022 1022 1022 1022 1022 1022 
1022 1022 1022 1022 1022 1022 1022 1022 1022 
1022 1022 1022 1022 1022 1022 1022 1022 1022 
1022 1022 1022 1022 1022 1022 1022 1022 1022 
1022 1022 1022 1022 1022 1022 1022 1022 1022 
1022 1022 1022 1022 1022 1022 1022 1022 1022 
1022 1022 1022 1022 1022 1022 1022 1022 1022 
1022 1022 1022 1022 1022 1022 1022 1022 1022 
1022 1022 1022 1022 1022 1022 1022 1022 1022 
1022 1022 1022 1022 1022 1022 1022 1022 1022 
1022 1022 1022 1022 1022 1022 1022 1022 1022 
1022 1022 1022 1022 1022 1022 1022 1022 1022 
1022 1022 1022 1022 1022 1022 1022 1022 1022 
1022 1022 1022 1022 1022 1022 1022 1022 1022 
1022 1022 1022 1022 1022 1022 1022 1022 1022 
1022 1022 1022 1022 1022 1022 1022 1022 1022 
1022 1022 1022 1022 1022 1022 1022 1022 1022 
1022 1022 1022 1022 1022 1022 1022 1022 1022 
1022 1022 1022 1022 1022 1022 1022 1022 1022 
1022 1022 1022 1022 1022 1022 1022 1022 1022 
1022 1022 1022 1022 1022 1022 1022 1022 1022 
1022 1022 1022 1022 1022 1022 1022 1022 1022 
1022 1022 1022 1022 1022 1022 1022 1022 1022 
1022 1022 1022 1022 1022 1022 1022 1022 1022 
1022 1022 1022 1022 1022 1022 1022 1022 1022 
1022 1022 1022 1022 1022 1022 1022 1022 1022 
1022 1022 1022 1022 1022 1022 1022 1022 1022 
1022 1022 1022 1022 1022 1022 1022 1022 1022 
1022 1022 1022 1022 1022 1022 1022 1022 1022 
1022 1022 1022 1022 1022 1022 1022 1022 1022 
1022 1022 1022 1022 1022 1022 1022 1022 1022 
1022 1022 1022 1022 1022 1022 1022 1022 1022 
1022 1022 1022 1022 1022 1022 1022 1022 1022 
1022 1022 1022 1022 1022 1022 1022 1022 1022 
1022 1022 1022 1022 1022 1022 1022 1022 1022 
1022 1022 1022 1022 1022 1022 1022 1022 1022 
1022 1022 1022 1022 1022 1022 1022 1022 1022 
1022 1022 1022 1022 1022 1022 1022 1022 1022 
1022 1022 1022 1022 1022 1022 1022 1022 1022 
1022 1022 1022 1022 1022 1022 1022 1022 1022 
1022 1022 1022 1022 1022 1022 1022 1022 1022 
1022 1022 1022 1022 1022 1022 1022 1022 1022 
1022 1022 1022 1022 1022 1022 1022 1022 1022 
1022 1022 1022 1022 1022 1022 1022 1022 1022 
1022 1022 1022 1022 1022 1022 1022 1022 1022 
1022 1022 1022 1022 1022 1022 1022 1022 1022 
1022 1022 1022 1022 1022 1022 1022 1022 1022 
1022 1022 1022 1022 1022 1022 1022 1022 1022 
1022 1022 1022 1022 1022 1022 1022 1022 1022 
1022 1022 1022 1022 1022 1022 1022 1022 1022 
1022 1022 1022 1022 1022 1022 1022 1022 1022 
1022 1022 1022 1022 1022 1022 1022 1022 1022 
1022 1022 1022 1022 1022 1022 1022 1022 1022 
1022 1022 1022 1022 1022 1022 1022 1022 1022 
1022 1022 1022 1022 1022 1022 1022 1022 1022 
1022 1022 1022 1022 1022 1022 1022 1022 1022 
1022 1022 1022 1022 1022 1022 1022 1022 1022 
1022 1022 1022 1022 1022 1022 1022 1022 1022 
1022 1022 1022 1022 1022 1022 1022 1022 1022 
1022 1022 1022 1022 1022 1022 1022 1022 1022 
1022 1022 1022 1022 1022 1022 1022 1022 1022 
1022 1022 1022 1022 1022 1022 1022 1022 1022 
1022 1022 1022 1022 1022 1022 1022 1022 1022 
1022 1022 1022 1022 1022 1022 1022 1022 1022 
1022 1022 1022 1022 1022 1022 1022 1022 1022 
1022 1022 1022 1022 1022 1022 1022 1022 1022 
1022 1022 1022 1022 1022 1022 1022 1022 1022 
1022 1022 1022 1022 1022 1022 1022 1022 1022 
1022 1022 1022 1022 1022 1022 1022 1022 1022 
1022 1022 1022 1022 1022 1022 1022 1022 1022 
1022 1022 1022 1022 1022 1022 1022 1022 1022 
1022 1022 1022 1022 1022 1022 1022 1022 1022 
1022 1022 1022 1022 1022 1022 1022 1022 1022 
1022 1022 1022 1022 1022 1022 1022 1022 1022 
1022 1022 1022 1022 1022 1022 1022 1022 1022 
1022 1022 1022 1022 1022 1022 1022 1022 1022 
1022 1022 1022 1022 1022 1022 1022 1022 1022 
1022 1022 1022 1022 1022 1022 1022 1022 1022 
1022 1022 1022 1022 1022 1022 1022 1022 1022 
1022 1022 1022 1022 1022 1022 1022 1022 1022 
1022 1022 1022 1022 1022 1022 1022 1022 1022 
1022 1022 1022 1022 1022 1022 1022 1022 1022 
1022 1022 1022 1022 1022 1022 1022 1022 1022 
1022 1022 1022 1022 1022 1022 1022 1022 1022 
1022 1022 1022 1022 1022 1022 1022 1022 1022 
1022 1022 1022 1022 1022 1022 1022 1022 1022 
1022 1022 1022 1022 1022 1022 1022 1022 1022 
1022 1022 1022 1022 1022 1022 1022 1022 1022 
1022 1022 1022 1022 1022 1022 1022 1022 1022 
1022 1022 1022 1022 1022 1022 1022 1022 1022 
1022 1022 1022 1022 1022 1022 1022 1022 1022 
1022 1022 1022 1022 1022 1022 1022 1022 1022 
1022 1022 1022 1022 1022 1022 1022 1022 1022 
1022 1022 1022 1022 1022 1022 1022 1022 1022 
1022 1022 1022 1022 1022 1022 1022 1022 1022 
1022 1022 1022 1022 1022 1022 1022 1022 1022 
1022 1022 1022 1022 1022 1022 1022 1022 1022 
1022 1022 1022 1022 1022 1022 1022 1022 1022 
1022 1022 1022 1022 1022 1022 1022 1022 1022 
1022 1022 1022 1022 1022 1022 1022 1022 1022 
1022 1022 1022 1022 1022 1022 1022 1022 1022 
1022 1022 1022 1022 1022 1022 1022 1022 1022 
1022 1022 1022 1022 1022 1022 1022 1022 1022 
1022 1022 1022 1022 1022 1022 1022 1022 1022 
1022 1022 1022 1022 1022 1022 1022 1022 1022 
1022 1022 1022 1022 1022 1022 1022 1022 1022 
1022 1022 1022 1022 1022 1022 1022 1022 1022 
1022 1022 1022 1022 1022 1022 1022 1022 1022 
1022 1022 1022 1022 1022 1022 1022 1022 1022 
1022 1022 1022 1022 1022 1022 1022 1022 1022 
1022 1022 1022 1022 1022 1022 1022 1022 1022 
1022 1022 1022 1022 1022 1022 1022 1022 1022 
1022 1022 1022 1022 1022 1022 1022 1022 1022 
1022 1022 1022 1022 1022 1022 1022 1022 1022 
1022 1022 1022 1022 1022 1022 1022 1022 1022 
1022 1022 1022 1022 1022 1022 1022 1022 1022 
1022 1022 1022 1022 1022 1022 1022 1022 1022 
1022 1022 1022 1022 1022 1022 1022 1022 1022 
1022 1022 1022 1022 1022 1022 1022 1022 1022 
1022 1022 1022 1022 1022 1022 1022 1022 1022 
1022 1022 1022 1022 1022 1022 1022 1022 1022 
1022 1022 1022 1022 1022 1022 1022 1022 1022 
1022 1022 1022 1022 1022 1022 1022 1022 1022 
1022 1022 1022 1022 1022 1022 1022 1022 1022 
1022 1022 1022 1022 1022 1022 1022 1022 1022 
1022 1022 1022 1022 1022 1022 1022 1022 1022 
1022 1022 1022 1022 1022 1022 1022 1022 1022 
1022 1022 1022 1022 1022 1022 1022 1022 1022 
1022 1022 1022 1022 1022 1022 1022 1022 1022 
1022 1022 1022 1022 1022 1022 1022 1022 1022 
1022 1022 1022 1022 1022 1022 1022 1022 1022 
1022 1022 1022 1022 1022 1022 1022 1022 1022 
1022 1022 1022 1022 1022 1022 1022 1022 1022 
1022 1022 1022 1022 1022 1022 1022 1022 1022 
1022 1022 1022 1022 1022 1022 1022 1022 1022 
1022 1022 1022 1022 1022 1022 1022 1022 1022 
1022 1022 1022 1022 1022 1022 1022 1022 1022 
1022 1022 1022 1022 1022 1022 1022 1022 1022 
1022 1022 1022 1022 1022 1022 1022 1022 1022 
1022 1022 1022 1022 1022 1022 1022 1022 1022 
1022 1022 1022 1022 1022 1022 1022 1022 1022 
1022 1022 1022 1022 1022 1022 1022 1022 1022 
1022 1022 1022 1022 1022 1022 1022 1022 1022 
1022 1022 1022 1022 1022 1022 1022 1022 1022 
1022 1022 1022 1022 1022 1022 1022 1022 1022 
1022 1022 1022 1022 1022 1022 1022 1022 1022 
1022 1022 1022 1022 1022 1022 1022 1022 1022 
1022 1022 1022 1022 1022 1022 1022 1022 1022 
1022 1022 1022 1022 1022 1022 1022 1022 1022 
1022 1022 1022 1022 1022 1022 1022 1022 1022 
1022 1022 1022 1022 1022 1022 1022 1022 1022 
1022 1022 1022 1022 1022 1022 1022 1022 1022 
1022 1022 1022 1022 1022 1022 1022 1022 1022 
1022 1022 1022 1022 1022 1022 1022 1022 1022 
1022 1022 1022 1022 1022 1022 1022 1022 1022 
1022 1022 1022 1022 1022 1022 1022 1022 1022 
1022 1022 1022 1022 1022 1022 1022 1022 1022 
1022 1022 1022 1022 1022 1022 1022 1022 1022 
1022 1022 1022 1022 1022 1022 1022 1022 1022 
1022 1022 1022 1022 1022 1022 1022 1022 1022 
1022 1022 1022 1022 1022 1022 1022 1022 1022 
1022 1022 1022 1022 1022 1022 1022 1022 1022 
1022 1022 1022 1022 1022 1022 1022 1022 1022 
1022 1022 1022 1022 1022 1022 1022 1022 1022 
1022 1022 1022 1022 1022 1022 1022 1022 1022 
1022 1022 1022 1022 1022 1022 1022 1022 1022 
1022 1022 1022 1022 1022 1022 1022 1022 1022 
1022 1022 1022 1022 1022 1022 1022 1022 1022 
1022 1022 1022 1022 1022 1022 1022 1022 1022 
1022 1022 1022 1022 1022 1022 1022 1022 1022 
1022 1022 1022 1022 1022 1022 1022 1022 1022 
1022 1022 1022 1022 1022 1022 1022 1022 1022 
1022 1022 1022 1022 1022 1022 1022 1022 1022 
1022 1022 1022 1022 1022 1022 1022 1022 1022 
1022 1022 1022 1022 1022 1022 1022 1022 1022 
1022 1022 1022 1022 1022 1022 1022 1022 1022 
1022 1022 1022 1022 1022 1022 1022 1022 1022 
1022 1022 1022 1022 1022 1022 1022 1022 1022 
1022 1022 1022 1022 1022 1022 1022 1022 1022 
1022 1022 1022 1022 1022 1022 1022 1022 1022 
1022 1022 1022 1022 1022 1022 1022 1022 1022 
1022 1022 1022 1022 1022 1022 1022 1022 1022 
1022 1022 1022 1022 1022 1022 1022 1022 1022 
1022 1022 1022 1022 1022 1022 1022 1022 1022 
1022 1022 1022 1022 1022 1022 1022 1022 1022 
1022 1022 1022 1022 1022 1022 1022 1022 1022 
1022 1022 1022 1022 1022 1022 1022 1022 1022 
1022 1022 1022 1022 1022 1022 1022 1022 1022 
1022 1022 1022 1022 1022 1022 1022 1022 1022 
1022 1022 1022 1022 1022 1022 1022 1022 1022 
1022 1022 1022 1022 1022 1022 1022 1022 1022 
1022 1022 1022 1022 1022 1022 1022 1022 1022 
1022 1022 1022 1022 1022 1022 1022 1022 1022 
1022 1022 1022 1022 1022 1022 1022 1022 1022 
1022 1022 1022 1022 1022 1022 1022 1022 1022 
1022 1022 1022 1022 1022 1022 1022 1022 1022 
1022 1022 1022 1022 1022 1022 1022 1022 1022 
1022 1022 1022 1022 1022 1022 1022 1022 1022 
1022 1022 1022 1022 1022 1022 1022 1022 1022 
1022 1022 1022 1022 1022 1022 1022 1022 1022 
1022 1022 1022 1022 1022 1022 1022 1022 1022 
1022 1022 1022 1022 1022 1022 1022 1022 1022 
1022 1022 1022 1022 1022 1022 1022 1022 1022 
1022 1022 1022 1022 1022 1022 1022 1022 1022 
1022 1022 1022 1022 1022 1022 1022 1022 1022 
1022 1022 1022 1022 1022 1022 1022 1022 1022 
1022 1022 1022 1022 1022 1022 1022 1022 1022 
1022 1022 1022 1022 1022 1022 1022 1022 1022 
1022 1022 1022 1022 1022 1022 1022 1022 1022 
1022 1022 1022 1022 1022 1022 1022 1022 1022 
1022 1022 1022 1022 1022 1022 1022 1022 1022 
1022 1022 1022 1022 1022 1022 1022 1022 1022 
1022 1022 1022 1022 1022 1022 1022 1022 1022 
1022 1022 1022 1022 1022 1022 1022 1022 1022 
1022 1022 1022 1022 1022 1022 1022 1022 1022 
1022 1022 1022 1022 1022 1022 1022 1022 1022 
1022 1022 1022 1022 1022 1022 1022 1022 1022 
1022 1022 1022 1022 1022 1022 1022 1022 1022 
1022 1022 1022 1022 1022 1022 1022 1022 1022 
1022 1022 1022 1022 1022 1022 1022 1022 1022 
1022 1022 1022 1022 1022 1022 1022 1022 1022 
1022 1022 1022 1022 1022 1022 1022 1022 1022 
1022 1022 1022 1022 1022 1022 1022 1022 1022 
1022 1022 1022 1022 1022 1022 1022 1022 1022 
1022 1022 1022 1022 1022 1022 1022 1022 1022 
1022 1022 1022 1022 1022 1022 1022 1022 1022 
1022 1022 1022 1022 1022 1022 1022 1022 1022 
1022 1022 1022 1022 1022 1022 1022 1022 1022 
1022 1022 1022 1022 1022 1022 1022 1022 1022 
1022 1022 1022 1022 1022 1022 1022 1022 1022 
1022 1022 1022 1022 1022 1022 1022 1022 1022 
1022 1022 1022 1022 1022 1022 1022 1022 1022 
1022 1022 1022 1022 1022 1022 1022 1022 1022 
1022 1022 1022 1022 1022 1022 1022 1022 1022 
1022 1022 1022 1022 1022 1022 1022 1022 1022 
1022 1022 1022 1022 1022 1022 1022 1022 1022 
1022 1022 1022 1022 1022 1022 1022 1022 1022 
1022 1022 1022 1022 1022 1022 1022 1022 1022 
1022 1022 1022 1022 1022 1022 1022 1022 1022 
1022 1022 1022 1022 1022 1022 1022 1022 1022 
1022 1022 1022 1022 1022 1022 1022 1022 1022 
1022 1022 1022 1022 1022 1022 1022 1022 1022 
1022 1022 1022 1022 1022 1022 1022 1022 1022 
1022 1022 1022 1022 1022 1022 1022 1022 1022 
1022 1022 1022 1022 1022 1022 1022 1022 1022 
1022 1022 1022 1022 1022 1022 1022 1022 1022 
1022 1022 1022 1022 1022 1022 1022 1022 1022 
1022 1022 1022 1022 1022 1022 1022 1022 1022 
1022 1022 1022 1022 1022 1022 1022 1022 1022 
1022 1022 1022 1022 1022 1022 1022 1022 1022 
1022 1022 1022 1022 1022 1022 1022 1022 1022 
1022 1022 1022 1022 1022 1022 1022 1022 1022 
1022 1022 1022 1022 1022 1022 1022 1022 1022 
1022 1022 1022 1022 1022 1022 1022 1022 1022 
1022 1022 1022 1022 1022 1022 1022 1022 1022 
1022 1022 1022 1022 1022 1022 1022 1022 1022 
1022 1022 1022 1022 1022 1022 1022 1022 1022 
1022 1022 1022 1022 1022 1022 1022 1022 1022 
1022 1022 1022 1022 1022 1022 1022 1022 1022 
1022 1022 1022 1022 1022 1022 1022 1022 1022 
1022 1022 1022 1022 1022 1022 1022 1022 1022 
1022 1022 1022 1022 1022 1022 1022 1022 1022 
1022 1022 1022 1022 1022 1022 1022 1022 1022 
1022 1022 1022 1022 1022 1022 1022 1022 1022 
1022 1022 1022 1022 1022 1022 1022 1022 1022 
1022 1022 1022 1022 1022 1022 1022 1022 1022 
1022 1022 1022 1022 1022 1022 1022 1022 1022 
1022 1022 1022 1022 1022 1022 1022 1022 1022 
1022 1022 1022 1022 1022 1022 1022 1022 1022 
1022 1022 1022 1022 1022 1022 1022 1022 1022 
1022 1022 1022 1022 1022 1022 1022 1022 1022 
1022 1022 1022 1022 1022 1022 1022 1022 1022 
1022 1022 1022 1022 1022 1022 1022 1022 1022 
1022 1022 1022 1022 1022 1022 1022 1022 1022 
1022 1022 1022 1022 1022 1022 1022 1022 1022 
1022 1022 1022 1022 1022 1022 1022 1022 1022 
1022 1022 1022 1022 1022 1022 1022 1022 1022 
1022 1022 1022 1022 1022 1022 1022 1022 1022 
1022 1022 1022 1022 1022 1022 1022 1022 1022 
1022 1022 1022 1022 1022 1022 1022 1022 1022 
1022 1022 1022 1022 1022 1022 1022 1022 1022 
1022 1022 1022 1022 1022 1022 1022 1022 1022 
1022 1022 1022 1022 1022 1022 1022 1022 1022 
1022 1022 1022 1022 1022 1022 1022 1022 1022 
1022 1022 1022 1022 1022 1022 1022 1022 1022 
1022 1022 1022 1022 1022 1022 1022 1022 1022 
1022 1022 1022 1022 1022 1022 1022 1022 1022 
1022 1022 1022 1022 1022 1022 1022 1022 1022 
1022 1022 1022 1022 1022 1022 1022 1022 1022 
1022 1022 1022 1022 1022 1022 1022 1022 1022 
1022 1022 1022 1022 1022 1022 1022 1022 1022 
1022 1022 1022 1022 1022 1022 1022 1022 1022 
1022 1022 1022 1022 1022 1022 1022 1022 1022 
1022 1022 1022 1022 1022 1022 1022 1022 1022 
1022 1022 1022 1022 1022 1022 1022 1022 1022 
1022 1022 1022 1022 1022 1022 1022 1022 1022 
1022 1022 1022 1022 1022 1022 1022 1022 1022 
1022 1022 1022 1022 1022 1022 1022 1022 1022 
1022 1022 1022 1022 1022 1022 1022 1022 1022 
1022 1022 1022 1022 1022 1022 1022 1022 1022 
1022 1022 1022 1022 1022 1022 1022 1022 1022 
1022 1022 1022 1022 1022 1022 1022 1022 1022 
1022 1022 1022 1022 1022 1022 1022 1022 1022 
1022 1022 1022 1022 1022 1022 1022 1022 1022 
1022 1022 1022 1022 1022 1022 1022 1022 1022 
1022 1022 1022 1022 1022 1022 1022 1022 1022 
1022 1022 1022 1022 1022 1022 1022 1022 1022 
1022 1022 1022 1022 1022 1022 1022 1022 1022 
1022 1022 1022 1022 1022 1022 1022 1022 1022 
1022 1022 1022 1022 1022 1022 1022 1022 1022 
1022 1022 1022 1022 1022 1022 1022 1022 1022 
1022 1022 1022 1022 1022 1022 1022 1022 1022 
1022 1022 1022 1022 1022 1022 1022 1022 1022 
1022 1022 1022 1022 1022 1022 1022 1022 1022 
1022 1022 1022 1022 1022 1022 1022 1022 1022 
1022 1022 1022 1022 1022 1022 1022 1022 1022 
1022 1022 1022 1022 1022 1022 1022 1022 1022 
1022 1022 1022 1022 1022 1022 1022 1022 1022 
1022 1022 1022 1022 1022 1022 1022 1022 1022 
1022 1022 1022 1022 1022 1022 1022 1022 1022 
1022 1022 1022 1022 1022 1022 1022 1022 1022 
1022 1022 1022 1022 1022 1022 1022 1022 1022 
1022 1022 1022 1022 1022 1022 1022 1022 1022 
1022 1022 1022 1022 1022 1022 1022 1022 1022 
1022 1022 1022 1022 1022 1022 1022 1022 1022 
1022 1022 1022 1022 1022 1022 1022 1022 1022 
1022 1022 1022 1022 1022 1022 1022 1022 1022 
1022 1022 1022 1022 1022 1022 1022 1022 1022 
1022 1022 1022 1022 1022 1022 1022 1022 1022 
1022 1022 1022 1022 1022 1022 1022 1022 1022 
1022 1022 1022 1022 1022 1022 1022 1022 1022 
1022 1022 1022 1022 1022 1022 1022 1022 1022 
1022 1022 1022 1022 1022 1022 1022 1022 1022 
1022 1022 1022 1022 1022 1022 1022 1022 1022 
1022 1022 1022 1022 1022 1022 1022 1022 1022 
1022 1022 1022 1022 1022 1022 1022 1022 1022 
1022 1022 1022 1022 1022 1022 1022 1022 1022 
1022 1022 1022 1022 1022 1022 1022 1022 1022 
1022 1022 1022 1022 1022 1022 1022 1022 1022 
1022 1022 1022 1022 1022 1022 1022 1022 1022 
1022 1022 1022 1022 1022 1022 1022 1022 1022 
1022 1022 1022 1022 1022 1022 1022 1022 1022 
1022 1022 1022 1022 1022 1022 1022 1022 1022 
1022 1022 1022 1022 1022 1022 1022 1022 1022 
1022 1022 1022 1022 1022 1022 1022 1022 1022 
1022 1022 1022 1022 1022 1022 1022 1022 1022 
1022 1022 1022 1022 1022 1022 1022 1022 1022 
1022 1022 1022 1022 1022 1022 1022 1022 1022 
1022 1022 1022 1022 1022 1022 1022 1022 1022 
1022 1022 1022 1022 1022 1022 1022 1022 1022 
1022 1022 1022 1022 1022 1022 1022 1022 1022 
1022 1022 1022 1022 1022 1022 1022 1022 1022 
1022 1022 1022 1022 1022 1022 1022 1022 1022 
1022 1022 1022 1022 1022 1022 1022 1022 1022 
1022 1022 1022 1022 1022 1022 1022 1022 1022 
1022 1022 1022 1022 1022 1022 1022 1022 1022 
1022 1022 1022 1022 1022 1022 1022 1022 1022 
1022 1022 1022 1022 1022 1022 1022 1022 1022 
1022 1022 1022 1022 1022 1022 1022 1022 1022 
1022 1022 1022 1022 1022 1022 1022 1022 1022 
1022 1022 1022 1022 1022 1022 1022 1022 1022 
1022 1022 1022 1022 1022 1022 1022 1022 1022 
1022 1022 1022 1022 1022 1022 1022 1022 1022 
1022 1022 1022 1022 1022 1022 1022 1022 1022 
1022 1022 1022 1022 1022 1022 1022 1022 1022 
1022 1022 1022 1022 1022 1022 1022 1022 1022 
1022 1022 1022 1022 1022 1022 1022 1022 1022 
1022 1022 1022 1022 1022 1022 1022 1022 1022 
1022 1022 1022 1022 1022 1022 1022 1022 1022 
1022 1022 1022 1022 1022 1022 1022 1022 1022 
1022 1022 1022 1022 1022 1022 1022 1022 1022 
1022 1022 1022 1022 1022 1022 1022 1022 1022 
1022 1022 1022 1022 1022 1022 1022 1022 1022 
1022 1022 1022 1022 1022 1022 1022 1022 1022 
1022 1022 1022 1022 1022 1022 1022 1022 1022 
1022 1022 1022 1022 1022 1022 1022 1022 1022 