# vtk DataFile Version 4.2
vtk output
ASCII
DATASET POLYDATA
POINTS 5558 float
2.56735 13.9785 4.09326 2.62738 14.2153 3.8274 2.73874 13.9612 3.9695 
2.43209 14.1361 3.82029 2.63398 13.6742 4.07516 2.79102 13.6512 3.82045 
2.33698 13.7323 3.86809 2.6322 13.3058 3.82185 1.95663 13.0817 3.98891 
2.12024 12.983 3.94531 1.95427 12.9342 4.02003 1.8185 12.9727 3.75755 
2.06949 12.6857 3.77976 3.1824 14.7419 3.39798 3.13318 14.8762 3.15952 
3.31452 14.7329 3.29907 2.95604 14.7724 3.24 3.22158 14.5391 3.21436 
2.84843 14.0489 3.4439 2.44108 14.3889 3.29057 2.188 14.1146 3.37194 
2.97713 13.4163 3.4828 1.89546 13.834 3.27751 2.09425 13.2909 3.76469 
1.66445 13.3673 3.28076 3.03785 12.9287 3.54147 3.31085 13.1032 3.27855 
3.45671 12.6538 3.3216 2.56994 12.8129 3.68157 1.66735 12.9196 3.35869 
3.15973 12.4738 3.45775 3.45768 12.3156 3.3194 2.8655 12.3985 3.37458 
2.43853 12.4553 3.46487 2.03034 12.2319 3.5108 2.33536 12.0791 3.32661 
1.74942 12.4862 3.37829 3.29209 12.1307 3.17848 2.03242 11.8471 3.42267 
2.17356 11.6619 3.28626 1.71037 11.8961 3.23287 1.86768 11.5448 3.2955 
3.03549 15.0354 2.70633 3.45143 14.732 2.88913 2.74752 14.565 3.09662 
2.74042 14.9137 2.85109 2.3366 14.7076 2.59925 3.69132 14.0468 2.95045 
3.81724 14.4012 2.72428 4.18469 13.9522 2.56311 3.1474 14.1671 3.12073 
1.94825 14.1419 2.99932 1.9889 14.3727 2.72358 1.64669 14.1478 2.69996 
4.44668 13.6658 2.69754 4.49111 13.5037 2.70716 4.21821 13.5454 2.84732 
3.81644 13.5019 2.9977 3.35099 13.5922 3.128 1.38751 13.4247 2.86711 
1.44602 13.8138 2.85351 1.16353 13.5801 2.501 4.28763 13.2588 2.6697 
4.12867 12.7566 2.63597 3.81457 13.0388 3.00518 1.56194 12.8531 2.84431 
1.3061 13.1426 2.61216 3.73673 12.3639 3.02251 4.08087 12.2456 2.61743 
2.76804 12.1372 3.18394 1.5826 12.228 2.73818 3.73388 11.9769 2.71152 
3.11265 11.6878 2.99083 3.43189 11.6637 2.6802 2.51318 11.6837 3.11881 
1.41475 11.8796 2.76359 1.44239 11.4804 3.01107 1.19598 11.6997 2.56744 
3.14946 11.0942 2.97013 3.38676 11.0041 2.70461 2.60739 11.0931 3.04728 
1.93056 11.1579 3.11978 1.332 10.9746 2.96869 1.09616 11.2552 2.63804 
3.23862 10.6115 2.91863 3.41915 10.3547 2.59823 2.779 10.5607 2.96776 
2.14594 10.5615 2.96794 1.54694 10.5522 2.93356 1.1132 10.6033 2.5943 
3.04687 10.1968 2.74168 2.41426 10.1736 2.64671 1.85029 10.263 2.74604 
1.4184 10.1849 2.58375 3.20127 15.1955 2.35297 3.21986 15.5249 1.88925 
3.52858 15.2543 2.15849 2.80624 15.4031 2.01801 3.80308 14.7327 2.41863 
3.78614 15.0506 2.14046 4.09846 14.7276 2.11783 2.65072 15.0924 2.30512 
2.2417 14.8436 1.90931 4.28941 14.2582 2.26965 4.39857 14.4053 2.09902 
4.54952 14.1885 2.05181 1.95632 14.53 2.16818 1.28616 14.044 2.44059 
1.54397 14.2881 2.16389 1.18468 13.9105 2.11656 5.43888 13.4259 2.33905 
5.4801 13.6794 2.03846 5.78784 13.3107 2.11198 5.1351 13.6996 2.18469 
4.95115 13.3648 2.33773 4.66577 13.5016 2.10266 4.40321 13.5622 2.55966 
4.43958 13.8549 2.13825 4.27817 13.3794 2.30576 1.13139 13.409 2.11408 
5.6388 13.0601 2.30552 5.80131 12.9275 2.01131 5.0763 12.9179 2.36327 
4.47348 13.046 2.3284 4.35714 13.3131 2.09203 1.41909 12.7779 2.36748 
1.22059 13.0344 2.26286 5.49771 12.7516 2.13073 5.03733 12.4922 2.08781 
4.67364 12.2612 2.10995 4.48873 12.4721 2.36497 3.23779 12.1107 2.31819 
3.41603 12.4112 2.09629 3.15096 12.5038 2.15686 2.94652 12.4603 1.98776 
1.55653 12.4195 2.06596 1.43809 12.7123 2.01958 4.98022 11.6738 2.22054 
4.97206 11.8299 2.16395 5.1824 11.6984 2.04387 4.31651 12.0997 2.18288 
4.87378 11.7487 2.06495 3.8179 12.0928 2.11784 3.18226 11.5266 2.46159 
2.91036 11.8815 2.06291 1.36057 12.0031 2.25628 1.12462 11.6414 2.09942 
5.04343 11.5228 1.95637 3.2395 11.0395 2.35668 2.97758 11.2873 2.05342 
1.01747 11.1034 2.10621 3.18374 10.8214 1.92681 3.43962 10.5812 2.24526 
1.00961 10.5696 2.0316 3.24324 9.94763 2.42251 3.42501 9.9896 2.02599 
2.81327 9.87922 2.37152 2.34186 9.91263 2.21689 1.86286 10.0328 2.34419 
1.40723 9.9204 2.27266 1.58694 9.76472 2.07439 1.10717 9.98472 2.09006 
3.09731 9.71476 2.10287 2.65147 9.65929 1.98435 1.27799 9.63447 2.01477 
3.81703 15.2419 1.88289 3.74855 15.5591 1.37287 4.14109 15.2409 1.56773 
3.05327 15.6605 1.41444 2.50174 15.2591 1.85622 2.69409 15.53 1.62697 
2.37535 15.233 1.45367 4.40148 14.709 1.818 4.41429 15.0318 1.51805 
4.71579 14.7326 1.50764 2.17988 14.7888 1.31101 4.89993 14.0212 1.8335 
5.0549 14.4529 1.41443 5.21649 14.1372 1.37537 1.8549 14.4191 1.65282 
1.44616 14.1026 1.78595 1.6649 14.0135 1.41091 5.68968 13.4068 1.79467 
5.38634 13.6967 1.5123 4.46027 13.5722 1.99274 1.33542 13.6462 1.78222 
1.58838 13.4781 1.41074 5.63078 13.2378 1.33549 5.82026 13.0435 1.66237 
3.22219 12.7525 1.82732 3.5379 12.8341 1.54637 3.31196 13.0861 1.34139 
2.94366 12.8862 1.45489 1.35677 13.076 1.86064 1.61099 12.8418 1.52181 
5.61171 12.5633 1.62458 4.96709 12.064 1.88315 5.47956 12.1915 1.5736 
3.65803 12.4951 1.77056 4.01772 12.3442 1.53367 3.78441 12.6277 1.49637 
2.80449 12.3573 1.50825 1.61624 12.2719 1.31236 5.47955 11.8158 1.70892 
5.7409 11.9877 1.38484 5.71174 11.6118 1.38815 4.39066 12.0441 1.68241 
4.77166 11.7599 1.63266 2.89408 11.6491 1.51967 1.37923 11.9619 1.68239 
1.18395 11.4965 1.57619 5.43227 11.4697 1.66446 5.15423 11.4531 1.43964 
2.99726 11.0807 1.64935 1.11966 10.9282 1.58024 3.17511 10.8147 1.56622 
3.46431 10.4238 1.58163 1.11091 10.3094 1.59502 3.48306 9.81552 1.51642 
2.04944 9.67372 1.94642 1.13394 9.75484 1.54297 3.11301 9.53736 1.6925 
2.54986 9.39545 1.70979 2.91205 9.17575 1.40605 2.07053 9.29628 1.69972 
1.54857 9.36828 1.77538 1.18955 9.4216 1.68942 2.43076 9.13642 1.49572 
1.85723 9.0238 1.38834 1.40926 9.16001 1.52568 4.4325 15.2273 1.27646 
4.32948 15.5011 0.870085 4.71636 15.2196 0.897665 3.89953 15.726 0.791222 
3.21738 15.7298 0.916466 2.64241 15.5549 1.09982 2.35337 15.22 0.89447 
4.90881 14.8698 1.16573 5.01525 14.9701 0.695851 5.18396 14.5374 1.01329 
2.19847 14.791 0.725194 5.29693 14.0842 0.929384 1.97973 14.3904 1.06203 
1.77742 14.0059 0.899551 5.4167 13.5676 0.944664 1.67994 13.4891 0.894855 
5.61769 13.2651 0.852557 5.87226 12.8935 1.00874 3.8225 12.813 1.25592 
4.09359 12.9265 0.907031 3.56773 13.2112 0.901552 3.12304 13.1791 0.975398 
2.89776 12.8665 0.902834 1.68146 12.891 0.894855 6.01867 12.2943 1.12721 
6.22835 12.5567 0.709419 6.34425 12.2329 0.775479 5.69975 12.2969 1.40335 
4.4005 12.2801 1.21162 4.69948 12.2609 0.832526 4.44642 12.6326 0.829669 
2.92361 12.2813 0.956355 1.68878 12.3838 0.794417 6.22532 12.0467 0.874887 
5.93005 11.7464 0.882239 4.99152 11.9167 0.71201 4.87409 11.7921 1.16828 
5.19403 11.5709 0.969118 3.08633 11.7526 1.09377 3.137 12.0185 0.88217 
3.40459 11.6123 0.867732 1.43295 11.7598 1.27014 1.61134 11.7744 0.875111 
5.53358 11.4546 1.00643 3.25172 11.1073 1.26278 3.59801 11.053 0.95132 
1.36957 11.2809 1.17697 1.57673 11.118 0.795708 3.67614 10.6079 1.11333 
3.81187 10.7974 0.901373 4.03469 10.4042 0.861818 1.34539 10.6748 1.18495 
1.57718 10.5104 0.804451 3.74034 9.94204 1.1959 4.11613 9.71923 0.917844 
1.3433 10.0372 1.19224 1.65545 9.81024 0.745679 3.74961 9.29421 1.13395 
4.10772 9.11542 0.940324 3.38816 9.39394 1.32523 1.41674 9.33703 1.22999 
1.58301 9.27103 0.82923 3.78078 8.82437 1.06354 4.00525 8.62958 0.878682 
3.2743 8.85531 1.10155 2.5565 8.87391 1.12104 2.90389 8.61234 0.792654 
1.88812 8.59097 1.11572 2.32593 8.51458 0.939592 1.59584 8.70931 0.822826 
3.58764 8.44475 0.800436 3.23787 8.52913 0.816628 1.94701 8.22541 1.06772 
2.17217 8.04293 0.872136 1.43332 8.318 0.969955 1.52252 8.13186 1.06446 
1.27646 8.06592 0.944357 1.7278 7.8332 0.864482 1.3697 7.93546 0.931485 
3.58462 15.9435 0.574429 3.81922 16.1322 0.124507 4.04951 15.889 0.412642 
3.10711 15.8969 0.524643 3.30671 16.0919 0.314777 2.90255 15.9388 0.120859 
4.32208 15.6722 0.472362 4.71493 15.3897 0.426649 2.66735 15.6247 0.49715 
2.35122 15.2359 0.288029 5.04587 15.1199 0.213977 5.22709 14.6698 0.361963 
2.15191 14.8765 0.153346 5.37311 14.0694 0.353439 3.73857 14.0262 0.435809 
3.9443 14.0122 0.347644 3.81819 14.291 0.210599 3.62113 14.1832 0.178752 
1.98355 14.4571 0.495818 1.74143 14.1496 0.248135 5.51708 13.5843 0.538188 
5.58018 13.8568 0.156422 5.7673 13.4204 0.325635 3.83203 13.4951 0.563077 
4.14021 13.5874 0.247792 3.46179 13.5911 0.17542 1.67128 13.5027 0.307379 
6.03473 12.9906 0.343634 4.28843 13.0688 0.575084 4.5808 12.7221 0.451877 
4.40227 13.168 0.114995 3.23937 13.2179 0.505586 3.00975 12.7643 0.443715 
1.75217 12.827 0.321487 6.27282 12.7151 0.247343 6.42086 12.249 0.213496 
4.82112 12.3612 0.362334 3.22166 12.2412 0.586276 3.19659 12.6466 0.198898 
3.46968 12.3057 0.221063 1.77009 12.1394 0.397467 6.24575 11.9206 0.536115 
6.00049 11.6408 0.384233 5.27962 11.6935 0.384096 5.03395 12.0694 0.261909 
3.65142 11.814 0.529303 3.78807 11.9702 0.123601 3.95222 11.569 0.328725 
1.76266 11.5204 0.387859 5.72351 11.4818 0.197466 3.88415 11.1334 0.67755 
4.18384 11.155 0.299625 1.76759 10.9254 0.395297 4.28817 10.6334 0.532983 
4.39519 10.8114 0.315601 4.63893 10.4159 0.289938 1.81412 10.3796 0.454372 
4.47251 9.97014 0.608176 4.81611 9.85416 0.362906 1.93207 9.9879 0.439957 
2.15026 9.81672 0.244711 2.09348 10.1588 0.255675 4.79523 9.34525 0.516847 
5.01057 9.58887 0.313943 5.2236 9.19563 0.287128 4.41273 9.39478 0.729144 
1.93325 9.63636 0.390491 1.77255 9.17611 0.440762 4.91023 8.67459 0.539474 
5.30877 8.52467 0.33566 4.41468 8.75474 0.702402 2.60685 8.65457 0.801091 
1.74817 8.56852 0.289261 5.00814 8.15659 0.519795 5.29861 7.91378 0.322572 
4.58336 8.06235 0.551546 3.99567 8.19293 0.563594 3.53669 8.15206 0.382796 
3.14858 8.29515 0.493222 2.59338 8.18904 0.631618 2.91324 7.90005 0.289046 
1.43661 8.01469 0.737723 1.66348 8.0493 0.33208 4.96113 7.67206 0.452705 
5.19001 7.43463 0.270914 4.6439 7.56101 0.364842 4.18883 7.73384 0.298778 
3.7324 7.90508 0.222194 2.55834 7.62309 0.444072 2.79631 7.38723 0.169121 
2.1511 7.57073 0.572749 1.74845 7.58818 0.424649 4.89511 7.32444 0.279277 
2.40644 7.28721 0.288803 2.09215 7.29048 0.143829 7.34434 15.8604 -0.197168 
[...]
CELL_DATA 11120
SCALARS scalars float
LOOKUP_TABLE default
2017 2017 2017 2017 2017 2017 2017 2017 2017 
2017 2017 2017 2017 2017 2017 2017 2017 2017 
2017 2017 2017 2017 2017 2017 2017 2017 2017 
2017 2017 2017 2017 2017 2017 2017 2017 2017 
2017 2017 2017 2017 2017 2017 2017 2017 2017 
2017 2017 2017 2017 2017 2017 2017 2017 2017 
2017 2017 2017 2017 2017 2017 2017 2017 2017 
2017 2017 2017 2017 2017 2017 2017 2017 2017 
2017 2017 2017 2017 2017 2017 2017 2017 2017 
2017 2017 2017 2017 2017 2017 2017 2017 2017 
2017 2017 2017 2017 2017 2017 2017 2017 2017 
2017 2017 2017 2017 2017 2017 2017 2017 2017 
2017 2017 2017 2017 2017 2017 2017 2017 2017 
2017 2017 2017 2017 2017 2017 2017 2017 2017 
2017 2017 2017 2017 2017 2017 2017 2017 2017 
2017 2017 2017 2017 2017 2017 2017 2017 2017 
2017 2017 2017 2017 2017 2017 2017 2017 2017 
2017 2017 2017 2017 2017 2017 2017 2017 2017 
2017 2017 2017 2017 2017 2017 2017 2017 2017 
2017 2017 2017 2017 2017 2017 2017 2017 2017 
2017 2017 2017 2017 2017 2017 2017 2017 2017 
2017 2017 2017 2017 2017 2017 2017 2017 2017 
2017 2017 2017 2017 2017 2017 2017 2017 2017 
2017 2017 2017 2017 2017 2017 2017 2017 2017 
2017 2017 2017 2017 2017 2017 2017 2017 2017 
2017 2017 2017 2017 2017 2017 2017 2017 2017 
2017 2017 2017 2017 2017 2017 2017 2017 2017 
2017 2017 2017 2017 2017 2017 2017 2017 2017 
2017 2017 2017 2017 2017 2017 2017 2017 2017 
2017 2017 2017 2017 2017 2017 2017 2017 2017 
2017 2017 2017 2017 2017 2017 2017 2017 2017 
2017 2017 2017 2017 2017 2017 2017 2017 2017 
2017 2017 2017 2017 2017 2017 2017 2017 2017 
2017 2017 2017 2017 2017 2017 2017 2017 2017 
2017 2017 2017 2017 2017 2017 2017 2017 2017 
2017 2017 2017 2017 2017 2017 2017 2017 2017 
2017 2017 2017 2017 2017 2017 2017 2017 2017 
2017 2017 2017 2017 2017 2017 2017 2017 2017 
2017 2017 2017 2017 2017 2017 2017 2017 2017 
2017 2017 2017 2017 2017 2017 2017 2017 2017 
2017 2017 2017 2017 2017 2017 2017 2017 2017 
2017 2017 2017 2017 2017 2017 2017 2017 2017 
2017 2017 2017 2017 2017 2017 2017 2017 2017 
2017 2017 2017 2017 2017 2017 2017 2017 2017 
2017 2017 2017 2017 2017 2017 2017 2017 2017 
2017 2017 2017 2017 2017 2017 2017 2017 2017 
2017 2017 2017 2017 2017 2017 2017 2017 2017 
2017 2017 2017 2017 2017 2017 2017 2017 2017 
2017 2017 2017 2017 2017 2017 2017 2017 2017 
2017 2017 2017 2017 2017 2017 2017 2017 2017 
2017 2017 2017 2017 2017 2017 2017 2017 2017 
2017 2017 2017 2017 2017 2017 2017 2017 2017 
2017 2017 2017 2017 2017 2017 2017 2017 2017 
2017 2017 2017 2017 2017 2017 2017 2017 2017 
2017 2017 2017 2017 2017 2017 2017 2017 2017 
2017 2017 2017 2017 2017 2017 2017 2017 2017 
2017 2017 2017 2017 2017 2017 2017 2017 2017 
2017 2017 2017 2017 2017 2017 2017 2017 2017 
2017 2017 2017 2017 2017 2017 2017 2017 2017 
2017 2017 2017 2017 2017 2017 2017 2017 2017 
2017 2017 2017 2017 2017 2017 2017 2017 2017 
2017 2017 2017 2017 2017 2017 2017 2017 2017 
2017 2017 2017 2017 2017 2017 2017 2017 2017 
2017 2017 2017 2017 2017 2017 2017 2017 2017 
2017 2017 2017 2017 2017 2017 2017 2017 2017 
2017 2017 2017 2017 2017 2017 2017 2017 2017 
2017 2017 2017 2017 2017 2017 2017 2017 2017 
2017 2017 2017 2017 2017 2017 2017 2017 2017 
2017 2017 2017 2017 2017 2017 2017 2017 2017 
2017 2017 2017 2017 2017 2017 2017 2017 2017 
2017 2017 2017 2017 2017 2017 2017 2017 2017 
2017 2017 2017 2017 2017 2017 2017 2017 2017 
2017 2017 2017 2017 2017 2017 2017 2017 2017 
2017 2017 2017 2017 2017 2017 2017 2017 2017 
2017 2017 2017 2017 2017 2017 2017 2017 2017 
2017 2017 2017 2017 2017 2017 2017 2017 2017 
2017 2017 2017 2017 2017 2017 2017 2017 2017 
2017 2017 2017 2017 2017 2017 2017 2017 2017 
2017 2017 2017 2017 2017 2017 2017 2017 2017 
2017 2017 2017 2017 2017 2017 2017 2017 2017 
2017 2017 2017 2017 2017 2017 2017 2017 2017 
2017 2017 2017 2017 2017 2017 2017 2017 2017 
2017 2017 2017 2017 2017 2017 2017 2017 2017 
2017 2017 2017 2017 2017 2017 2017 2017 2017 
2017 2017 2017 2017 2017 2017 2017 2017 2017 
2017 2017 2017 2017 2017 2017 2017 2017 2017 
2017 2017 2017 2017 2017 2017 2017 2017 2017 
2017 2017 2017 2017 2017 2017 2017 2017 2017 
2017 2017 2017 2017 2017 2017 2017 2017 2017 
2017 2017 2017 2017 2017 2017 2017 2017 2017 
2017 2017 2017 2017 2017 2017 2017 2017 2017 
2017 2017 2017 2017 2017 2017 2017 2017 2017 
2017 2017 2017 2017 2017 2017 2017 2017 2017 
2017 2017 2017 2017 2017 2017 2017 2017 2017 
2017 2017 2017 2017 2017 2017 2017 2017 2017 
2017 2017 2017 2017 2017 2017 2017 2017 2017 
2017 2017 2017 2017 2017 2017 2017 2017 2017 
2017 2017 2017 2017 2017 2017 2017 2017 2017 
2017 2017 2017 2017 2017 2017 2017 2017 2017 
2017 2017 2017 2017 2017 2017 2017 2017 2017 
2017 2017 2017 2017 2017 2017 2017 2017 2017 
2017 2017 2017 2017 2017 2017 2017 2017 2017 
2017 2017 2017 2017 2017 2017 2017 2017 2017 
2017 2017 2017 2017 2017 2017 2017 2017 2017 
2017 2017 2017 2017 2017 2017 2017 2017 2017 
2017 2017 2017 2017 2017 2017 2017 2017 2017 
2017 2017 2017 2017 2017 2017 2017 2017 2017 
2017 2017 2017 2017 2017 2017 2017 2017 2017 
2017 2017 2017 2017 2017 2017 2017 2017 2017 
2017 2017 2017 2017 2017 2017 2017 2017 2017 
2017 2017 2017 2017 2017 2017 2017 2017 2017 
2017 2017 2017 2017 2017 2017 2017 2017 2017 
2017 2017 2017 2017 2017 2017 2017 2017 2017 
2017 2017 2017 2017 2017 2017 2017 2017 2017 
2017 2017 2017 2017 2017 2017 2017 2017 2017 
2017 2017 2017 2017 2017 2017 2017 2017 2017 
2017 2017 2017 2017 2017 2017 2017 2017 2017 
2017 2017 2017 2017 2017 2017 2017 2017 2017 
2017 2017 2017 2017 2017 2017 2017 2017 2017 
2017 2017 2017 2017 2017 2017 2017 2017 2017 
2017 2017 2017 2017 2017 2017 2017 2017 2017 
2017 2017 2017 2017 2017 2017 2017 2017 2017 
2017 2017 2017 2017 2017 2017 2017 2017 2017 
2017 2017 2017 2017 2017 2017 2017 2017 2017 
2017 2017 2017 2017 2017 2017 2017 2017 2017 
2017 2017 2017 2017 2017 2017 2017 2017 2017 
2017 2017 2017 2017 2017 2017 2017 2017 2017 
2017 2017 2017 2017 2017 2017 2017 2017 2017 
2017 2017 2017 2017 2017 2017 2017 2017 2017 
2017 2017 2017 2017 2017 2017 2017 2017 2017 
2017 2017 2017 2017 2017 2017 2017 2017 2017 
2017 2017 2017 2017 2017 2017 2017 2017 2017 
2017 2017 2017 2017 2017 2017 2017 2017 2017 
2017 2017 2017 2017 2017 2017 2017 2017 2017 
2017 2017 2017 2017 2017 2017 2017 2017 2017 
2017 2017 2017 2017 2017 2017 2017 2017 2017 
2017 2017 2017 2017 2017 2017 2017 2017 2017 
2017 2017 2017 2017 2017 2017 2017 2017 2017 
2017 2017 2017 2017 2017 2017 2017 2017 2017 
2017 2017 2017 2017 2017 2017 2017 2017 2017 
2017 2017 2017 2017 2017 2017 2017 2017 2017 
2017 2017 2017 2017 2017 2017 2017 2017 2017 
2017 2017 2017 2017 2017 2017 2017 2017 2017 
2017 2017 2017 2017 2017 2017 2017 2017 2017 
2017 2017 2017 2017 2017 2017 2017 2017 2017 
2017 2017 2017 2017 2017 2017 2017 2017 2017 
2017 2017 2017 2017 2017 2017 2017 2017 2017 
2017 2017 2017 2017 2017 2017 2017 2017 2017 
2017 2017 2017 2017 2017 2017 2017 2017 2017 
2017 2017 2017 2017 2017 2017 2017 2017 2017 
2017 2017 2017 2017 2017 2017 2017 2017 2017 
2017 2017 2017 2017 2017 2017 2017 2017 2017 
2017 2017 2017 2017 2017 2017 2017 2017 2017 
2017 2017 2017 2017 2017 2017 2017 2017 2017 
2017 2017 2017 2017 2017 2017 2017 2017 2017 
2017 2017 2017 2017 2017 2017 2017 2017 2017 
2017 2017 2017 2017 2017 2017 2017 2017 2017 
2017 2017 2017 2017 2017 2017 2017 2017 2017 
2017 2017 2017 2017 2017 2017 2017 2017 2017 
2017 2017 2017 2017 2017 2017 2017 2017 2017 
2017 2017 2017 2017 2017 2017 2017 2017 2017 
2017 2017 2017 2017 2017 2017 2017 2017 2017 
2017 2017 2017 2017 2017 2017 2017 2017 2017 
2017 2017 2017 2017 2017 2017 2017 2017 2017 
2017 2017 2017 2017 2017 2017 2017 2017 2017 
2017 2017 2017 2017 2017 2017 2017 2017 2017 
2017 2017 2017 2017 2017 2017 2017 2017 2017 
2017 2017 2017 2017 2017 2017 2017 2017 2017 
2017 2017 2017 2017 2017 2017 2017 2017 2017 
2017 2017 2017 2017 2017 2017 2017 2017 2017 
2017 2017 2017 2017 2017 2017 2017 2017 2017 
2017 2017 2017 2017 2017 2017 2017 2017 2017 
2017 2017 2017 2017 2017 2017 2017 2017 2017 
2017 2017 2017 2017 2017 2017 2017 2017 2017 
2017 2017 2017 2017 2017 2017 2017 2017 2017 
2017 2017 2017 2017 2017 2017 2017 2017 2017 
2017 2017 2017 2017 2017 2017 2017 2017 2017 
2017 2017 2017 2017 2017 2017 2017 2017 2017 
2017 2017 2017 2017 2017 2017 2017 2017 2017 
2017 2017 2017 2017 2017 2017 2017 2017 2017 
2017 2017 2017 2017 2017 2017 2017 2017 2017 
2017 2017 2017 2017 2017 2017 2017 2017 2017 
2017 2017 2017 2017 2017 2017 2017 2017 2017 
2017 2017 2017 2017 2017 2017 2017 2017 2017 
2017 2017 2017 2017 2017 2017 2017 2017 2017 
2017 2017 2017 2017 2017 2017 2017 2017 2017 
2017 2017 2017 2017 2017 2017 2017 2017 2017 
2017 2017 2017 2017 2017 2017 2017 2017 2017 
2017 2017 2017 2017 2017 2017 2017 2017 2017 
2017 2017 2017 2017 2017 2017 2017 2017 2017 
2017 2017 2017 2017 2017 2017 2017 2017 2017 
2017 2017 2017 2017 2017 2017 2017 2017 2017 
2017 2017 2017 2017 2017 2017 2017 2017 2017 
2017 2017 2017 2017 2017 2017 2017 2017 2017 
2017 2017 2017 2017 2017 2017 2017 2017 2017 
2017 2017 2017 2017 2017 2017 2017 2017 2017 
2017 2017 2017 2017 2017 2017 2017 2017 2017 
2017 2017 2017 2017 2017 2017 2017 2017 2017 
2017 2017 2017 2017 2017 2017 2017 2017 2017 
2017 2017 2017 2017 2017 2017 2017 2017 2017 
2017 2017 2017 2017 2017 2017 2017 2017 2017 
2017 2017 2017 2017 2017 2017 2017 2017 2017 
2017 2017 2017 2017 2017 2017 2017 2017 2017 
2017 2017 2017 2017 2017 2017 2017 2017 2017 
2017 2017 2017 2017 2017 2017 2017 2017 2017 
2017 2017 2017 2017 2017 2017 2017 2017 2017 
2017 2017 2017 2017 2017 2017 2017 2017 2017 
2017 2017 2017 2017 2017 2017 2017 2017 2017 
2017 2017 2017 2017 2017 2017 2017 2017 2017 
2017 2017 2017 2017 2017 2017 2017 2017 2017 
2017 2017 2017 2017 2017 2017 2017 2017 2017 
2017 2017 2017 2017 2017 2017 2017 2017 2017 
2017 2017 2017 2017 2017 2017 2017 2017 2017 
2017 2017 2017 2017 2017 2017 2017 2017 2017 
2017 2017 2017 2017 2017 2017 2017 2017 2017 
2017 2017 2017 2017 2017 2017 2017 2017 2017 
2017 2017 2017 2017 2017 2017 2017 2017 2017 
2017 2017 2017 2017 2017 2017 2017 2017 2017 
2017 2017 2017 2017 2017 2017 2017 2017 2017 
2017 2017 2017 2017 2017 2017 2017 2017 2017 
2017 2017 2017 2017 2017 2017 2017 2017 2017 
2017 2017 2017 2017 2017 2017 2017 2017 2017 
2017 2017 2017 2017 2017 2017 2017 2017 2017 
2017 2017 2017 2017 2017 2017 2017 2017 2017 
2017 2017 2017 2017 2017 2017 2017 2017 2017 
2017 2017 2017 2017 2017 2017 2017 2017 2017 
2017 2017 2017 2017 2017 2017 2017 2017 2017 
2017 2017 2017 2017 2017 2017 2017 2017 2017 
2017 2017 2017 2017 2017 2017 2017 2017 2017 
2017 2017 2017 2017 2017 2017 2017 2017 2017 
2017 2017 2017 2017 2017 2017 2017 2017 2017 
2017 2017 2017 2017 2017 2017 2017 2017 2017 
2017 2017 2017 2017 2017 2017 2017 2017 2017 
2017 2017 2017 2017 2017 2017 2017 2017 2017 
2017 2017 2017 2017 2017 2017 2017 2017 2017 
2017 2017 2017 2017 2017 2017 2017 2017 2017 
2017 2017 2017 2017 2017 2017 2017 2017 2017 
2017 2017 2017 2017 2017 2017 2017 2017 2017 
2017 2017 2017 2017 2017 2017 2017 2017 2017 
2017 2017 2017 2017 2017 2017 2017 2017 2017 
2017 2017 2017 2017 2017 2017 2017 2017 2017 
2017 2017 2017 2017 2017 2017 2017 2017 2017 
2017 2017 2017 2017 2017 2017 2017 2017 2017 
2017 2017 2017 2017 2017 2017 2017 2017 2017 
2017 2017 2017 2017 2017 2017 2017 2017 2017 
2017 2017 2017 2017 2017 2017 2017 2017 2017 
2017 2017 2017 2017 2017 2017 2017 2017 2017 
2017 2017 2017 2017 2017 2017 2017 2017 2017 
2017 2017 2017 2017 2017 2017 2017 2017 2017 
2017 2017 2017 2017 2017 2017 2017 2017 2017 
2017 2017 2017 2017 2017 2017 2017 2017 2017 
2017 2017 2017 2017 2017 2017 2017 2017 2017 
2017 2017 2017 2017 2017 2017 2017 2017 2017 
2017 2017 2017 2017 2017 2017 2017 2017 2017 
2017 2017 2017 2017 2017 2017 2017 2017 2017 
2017 2017 2017 2017 2017 2017 2017 2017 2017 
2017 2017 2017 2017 2017 2017 2017 2017 2017 
2017 2017 2017 2017 2017 2017 2017 2017 2017 
2017 2017 2017 2017 2017 2017 2017 2017 2017 
2017 2017 2017 2017 2017 2017 2017 2017 2017 
2017 2017 2017 2017 2017 2017 2017 2017 2017 
2017 2017 2017 2017 2017 2017 2017 2017 2017 
2017 2017 2017 2017 2017 2017 2017 2017 2017 
2017 2017 2017 2017 2017 2017 2017 2017 2017 
2017 2017 2017 2017 2017 2017 2017 2017 2017 
2017 2017 2017 2017 2017 2017 2017 2017 2017 
2017 2017 2017 2017 2017 2017 2017 2017 2017 
2017 2017 2017 2017 2017 2017 2017 2017 2017 
2017 2017 2017 2017 2017 2017 2017 2017 2017 
2017 2017 2017 2017 2017 2017 2017 2017 2017 
2017 2017 2017 2017 2017 2017 2017 2017 2017 
2017 2017 2017 2017 2017 2017 2017 2017 2017 
2017 2017 2017 2017 2017 2017 2017 2017 2017 
2017 2017 2017 2017 2017 2017 2017 2017 2017 
2017 2017 2017 2017 2017 2017 2017 2017 2017 
2017 2017 2017 2017 2017 2017 2017 2017 2017 
2017 2017 2017 2017 2017 2017 2017 2017 2017 
2017 2017 2017 2017 2017 2017 2017 2017 2017 
2017 2017 2017 2017 2017 2017 2017 2017 2017 
2017 2017 2017 2017 2017 2017 2017 2017 2017 
2017 2017 2017 2017 2017 2017 2017 2017 2017 
2017 2017 2017 2017 2017 2017 2017 2017 2017 
2017 2017 2017 2017 2017 2017 2017 2017 2017 
2017 2017 2017 2017 2017 2017 2017 2017 2017 
2017 2017 2017 2017 2017 2017 2017 2017 2017 
2017 2017 2017 2017 2017 2017 2017 2017 2017 
2017 2017 2017 2017 2017 2017 2017 2017 2017 
2017 2017 2017 2017 2017 2017 2017 2017 2017 
2017 2017 2017 2017 2017 2017 2017 2017 2017 
2017 2017 2017 2017 2017 2017 2017 2017 2017 
2017 2017 2017 2017 2017 2017 2017 2017 2017 
2017 2017 2017 2017 2017 2017 2017 2017 2017 
2017 2017 2017 2017 2017 2017 2017 2017 2017 
2017 2017 2017 2017 2017 2017 2017 2017 2017 
2017 2017 2017 2017 2017 2017 2017 2017 2017 
2017 2017 2017 2017 2017 2017 2017 2017 2017 
2017 2017 2017 2017 2017 2017 2017 2017 2017 
2017 2017 2017 2017 2017 2017 2017 2017 2017 
2017 2017 2017 2017 2017 2017 2017 2017 2017 
2017 2017 2017 2017 2017 2017 2017 2017 2017 
2017 2017 2017 2017 2017 2017 2017 2017 2017 
2017 2017 2017 2017 2017 2017 2017 2017 2017 
2017 2017 2017 2017 2017 2017 2017 2017 2017 
2017 2017 2017 2017 2017 2017 2017 2017 2017 
2017 2017 2017 2017 2017 2017 2017 2017 2017 
2017 2017 2017 2017 2017 2017 2017 2017 2017 
2017 2017 2017 2017 2017 2017 2017 2017 2017 
2017 2017 2017 2017 2017 2017 2017 2017 2017 
2017 2017 2017 2017 2017 2017 2017 2017 2017 
2017 2017 2017 2017 2017 2017 2017 2017 2017 
2017 2017 2017 2017 2017 2017 2017 2017 2017 
2017 2017 2017 2017 2017 2017 2017 2017 2017 
2017 2017 2017 2017 2017 2017 2017 2017 2017 
2017 2017 2017 2017 2017 2017 2017 2017 2017 
2017 2017 2017 2017 2017 2017 2017 2017 2017 
2017 2017 2017 2017 2017 2017 2017 2017 2017 
2017 2017 2017 2017 2017 2017 2017 2017 2017 
2017 2017 2017 2017 2017 2017 2017 2017 2017 
2017 2017 2017 2017 2017 2017 2017 2017 2017 
2017 2017 2017 2017 2017 2017 2017 2017 2017 
2017 2017 2017 2017 2017 2017 2017 2017 2017 
2017 2017 2017 2017 2017 2017 2017 2017 2017 
2017 2017 2017 2017 2017 2017 2017 2017 2017 
2017 2017 2017 2017 2017 2017 2017 2017 2017 
2017 2017 2017 2017 2017 2017 2017 2017 2017 
2017 2017 2017 2017 2017 2017 2017 2017 2017 
2017 2017 2017 2017 2017 2017 2017 2017 2017 
2017 2017 2017 2017 2017 2017 2017 2017 2017 
2017 2017 2017 2017 2017 2017 2017 2017 2017 
2017 2017 2017 2017 2017 2017 2017 2017 2017 
2017 2017 2017 2017 2017 2017 2017 2017 2017 
2017 2017 2017 2017 2017 2017 2017 2017 2017 
2017 2017 2017 2017 2017 2017 2017 2017 2017 
2017 2017 2017 2017 2017 2017 2017 2017 2017 
2017 2017 2017 2017 2017 2017 2017 2017 2017 
2017 2017 2017 2017 2017 2017 2017 2017 2017 
2017 2017 2017 2017 2017 2017 2017 2017 2017 
2017 2017 2017 2017 2017 2017 2017 2017 2017 
2017 2017 2017 2017 2017 2017 2017 2017 2017 
2017 2017 2017 2017 2017 2017 2017 2017 2017 
2017 2017 2017 2017 2017 2017 2017 2017 2017 
2017 2017 2017 2017 2017 2017 2017 2017 2017 
2017 2017 2017 2017 2017 2017 2017 2017 2017 
2017 2017 2017 2017 2017 2017 2017 2017 2017 
2017 2017 2017 2017 2017 2017 2017 2017 2017 
2017 2017 2017 2017 2017 2017 2017 2017 2017 
2017 2017 2017 2017 2017 2017 2017 2017 2017 
2017 2017 2017 2017 2017 2017 2017 2017 2017 
2017 2017 2017 2017 2017 2017 2017 2017 2017 
2017 2017 2017 2017 2017 2017 2017 2017 2017 
2017 2017 2017 2017 2017 2017 2017 2017 2017 
2017 2017 2017 2017 2017 2017 2017 2017 2017 
2017 2017 2017 2017 2017 2017 2017 2017 2017 
2017 2017 2017 2017 2017 2017 2017 2017 2017 
2017 2017 2017 2017 2017 2017 2017 2017 2017 
2017 2017 2017 2017 2017 2017 2017 2017 2017 
2017 2017 2017 2017 2017 2017 2017 2017 2017 
2017 2017 2017 2017 2017 2017 2017 2017 2017 
2017 2017 2017 2017 2017 2017 2017 2017 2017 
2017 2017 2017 2017 2017 2017 2017 2017 2017 
2017 2017 2017 2017 2017 2017 2017 2017 2017 
2017 2017 2017 2017 2017 2017 2017 2017 2017 
2017 2017 2017 2017 2017 2017 2017 2017 2017 
2017 2017 2017 2017 2017 2017 2017 2017 2017 
2017 2017 2017 2017 2017 2017 2017 2017 2017 
2017 2017 2017 2017 2017 2017 2017 2017 2017 
2017 2017 2017 2017 2017 2017 2017 2017 2017 
2017 2017 2017 2017 2017 2017 2017 2017 2017 
2017 2017 2017 2017 2017 2017 2017 2017 2017 
2017 2017 2017 2017 2017 2017 2017 2017 2017 
2017 2017 2017 2017 2017 2017 2017 2017 2017 
2017 2017 2017 2017 2017 2017 2017 2017 2017 
2017 2017 2017 2017 2017 2017 2017 2017 2017 
2017 2017 2017 2017 2017 2017 2017 2017 2017 
2017 2017 2017 2017 2017 2017 2017 2017 2017 
2017 2017 2017 2017 2017 2017 2017 2017 2017 
2017 2017 2017 2017 2017 2017 2017 2017 2017 
2017 2017 2017 2017 2017 2017 2017 2017 2017 
2017 2017 2017 2017 2017 2017 2017 2017 2017 
2017 2017 2017 2017 2017 2017 2017 2017 2017 
2017 2017 2017 2017 2017 2017 2017 2017 2017 
2017 2017 2017 2017 2017 2017 2017 2017 2017 
2017 2017 2017 2017 2017 2017 2017 2017 2017 
2017 2017 2017 2017 2017 2017 2017 2017 2017 
2017 2017 2017 2017 2017 2017 2017 2017 2017 
2017 2017 2017 2017 2017 2017 2017 2017 2017 
2017 2017 2017 2017 2017 2017 2017 2017 2017 
2017 2017 2017 2017 2017 2017 2017 2017 2017 
2017 2017 2017 2017 2017 2017 2017 2017 2017 
2017 2017 2017 2017 2017 2017 2017 2017 2017 
2017 2017 2017 2017 2017 2017 2017 2017 2017 
2017 2017 2017 2017 2017 2017 2017 2017 2017 
2017 2017 2017 2017 2017 2017 2017 2017 2017 
2017 2017 2017 2017 2017 2017 2017 2017 2017 
2017 2017 2017 2017 2017 2017 2017 2017 2017 
2017 2017 2017 2017 2017 2017 2017 2017 2017 
2017 2017 2017 2017 2017 2017 2017 2017 2017 
2017 2017 2017 2017 2017 2017 2017 2017 2017 
2017 2017 2017 2017 2017 2017 2017 2017 2017 
2017 2017 2017 2017 2017 2017 2017 2017 2017 
2017 2017 2017 2017 2017 2017 2017 2017 2017 
2017 2017 2017 2017 2017 2017 2017 2017 2017 
2017 2017 2017 2017 2017 2017 2017 2017 2017 
2017 2017 2017 2017 2017 2017 2017 2017 2017 
2017 2017 2017 2017 2017 2017 2017 2017 2017 
2017 2017 2017 2017 2017 2017 2017 2017 2017 
2017 2017 2017 2017 2017 2017 2017 2017 2017 
2017 2017 2017 2017 2017 2017 2017 2017 2017 
2017 2017 2017 2017 2017 2017 2017 2017 2017 
2017 2017 2017 2017 2017 2017 2017 2017 2017 
2017 2017 2017 2017 2017 2017 2017 2017 2017 
2017 2017 2017 2017 2017 2017 2017 2017 2017 
2017 2017 2017 2017 2017 2017 2017 2017 2017 
2017 2017 2017 2017 2017 2017 2017 2017 2017 
2017 2017 2017 2017 2017 2017 2017 2017 2017 
2017 2017 2017 2017 2017 2017 2017 2017 2017 
2017 2017 2017 2017 2017 2017 2017 2017 2017 
2017 2017 2017 2017 2017 2017 2017 2017 2017 
2017 2017 2017 2017 2017 2017 2017 2017 2017 
2017 2017 2017 2017 2017 2017 2017 2017 2017 
2017 2017 2017 2017 2017 2017 2017 2017 2017 
2017 2017 2017 2017 2017 2017 2017 2017 2017 
2017 2017 2017 2017 2017 2017 2017 2017 2017 
2017 2017 2017 2017 2017 2017 2017 2017 2017 
2017 2017 2017 2017 2017 2017 2017 2017 2017 
2017 2017 2017 2017 2017 2017 2017 2017 2017 
2017 2017 2017 2017 2017 2017 2017 2017 2017 
2017 2017 2017 2017 2017 2017 2017 2017 2017 
2017 2017 2017 2017 2017 2017 2017 2017 2017 
2017 2017 2017 2017 2017 2017 2017 2017 2017 
2017 2017 2017 2017 2017 2017 2017 2017 2017 
2017 2017 2017 2017 2017 2017 2017 2017 2017 
2017 2017 2017 2017 2017 2017 2017 2017 2017 