# vtk DataFile Version 4.2
vtk output
ASCII
DATASET POLYDATA
POINTS 2456 float
18.6719 -42.4213 16.0845 18.8812 -42.0149 15.8389 19.0183 -42.3149 15.8716 
18.583 -42.1657 15.9014 18.7889 -42.9554 16.1965 19.1514 -42.8939 15.8159 
18.2789 -42.4737 15.9924 18.1162 -42.9026 16.1833 17.4108 -42.9944 16.1737 
17.7738 -42.5765 15.9483 16.8469 -43.0744 16.1255 17.1704 -42.643 15.9401 
16.71 -42.7969 15.9064 19.2363 -43.4473 16.1671 19.3847 -43.3294 15.8608 
19.5914 -43.6726 15.9196 18.7365 -43.5884 16.2746 18.2074 -43.5107 16.2633 
17.5749 -43.5021 16.2549 17.0546 -43.4336 16.2503 16.3383 -43.1136 15.843 
16.562 -43.5673 16.101 16.1132 -43.4576 15.8372 19.4627 -43.9295 16.1006 
19.6394 -44.1945 15.7921 19 -43.9931 16.1709 18.3811 -44.0295 16.1568 
17.7545 -44.0333 16.1464 17.0965 -43.9689 16.1347 16.6187 -44.0062 15.9832 
16.2571 -43.766 15.8897 19.2614 -44.3484 15.9352 18.6589 -44.4053 15.9252 
18.0254 -44.4243 15.9062 17.4133 -44.419 15.9071 16.9063 -44.3159 15.8865 
18.6358 -41.7715 15.6113 18.7675 -41.4274 15.3608 19.094 -41.7881 15.3204 
18.0926 -41.8391 15.5176 18.2691 -41.3704 15.2392 17.8753 -41.65 15.2381 
19.1263 -42.369 15.43 18.1874 -42.1931 15.7658 17.5736 -41.9126 15.2852 
17.5413 -42.2223 15.6337 16.8147 -42.3903 15.6402 16.9869 -42.0622 15.2549 
16.3822 -42.4171 15.4829 16.5169 -42.1486 15.3094 16.2278 -42.2782 15.164 
19.1192 -42.801 15.2374 16.4503 -42.724 15.6868 16.0628 -42.7155 15.2951 
19.4844 -43.5782 15.6077 19.2039 -43.3677 15.2855 15.8539 -43.696 15.593 
15.877 -43.2188 15.4905 15.5564 -43.4402 15.2918 19.3785 -43.8224 15.2448 
19.6264 -43.9886 15.5005 16.3223 -44.2418 15.7161 15.7629 -44.1917 15.5204 
15.4568 -43.9267 15.3187 19.381 -44.7391 15.6643 19.6525 -44.7146 15.3177 
18.8051 -44.7997 15.7155 18.1727 -44.8052 15.6963 17.5736 -44.8129 15.6873 
16.9083 -44.7256 15.6805 16.3927 -44.7181 15.6145 15.9753 -44.7266 15.5069 
15.4977 -44.4942 15.3136 19.4575 -45.1737 15.4631 19.6543 -45.4385 15.1427 
18.885 -45.312 15.5594 18.198 -45.3085 15.6088 17.6902 -45.2306 15.6013 
17.1588 -45.3463 15.5293 16.4957 -45.1658 15.4903 16.0379 -45.1923 15.3524 
15.6776 -44.9494 15.2815 19.2597 -45.6065 15.311 18.7568 -45.7337 15.3833 
18.4994 -45.9423 15.3285 18.2969 -45.762 15.4925 17.6819 -45.7619 15.4926 
17.2296 -45.8347 15.3515 16.7866 -45.6517 15.2982 16.3181 -45.4897 15.2639 
18.1585 -46.1707 15.2315 17.5228 -46.1266 15.2765 18.7856 -41.1716 15.0276 
18.8038 -40.9082 14.5643 19.1404 -41.2341 14.6004 18.2651 -41.0482 14.9983 
18.2616 -40.7629 14.5475 17.8837 -41.0688 14.7589 19.3628 -41.5028 14.8874 
19.46 -41.4993 14.6901 19.528 -41.6529 14.7086 17.522 -41.7323 14.9912 
17.5931 -41.3966 14.7321 17.2518 -41.6679 14.6365 19.3968 -41.8151 14.8077 
19.1459 -42.3349 14.789 17.036 -41.8892 14.7885 16.4004 -42.0543 14.7792 
15.9884 -42.3138 14.7219 19.0977 -43.0048 14.8086 15.6725 -42.5717 14.7139 
15.5543 -42.9914 15.0605 15.1577 -43.0496 14.874 15.3018 -42.7382 14.7195 
15.0281 -42.8848 14.5824 19.0858 -43.4014 14.6171 15.2138 -43.5533 15.0236 
14.938 -43.3196 14.6348 19.4252 -44.2808 15.0618 19.0839 -43.9121 14.7074 
15.1615 -44.2349 15.0384 14.8551 -43.9319 14.6453 19.4849 -44.75 14.9129 
19.1356 -44.5112 14.7068 15.26 -44.8724 15.0269 14.8617 -44.5727 14.7372 
19.3288 -44.9565 14.6684 19.6342 -45.2101 14.8589 15.7223 -45.4287 15.1163 
15.178 -45.4111 14.9256 14.8786 -45.2453 14.6633 19.4684 -45.8518 14.9873 
19.6003 -45.7347 14.7279 18.9199 -45.9866 15.0934 16.9922 -46.1298 15.1302 
16.3034 -45.9092 15.0869 15.6806 -45.9992 15.0276 15.2538 -45.9057 14.9342 
14.9719 -45.798 14.7154 19.2696 -46.0747 14.6633 18.714 -46.2874 14.786 
18.1576 -46.5749 14.9464 18.4852 -46.5219 14.5219 17.5241 -46.5422 15.0981 
16.8987 -46.6276 15.0236 16.4904 -46.4173 15.0076 15.9347 -46.5153 14.9479 
15.3577 -46.4308 14.8826 14.9882 -46.3863 14.5698 18.1217 -46.8163 14.7256 
17.858 -47.1191 14.5555 17.7257 -46.9617 14.9197 17.1455 -47.0469 14.9505 
16.483 -46.9683 14.9042 15.9952 -47.0203 14.7813 15.549 -46.8765 14.7334 
15.1565 -46.8144 14.6099 17.455 -47.2871 14.745 16.9239 -47.4278 14.6755 
16.3213 -47.3299 14.6941 18.1833 -40.437 14.2865 18.209 -40.1753 14.0304 
18.4163 -40.4882 14.0231 17.9406 -40.3804 14.0102 18.6649 -40.8404 14.1512 
18.911 -41.0104 14.2278 17.5623 -41.1063 14.4486 17.6845 -40.8676 14.2638 
17.3407 -41.1521 14.0175 19.2206 -41.7391 14.5126 18.8585 -41.3652 14.1298 
18.7722 -41.88 14.2415 18.6278 -41.7715 13.9917 16.901 -41.7428 14.3581 
17.0162 -41.4957 14.1307 16.6277 -41.6818 13.9911 18.8974 -42.2932 14.3245 
18.658 -42.1998 14.1402 16.4196 -41.8902 14.1664 15.656 -42.3257 14.3254 
15.8467 -42.0881 14.114 15.4107 -42.2461 13.9804 18.8203 -42.4635 14.0345 
19.0294 -42.8358 14.1937 15.2618 -42.5467 14.3005 14.93 -42.8404 14.0811 
19.0227 -43.497 14.0297 14.7557 -43.4202 14.1003 18.8158 -43.8821 14.1555 
18.7586 -44.2726 14.3647 18.5921 -44.0807 13.9724 14.5995 -43.8575 14.233 
14.5702 -44.3069 14.4032 14.4026 -43.9923 13.9692 18.8936 -44.8753 14.4 
18.4459 -44.583 13.9634 14.5788 -44.8698 14.4283 14.3563 -44.5447 14.0439 
19.3552 -45.3694 14.5234 18.9748 -45.4434 14.2588 18.6017 -45.2388 14.0239 
14.6284 -45.3523 14.3281 14.3308 -45.108 14.0242 19.2826 -45.8382 14.3851 
18.9826 -45.8302 14.134 18.7596 -45.6532 13.9884 14.7781 -45.8624 14.3173 
14.4966 -45.5672 14.0773 18.9275 -46.1819 14.2864 18.5289 -46.4107 13.9315 
14.7716 -46.4146 14.1163 18.2084 -46.8081 14.2686 17.9238 -47.2402 13.9675 
15.8096 -47.3483 14.5534 15.24 -47.2191 14.4338 14.8682 -46.9563 14.2058 
17.5123 -47.4798 14.3403 17.0779 -47.7029 14.3474 17.392 -47.7799 14.0556 
16.4717 -47.6715 14.4401 15.9034 -47.7455 14.3607 15.3881 -47.6725 14.3115 
14.9118 -47.5372 14.1224 16.9337 -47.9286 13.9935 16.2531 -47.948 14.0731 
15.6284 -47.9671 14.0561 15.0519 -47.923 13.9608 18.1412 -39.9185 13.7715 
18.1904 -39.7821 13.5274 18.3255 -39.9953 13.6643 18.0329 -39.969 13.5862 
18.5709 -40.4231 13.4099 17.8064 -40.312 13.4435 18.7855 -41.0544 13.9469 
18.6581 -41.1059 13.7398 17.5679 -40.7578 13.713 17.2897 -41.0217 13.3192 
18.8466 -41.3577 13.4148 18.9468 -41.7648 13.4245 18.7209 -41.6852 13.7186 
16.9275 -41.3504 13.4768 16.2779 -41.7477 13.7199 16.4583 -41.5329 13.5096 
16.0105 -41.6657 13.3815 18.7498 -42.1272 13.8556 18.9492 -42.3121 13.5303 
15.8849 -41.8731 13.6366 15.1193 -42.3713 13.8458 15.3621 -42.0215 13.5804 
14.9731 -42.2583 13.43 19.0388 -42.9805 13.5043 14.815 -42.8974 13.4165 
19.0437 -43.6167 13.3553 14.6189 -43.3003 13.5561 14.531 -43.598 13.8769 
14.4062 -43.577 13.4598 18.7895 -43.827 13.6956 18.5185 -44.147 13.6555 
14.281 -44.078 13.502 18.3347 -44.4557 13.4758 18.1814 -44.7631 13.678 
18.0533 -44.8674 13.359 14.1728 -44.623 13.4909 18.1191 -44.9976 13.5491 
18.3063 -45.1355 13.7033 14.0527 -45.0541 13.6217 14.1035 -45.4989 13.7766 
13.8125 -45.1737 13.3604 18.7678 -45.9946 13.9357 18.4811 -45.8722 13.5828 
14.4417 -46.0316 13.9162 13.9864 -45.9905 13.7206 13.6761 -45.7223 13.4209 
18.4259 -46.6094 13.3648 14.5041 -46.6945 13.8834 14.0652 -46.5048 13.7395 
13.6549 -46.349 13.5377 18.2293 -46.8713 13.6874 18.0538 -47.296 13.3747 
14.5767 -47.2432 13.9185 14.1768 -47.1775 13.7102 13.6992 -46.9281 13.539 
17.6774 -47.6403 13.8906 17.8164 -47.6588 13.4578 14.5711 -47.6716 13.8175 
14.2702 -47.6566 13.5247 13.8422 -47.4124 13.3259 17.4333 -47.9295 13.5609 
16.9399 -48.0288 13.4376 16.4244 -48.0264 13.5356 15.7916 -48.0452 13.5468 
15.1766 -48.0556 13.5188 14.6502 -47.9349 13.4915 18.1994 -40.0257 13.2626 
18.7951 -40.5232 13.1308 18.6037 -40.2626 12.9028 18.9256 -40.6483 12.9513 
18.1929 -40.0496 12.9157 17.6808 -40.1475 12.8695 17.5399 -40.6041 13.2518 
17.3149 -40.6232 12.8793 18.8308 -40.8783 13.2436 19.1317 -41.1788 12.8182 
17.1656 -41.0002 12.8742 19.0122 -41.784 12.9099 17.0025 -41.2663 13.0151 
16.5725 -41.3484 12.9754 15.5647 -41.6845 13.2207 15.9412 -41.408 12.9777 
15.1526 -41.7711 13.1834 15.2024 -41.3824 12.7879 14.8703 -41.7737 12.916 
18.826 -42.0856 12.9769 18.8043 -42.4855 13.1742 18.6402 -42.283 12.782 
14.835 -42.3803 12.8913 18.8794 -42.946 13.133 18.6023 -42.8253 12.7687 
14.8179 -42.8908 12.7768 18.8438 -43.1871 12.9253 19.0471 -43.4636 12.9651 
14.5562 -43.197 12.9341 14.2586 -43.5876 12.9173 18.7566 -44.0553 13.2792 
19.021 -44.0166 12.8441 14.1511 -44.0652 12.9612 18.6466 -44.4006 12.9697 
18.2554 -44.6591 13.1572 18.4333 -44.6925 12.7078 13.9132 -44.3902 12.8325 
13.9408 -44.8032 13.2527 13.6825 -44.7862 12.8947 18.1165 -45.3931 13.303 
18.0988 -44.897 12.9717 17.9564 -45.2178 12.9035 13.5444 -45.2434 12.9929 
18.2247 -45.9573 13.1155 17.9604 -45.7864 12.7648 13.4012 -45.6491 13.0283 
13.3533 -46.1223 13.1955 13.1812 -45.7962 12.7618 18.1535 -46.2682 12.8023 
18.3792 -46.4174 13.0414 13.3349 -46.7042 13.2656 13.1111 -46.3927 12.841 
18.268 -47.0328 13.235 18.352 -46.9368 12.9309 13.4207 -47.1495 13.2549 
13.1494 -46.9591 12.8741 18.1879 -47.2882 12.9777 17.925 -47.5901 12.8084 
14.2516 -47.7507 13.0785 13.872 -47.5392 12.7414 13.4264 -47.3292 12.8807 
17.5432 -47.9594 12.9173 17.0247 -48.038 12.9209 16.4195 -48.0221 12.9163 
15.7908 -48.0287 12.9152 15.1794 -48.0446 12.8965 14.6634 -47.9682 12.9175 
17.6072 -39.4458 12.5136 17.6243 -39.1501 12.2273 17.8644 -39.3601 12.3429 
17.4063 -39.2509 12.2229 18.104 -39.8536 12.5991 18.166 -39.6105 12.1343 
18.3684 -39.9175 12.2566 17.6437 -39.8071 12.6502 17.2832 -39.7204 12.3079 
18.9394 -40.6187 12.6052 18.6199 -40.2677 12.3536 16.9085 -40.7345 12.5409 
17.0239 -40.2155 12.2945 16.6709 -40.4679 12.1924 19.4428 -41.1071 12.4674 
19.2436 -40.9085 12.2927 19.5107 -41.1178 12.3041 18.9146 -40.5992 12.2974 
16.8644 -41.1335 12.7247 16.4642 -40.7184 12.3212 16.3492 -41.0572 12.5932 
15.6311 -41.0961 12.5886 15.9364 -40.7986 12.3019 15.2027 -41.0796 12.5231 
15.2203 -40.7887 12.1958 14.8533 -41.0824 12.3203 19.4245 -41.2566 12.3818 
19.1395 -41.5494 12.2187 14.6039 -41.8972 12.5867 14.6699 -41.4289 12.4814 
14.3931 -41.5662 12.167 18.7995 -41.9885 12.4863 18.5767 -42.3709 12.3232 
14.6745 -42.3563 12.5146 14.3489 -42.1062 12.206 18.3831 -42.7582 12.1865 
[...]
CELL_DATA 4908
SCALARS scalars float
LOOKUP_TABLE default
2033 2033 2033 2033 2033 2033 2033 2033 2033 
2033 2033 2033 2033 2033 2033 2033 2033 2033 
2033 2033 2033 2033 2033 2033 2033 2033 2033 
2033 2033 2033 2033 2033 2033 2033 2033 2033 
2033 2033 2033 2033 2033 2033 2033 2033 2033 
2033 2033 2033 2033 2033 2033 2033 2033 2033 
2033 2033 2033 2033 2033 2033 2033 2033 2033 
2033 2033 2033 2033 2033 2033 2033 2033 2033 
2033 2033 2033 2033 2033 2033 2033 2033 2033 
2033 2033 2033 2033 2033 2033 2033 2033 2033 
2033 2033 2033 2033 2033 2033 2033 2033 2033 
2033 2033 2033 2033 2033 2033 2033 2033 2033 
2033 2033 2033 2033 2033 2033 2033 2033 2033 
2033 2033 2033 2033 2033 2033 2033 2033 2033 
2033 2033 2033 2033 2033 2033 2033 2033 2033 
2033 2033 2033 2033 2033 2033 2033 2033 2033 
2033 2033 2033 2033 2033 2033 2033 2033 2033 
2033 2033 2033 2033 2033 2033 2033 2033 2033 
2033 2033 2033 2033 2033 2033 2033 2033 2033 
2033 2033 2033 2033 2033 2033 2033 2033 2033 
2033 2033 2033 2033 2033 2033 2033 2033 2033 
2033 2033 2033 2033 2033 2033 2033 2033 2033 
2033 2033 2033 2033 2033 2033 2033 2033 2033 
2033 2033 2033 2033 2033 2033 2033 2033 2033 
2033 2033 2033 2033 2033 2033 2033 2033 2033 
2033 2033 2033 2033 2033 2033 2033 2033 2033 
2033 2033 2033 2033 2033 2033 2033 2033 2033 
2033 2033 2033 2033 2033 2033 2033 2033 2033 
2033 2033 2033 2033 2033 2033 2033 2033 2033 
2033 2033 2033 2033 2033 2033 2033 2033 2033 
2033 2033 2033 2033 2033 2033 2033 2033 2033 
2033 2033 2033 2033 2033 2033 2033 2033 2033 
2033 2033 2033 2033 2033 2033 2033 2033 2033 
2033 2033 2033 2033 2033 2033 2033 2033 2033 
2033 2033 2033 2033 2033 2033 2033 2033 2033 
2033 2033 2033 2033 2033 2033 2033 2033 2033 
2033 2033 2033 2033 2033 2033 2033 2033 2033 
2033 2033 2033 2033 2033 2033 2033 2033 2033 
2033 2033 2033 2033 2033 2033 2033 2033 2033 
2033 2033 2033 2033 2033 2033 2033 2033 2033 
2033 2033 2033 2033 2033 2033 2033 2033 2033 
2033 2033 2033 2033 2033 2033 2033 2033 2033 
2033 2033 2033 2033 2033 2033 2033 2033 2033 
2033 2033 2033 2033 2033 2033 2033 2033 2033 
2033 2033 2033 2033 2033 2033 2033 2033 2033 
2033 2033 2033 2033 2033 2033 2033 2033 2033 
2033 2033 2033 2033 2033 2033 2033 2033 2033 
2033 2033 2033 2033 2033 2033 2033 2033 2033 
2033 2033 2033 2033 2033 2033 2033 2033 2033 
2033 2033 2033 2033 2033 2033 2033 2033 2033 
2033 2033 2033 2033 2033 2033 2033 2033 2033 
2033 2033 2033 2033 2033 2033 2033 2033 2033 
2033 2033 2033 2033 2033 2033 2033 2033 2033 
2033 2033 2033 2033 2033 2033 2033 2033 2033 
2033 2033 2033 2033 2033 2033 2033 2033 2033 
2033 2033 2033 2033 2033 2033 2033 2033 2033 
2033 2033 2033 2033 2033 2033 2033 2033 2033 
2033 2033 2033 2033 2033 2033 2033 2033 2033 
2033 2033 2033 2033 2033 2033 2033 2033 2033 
2033 2033 2033 2033 2033 2033 2033 2033 2033 
2033 2033 2033 2033 2033 2033 2033 2033 2033 
2033 2033 2033 2033 2033 2033 2033 2033 2033 
2033 2033 2033 2033 2033 2033 2033 2033 2033 
2033 2033 2033 2033 2033 2033 2033 2033 2033 
2033 2033 2033 2033 2033 2033 2033 2033 2033 
2033 2033 2033 2033 2033 2033 2033 2033 2033 
2033 2033 2033 2033 2033 2033 2033 2033 2033 
2033 2033 2033 2033 2033 2033 2033 2033 2033 
2033 2033 2033 2033 2033 2033 2033 2033 2033 
2033 2033 2033 2033 2033 2033 2033 2033 2033 
2033 2033 2033 2033 2033 2033 2033 2033 2033 
2033 2033 2033 2033 2033 2033 2033 2033 2033 
2033 2033 2033 2033 2033 2033 2033 2033 2033 
2033 2033 2033 2033 2033 2033 2033 2033 2033 
2033 2033 2033 2033 2033 2033 2033 2033 2033 
2033 2033 2033 2033 2033 2033 2033 2033 2033 
2033 2033 2033 2033 2033 2033 2033 2033 2033 
2033 2033 2033 2033 2033 2033 2033 2033 2033 
2033 2033 2033 2033 2033 2033 2033 2033 2033 
2033 2033 2033 2033 2033 2033 2033 2033 2033 
2033 2033 2033 2033 2033 2033 2033 2033 2033 
2033 2033 2033 2033 2033 2033 2033 2033 2033 
2033 2033 2033 2033 2033 2033 2033 2033 2033 
2033 2033 2033 2033 2033 2033 2033 2033 2033 
2033 2033 2033 2033 2033 2033 2033 2033 2033 
2033 2033 2033 2033 2033 2033 2033 2033 2033 
2033 2033 2033 2033 2033 2033 2033 2033 2033 
2033 2033 2033 2033 2033 2033 2033 2033 2033 
2033 2033 2033 2033 2033 2033 2033 2033 2033 
2033 2033 2033 2033 2033 2033 2033 2033 2033 
2033 2033 2033 2033 2033 2033 2033 2033 2033 
2033 2033 2033 2033 2033 2033 2033 2033 2033 
2033 2033 2033 2033 2033 2033 2033 2033 2033 
2033 2033 2033 2033 2033 2033 2033 2033 2033 
2033 2033 2033 2033 2033 2033 2033 2033 2033 
2033 2033 2033 2033 2033 2033 2033 2033 2033 
2033 2033 2033 2033 2033 2033 2033 2033 2033 
2033 2033 2033 2033 2033 2033 2033 2033 2033 
2033 2033 2033 2033 2033 2033 2033 2033 2033 
2033 2033 2033 2033 2033 2033 2033 2033 2033 
2033 2033 2033 2033 2033 2033 2033 2033 2033 
2033 2033 2033 2033 2033 2033 2033 2033 2033 
2033 2033 2033 2033 2033 2033 2033 2033 2033 
2033 2033 2033 2033 2033 2033 2033 2033 2033 
2033 2033 2033 2033 2033 2033 2033 2033 2033 
2033 2033 2033 2033 2033 2033 2033 2033 2033 
2033 2033 2033 2033 2033 2033 2033 2033 2033 
2033 2033 2033 2033 2033 2033 2033 2033 2033 
2033 2033 2033 2033 2033 2033 2033 2033 2033 
2033 2033 2033 2033 2033 2033 2033 2033 2033 
2033 2033 2033 2033 2033 2033 2033 2033 2033 
2033 2033 2033 2033 2033 2033 2033 2033 2033 
2033 2033 2033 2033 2033 2033 2033 2033 2033 
2033 2033 2033 2033 2033 2033 2033 2033 2033 
2033 2033 2033 2033 2033 2033 2033 2033 2033 
2033 2033 2033 2033 2033 2033 2033 2033 2033 
2033 2033 2033 2033 2033 2033 2033 2033 2033 
2033 2033 2033 2033 2033 2033 2033 2033 2033 
2033 2033 2033 2033 2033 2033 2033 2033 2033 
2033 2033 2033 2033 2033 2033 2033 2033 2033 
2033 2033 2033 2033 2033 2033 2033 2033 2033 
2033 2033 2033 2033 2033 2033 2033 2033 2033 
2033 2033 2033 2033 2033 2033 2033 2033 2033 
2033 2033 2033 2033 2033 2033 2033 2033 2033 
2033 2033 2033 2033 2033 2033 2033 2033 2033 
2033 2033 2033 2033 2033 2033 2033 2033 2033 
2033 2033 2033 2033 2033 2033 2033 2033 2033 
2033 2033 2033 2033 2033 2033 2033 2033 2033 
2033 2033 2033 2033 2033 2033 2033 2033 2033 
2033 2033 2033 2033 2033 2033 2033 2033 2033 
2033 2033 2033 2033 2033 2033 2033 2033 2033 
2033 2033 2033 2033 2033 2033 2033 2033 2033 
2033 2033 2033 2033 2033 2033 2033 2033 2033 
2033 2033 2033 2033 2033 2033 2033 2033 2033 
2033 2033 2033 2033 2033 2033 2033 2033 2033 
2033 2033 2033 2033 2033 2033 2033 2033 2033 
2033 2033 2033 2033 2033 2033 2033 2033 2033 
2033 2033 2033 2033 2033 2033 2033 2033 2033 
2033 2033 2033 2033 2033 2033 2033 2033 2033 
2033 2033 2033 2033 2033 2033 2033 2033 2033 
2033 2033 2033 2033 2033 2033 2033 2033 2033 
2033 2033 2033 2033 2033 2033 2033 2033 2033 
2033 2033 2033 2033 2033 2033 2033 2033 2033 
2033 2033 2033 2033 2033 2033 2033 2033 2033 
2033 2033 2033 2033 2033 2033 2033 2033 2033 
2033 2033 2033 2033 2033 2033 2033 2033 2033 
2033 2033 2033 2033 2033 2033 2033 2033 2033 
2033 2033 2033 2033 2033 2033 2033 2033 2033 
2033 2033 2033 2033 2033 2033 2033 2033 2033 
2033 2033 2033 2033 2033 2033 2033 2033 2033 
2033 2033 2033 2033 2033 2033 2033 2033 2033 
2033 2033 2033 2033 2033 2033 2033 2033 2033 
2033 2033 2033 2033 2033 2033 2033 2033 2033 
2033 2033 2033 2033 2033 2033 2033 2033 2033 
2033 2033 2033 2033 2033 2033 2033 2033 2033 
2033 2033 2033 2033 2033 2033 2033 2033 2033 
2033 2033 2033 2033 2033 2033 2033 2033 2033 
2033 2033 2033 2033 2033 2033 2033 2033 2033 
2033 2033 2033 2033 2033 2033 2033 2033 2033 
2033 2033 2033 2033 2033 2033 2033 2033 2033 
2033 2033 2033 2033 2033 2033 2033 2033 2033 
2033 2033 2033 2033 2033 2033 2033 2033 2033 
2033 2033 2033 2033 2033 2033 2033 2033 2033 
2033 2033 2033 2033 2033 2033 2033 2033 2033 
2033 2033 2033 2033 2033 2033 2033 2033 2033 
2033 2033 2033 2033 2033 2033 2033 2033 2033 
2033 2033 2033 2033 2033 2033 2033 2033 2033 
2033 2033 2033 2033 2033 2033 2033 2033 2033 
2033 2033 2033 2033 2033 2033 2033 2033 2033 
2033 2033 2033 2033 2033 2033 2033 2033 2033 
2033 2033 2033 2033 2033 2033 2033 2033 2033 
2033 2033 2033 2033 2033 2033 2033 2033 2033 
2033 2033 2033 2033 2033 2033 2033 2033 2033 
2033 2033 2033 2033 2033 2033 2033 2033 2033 
2033 2033 2033 2033 2033 2033 2033 2033 2033 
2033 2033 2033 2033 2033 2033 2033 2033 2033 
2033 2033 2033 2033 2033 2033 2033 2033 2033 
2033 2033 2033 2033 2033 2033 2033 2033 2033 
2033 2033 2033 2033 2033 2033 2033 2033 2033 
2033 2033 2033 2033 2033 2033 2033 2033 2033 
2033 2033 2033 2033 2033 2033 2033 2033 2033 
2033 2033 2033 2033 2033 2033 2033 2033 2033 
2033 2033 2033 2033 2033 2033 2033 2033 2033 
2033 2033 2033 2033 2033 2033 2033 2033 2033 
2033 2033 2033 2033 2033 2033 2033 2033 2033 
2033 2033 2033 2033 2033 2033 2033 2033 2033 
2033 2033 2033 2033 2033 2033 2033 2033 2033 
2033 2033 2033 2033 2033 2033 2033 2033 2033 
2033 2033 2033 2033 2033 2033 2033 2033 2033 
2033 2033 2033 2033 2033 2033 2033 2033 2033 
2033 2033 2033 2033 2033 2033 2033 2033 2033 
2033 2033 2033 2033 2033 2033 2033 2033 2033 
2033 2033 2033 2033 2033 2033 2033 2033 2033 
2033 2033 2033 2033 2033 2033 2033 2033 2033 
2033 2033 2033 2033 2033 2033 2033 2033 2033 
2033 2033 2033 2033 2033 2033 2033 2033 2033 
2033 2033 2033 2033 2033 2033 2033 2033 2033 
2033 2033 2033 2033 2033 2033 2033 2033 2033 
2033 2033 2033 2033 2033 2033 2033 2033 2033 
2033 2033 2033 2033 2033 2033 2033 2033 2033 
2033 2033 2033 2033 2033 2033 2033 2033 2033 
2033 2033 2033 2033 2033 2033 2033 2033 2033 
2033 2033 2033 2033 2033 2033 2033 2033 2033 
2033 2033 2033 2033 2033 2033 2033 2033 2033 
2033 2033 2033 2033 2033 2033 2033 2033 2033 
2033 2033 2033 2033 2033 2033 2033 2033 2033 
2033 2033 2033 2033 2033 2033 2033 2033 2033 
2033 2033 2033 2033 2033 2033 2033 2033 2033 
2033 2033 2033 2033 2033 2033 2033 2033 2033 
2033 2033 2033 2033 2033 2033 2033 2033 2033 
2033 2033 2033 2033 2033 2033 2033 2033 2033 
2033 2033 2033 2033 2033 2033 2033 2033 2033 
2033 2033 2033 2033 2033 2033 2033 2033 2033 
2033 2033 2033 2033 2033 2033 2033 2033 2033 
2033 2033 2033 2033 2033 2033 2033 2033 2033 
2033 2033 2033 2033 2033 2033 2033 2033 2033 
2033 2033 2033 2033 2033 2033 2033 2033 2033 
2033 2033 2033 2033 2033 2033 2033 2033 2033 
2033 2033 2033 2033 2033 2033 2033 2033 2033 
2033 2033 2033 2033 2033 2033 2033 2033 2033 
2033 2033 2033 2033 2033 2033 2033 2033 2033 
2033 2033 2033 2033 2033 2033 2033 2033 2033 
2033 2033 2033 2033 2033 2033 2033 2033 2033 
2033 2033 2033 2033 2033 2033 2033 2033 2033 
2033 2033 2033 2033 2033 2033 2033 2033 2033 
2033 2033 2033 2033 2033 2033 2033 2033 2033 
2033 2033 2033 2033 2033 2033 2033 2033 2033 
2033 2033 2033 2033 2033 2033 2033 2033 2033 
2033 2033 2033 2033 2033 2033 2033 2033 2033 
2033 2033 2033 2033 2033 2033 2033 2033 2033 
2033 2033 2033 2033 2033 2033 2033 2033 2033 
2033 2033 2033 2033 2033 2033 2033 2033 2033 
2033 2033 2033 2033 2033 2033 2033 2033 2033 
2033 2033 2033 2033 2033 2033 2033 2033 2033 
2033 2033 2033 2033 2033 2033 2033 2033 2033 
2033 2033 2033 2033 2033 2033 2033 2033 2033 
2033 2033 2033 2033 2033 2033 2033 2033 2033 
2033 2033 2033 2033 2033 2033 2033 2033 2033 
2033 2033 2033 2033 2033 2033 2033 2033 2033 
2033 2033 2033 2033 2033 2033 2033 2033 2033 
2033 2033 2033 2033 2033 2033 2033 2033 2033 
2033 2033 2033 2033 2033 2033 2033 2033 2033 
2033 2033 2033 2033 2033 2033 2033 2033 2033 
2033 2033 2033 2033 2033 2033 2033 2033 2033 
2033 2033 2033 2033 2033 2033 2033 2033 2033 
2033 2033 2033 2033 2033 2033 2033 2033 2033 
2033 2033 2033 2033 2033 2033 2033 2033 2033 
2033 2033 2033 2033 2033 2033 2033 2033 2033 
2033 2033 2033 2033 2033 2033 2033 2033 2033 
2033 2033 2033 2033 2033 2033 2033 2033 2033 
2033 2033 2033 2033 2033 2033 2033 2033 2033 
2033 2033 2033 2033 2033 2033 2033 2033 2033 
2033 2033 2033 2033 2033 2033 2033 2033 2033 
2033 2033 2033 2033 2033 2033 2033 2033 2033 
2033 2033 2033 2033 2033 2033 2033 2033 2033 
2033 2033 2033 2033 2033 2033 2033 2033 2033 
2033 2033 2033 2033 2033 2033 2033 2033 2033 
2033 2033 2033 2033 2033 2033 2033 2033 2033 
2033 2033 2033 2033 2033 2033 2033 2033 2033 
2033 2033 2033 2033 2033 2033 2033 2033 2033 
2033 2033 2033 2033 2033 2033 2033 2033 2033 
2033 2033 2033 2033 2033 2033 2033 2033 2033 
2033 2033 2033 2033 2033 2033 2033 2033 2033 
2033 2033 2033 2033 2033 2033 2033 2033 2033 
2033 2033 2033 2033 2033 2033 2033 2033 2033 
2033 2033 2033 2033 2033 2033 2033 2033 2033 
2033 2033 2033 2033 2033 2033 2033 2033 2033 
2033 2033 2033 2033 2033 2033 2033 2033 2033 
2033 2033 2033 2033 2033 2033 2033 2033 2033 
2033 2033 2033 2033 2033 2033 2033 2033 2033 
2033 2033 2033 2033 2033 2033 2033 2033 2033 
2033 2033 2033 2033 2033 2033 2033 2033 2033 
2033 2033 2033 2033 2033 2033 2033 2033 2033 
2033 2033 2033 2033 2033 2033 2033 2033 2033 
2033 2033 2033 2033 2033 2033 2033 2033 2033 
2033 2033 2033 2033 2033 2033 2033 2033 2033 
2033 2033 2033 2033 2033 2033 2033 2033 2033 
2033 2033 2033 2033 2033 2033 2033 2033 2033 
2033 2033 2033 2033 2033 2033 2033 2033 2033 
2033 2033 2033 2033 2033 2033 2033 2033 2033 
2033 2033 2033 2033 2033 2033 2033 2033 2033 
2033 2033 2033 2033 2033 2033 2033 2033 2033 
2033 2033 2033 2033 2033 2033 2033 2033 2033 
2033 2033 2033 2033 2033 2033 2033 2033 2033 
2033 2033 2033 2033 2033 2033 2033 2033 2033 
2033 2033 2033 2033 2033 2033 2033 2033 2033 
2033 2033 2033 2033 2033 2033 2033 2033 2033 
2033 2033 2033 2033 2033 2033 2033 2033 2033 
2033 2033 2033 2033 2033 2033 2033 2033 2033 
2033 2033 2033 2033 2033 2033 2033 2033 2033 
2033 2033 2033 2033 2033 2033 2033 2033 2033 
2033 2033 2033 2033 2033 2033 2033 2033 2033 
2033 2033 2033 2033 2033 2033 2033 2033 2033 
2033 2033 2033 2033 2033 2033 2033 2033 2033 
2033 2033 2033 2033 2033 2033 2033 2033 2033 
2033 2033 2033 2033 2033 2033 2033 2033 2033 
2033 2033 2033 2033 2033 2033 2033 2033 2033 
2033 2033 2033 2033 2033 2033 2033 2033 2033 
2033 2033 2033 2033 2033 2033 2033 2033 2033 
2033 2033 2033 2033 2033 2033 2033 2033 2033 
2033 2033 2033 2033 2033 2033 2033 2033 2033 
2033 2033 2033 2033 2033 2033 2033 2033 2033 
2033 2033 2033 2033 2033 2033 2033 2033 2033 
2033 2033 2033 2033 2033 2033 2033 2033 2033 
2033 2033 2033 2033 2033 2033 2033 2033 2033 
2033 2033 2033 2033 2033 2033 2033 2033 2033 
2033 2033 2033 2033 2033 2033 2033 2033 2033 
2033 2033 2033 2033 2033 2033 2033 2033 2033 
2033 2033 2033 2033 2033 2033 2033 2033 2033 
2033 2033 2033 2033 2033 2033 2033 2033 2033 
2033 2033 2033 2033 2033 2033 2033 2033 2033 
2033 2033 2033 2033 2033 2033 2033 2033 2033 
2033 2033 2033 2033 2033 2033 2033 2033 2033 
2033 2033 2033 2033 2033 2033 2033 2033 2033 
2033 2033 2033 2033 2033 2033 2033 2033 2033 
2033 2033 2033 2033 2033 2033 2033 2033 2033 
2033 2033 2033 2033 2033 2033 2033 2033 2033 
2033 2033 2033 2033 2033 2033 2033 2033 2033 
2033 2033 2033 2033 2033 2033 2033 2033 2033 
2033 2033 2033 2033 2033 2033 2033 2033 2033 
2033 2033 2033 2033 2033 2033 2033 2033 2033 
2033 2033 2033 2033 2033 2033 2033 2033 2033 
2033 2033 2033 2033 2033 2033 2033 2033 2033 
2033 2033 2033 2033 2033 2033 2033 2033 2033 
2033 2033 2033 2033 2033 2033 2033 2033 2033 
2033 2033 2033 2033 2033 2033 2033 2033 2033 
2033 2033 2033 2033 2033 2033 2033 2033 2033 
2033 2033 2033 2033 2033 2033 2033 2033 2033 
2033 2033 2033 2033 2033 2033 2033 2033 2033 
2033 2033 2033 2033 2033 2033 2033 2033 2033 
2033 2033 2033 2033 2033 2033 2033 2033 2033 
2033 2033 2033 2033 2033 2033 2033 2033 2033 
2033 2033 2033 2033 2033 2033 2033 2033 2033 
2033 2033 2033 2033 2033 2033 2033 2033 2033 
2033 2033 2033 2033 2033 2033 2033 2033 2033 
2033 2033 2033 2033 2033 2033 2033 2033 2033 
2033 2033 2033 2033 2033 2033 2033 2033 2033 
2033 2033 2033 2033 2033 2033 2033 2033 2033 
2033 2033 2033 2033 2033 2033 2033 2033 2033 
2033 2033 2033 2033 2033 2033 2033 2033 2033 
2033 2033 2033 2033 2033 2033 2033 2033 2033 
2033 2033 2033 2033 2033 2033 2033 2033 2033 
2033 2033 2033 2033 2033 2033 2033 2033 2033 
2033 2033 2033 2033 2033 2033 2033 2033 2033 
2033 2033 2033 2033 2033 2033 2033 2033 2033 
2033 2033 2033 2033 2033 2033 2033 2033 2033 
2033 2033 2033 2033 2033 2033 2033 2033 2033 
2033 2033 2033 2033 2033 2033 2033 2033 2033 
2033 2033 2033 2033 2033 2033 2033 2033 2033 
2033 2033 2033 2033 2033 2033 2033 2033 2033 
2033 2033 2033 2033 2033 2033 2033 2033 2033 
2033 2033 2033 2033 2033 2033 2033 2033 2033 
2033 2033 2033 2033 2033 2033 2033 2033 2033 
2033 2033 2033 2033 2033 2033 2033 2033 2033 
2033 2033 2033 2033 2033 2033 2033 2033 2033 
2033 2033 2033 2033 2033 2033 2033 2033 2033 
2033 2033 2033 2033 2033 2033 2033 2033 2033 
2033 2033 2033 2033 2033 2033 2033 2033 2033 
2033 2033 2033 2033 2033 2033 2033 2033 2033 
2033 2033 2033 2033 2033 2033 2033 2033 2033 
2033 2033 2033 2033 2033 2033 2033 2033 2033 
2033 2033 2033 2033 2033 2033 2033 2033 2033 
2033 2033 2033 2033 2033 2033 2033 2033 2033 
2033 2033 2033 2033 2033 2033 2033 2033 2033 
2033 2033 2033 2033 2033 2033 2033 2033 2033 
2033 2033 2033 2033 2033 2033 2033 2033 2033 
2033 2033 2033 2033 2033 2033 2033 2033 2033 
2033 2033 2033 2033 2033 2033 2033 2033 2033 
2033 2033 2033 2033 2033 2033 2033 2033 2033 
2033 2033 2033 2033 2033 2033 2033 2033 2033 
2033 2033 2033 2033 2033 2033 2033 2033 2033 
2033 2033 2033 2033 2033 2033 2033 2033 2033 
2033 2033 2033 2033 2033 2033 2033 2033 2033 
2033 2033 2033 2033 2033 2033 2033 2033 2033 
2033 2033 2033 2033 2033 2033 2033 2033 2033 
2033 2033 2033 2033 2033 2033 2033 2033 2033 
2033 2033 2033 2033 2033 2033 2033 2033 2033 
2033 2033 2033 2033 2033 2033 2033 2033 2033 
2033 2033 2033 2033 2033 2033 2033 2033 2033 
2033 2033 2033 2033 2033 2033 2033 2033 2033 
2033 2033 2033 2033 2033 2033 2033 2033 2033 
2033 2033 2033 2033 2033 2033 2033 2033 2033 
2033 2033 2033 2033 2033 2033 2033 2033 2033 
2033 2033 2033 2033 2033 2033 2033 2033 2033 
2033 2033 2033 2033 2033 2033 2033 2033 2033 
2033 2033 2033 2033 2033 2033 2033 2033 2033 
2033 2033 2033 2033 2033 2033 2033 2033 2033 
2033 2033 2033 2033 2033 2033 2033 2033 2033 
2033 2033 2033 2033 2033 2033 2033 2033 2033 
2033 2033 2033 2033 2033 2033 2033 2033 2033 
2033 2033 2033 2033 2033 2033 2033 2033 2033 
2033 2033 2033 2033 2033 2033 2033 2033 2033 
2033 2033 2033 2033 2033 2033 2033 2033 2033 
2033 2033 2033 2033 2033 2033 2033 2033 2033 
2033 2033 2033 2033 2033 2033 2033 2033 2033 
2033 2033 2033 2033 2033 2033 2033 2033 2033 
2033 2033 2033 2033 2033 2033 2033 2033 2033 
2033 2033 2033 2033 2033 2033 2033 2033 2033 
2033 2033 2033 2033 2033 2033 2033 2033 2033 
2033 2033 2033 2033 2033 2033 2033 2033 2033 
2033 2033 2033 2033 2033 2033 2033 2033 2033 
2033 2033 2033 2033 2033 2033 2033 2033 2033 
2033 2033 2033 2033 2033 2033 2033 2033 2033 
2033 2033 2033 2033 2033 2033 2033 2033 2033 
2033 2033 2033 2033 2033 2033 2033 2033 2033 
2033 2033 2033 2033 2033 2033 2033 2033 2033 
2033 2033 2033 2033 2033 2033 2033 2033 2033 
2033 2033 2033 2033 2033 2033 2033 2033 2033 
2033 2033 2033 2033 2033 2033 2033 2033 2033 
2033 2033 2033 2033 2033 2033 2033 2033 2033 
2033 2033 2033 2033 2033 2033 2033 2033 2033 
2033 2033 2033 2033 2033 2033 2033 2033 2033 
2033 2033 2033 2033 2033 2033 2033 2033 2033 
2033 2033 2033 2033 2033 2033 2033 2033 2033 
2033 2033 2033 2033 2033 2033 2033 2033 2033 
2033 2033 2033 2033 2033 2033 2033 2033 2033 
2033 2033 2033 2033 2033 2033 2033 2033 2033 
2033 2033 2033 2033 2033 2033 2033 2033 2033 
2033 2033 2033 2033 2033 2033 2033 2033 2033 
2033 2033 2033 2033 2033 2033 2033 2033 2033 
2033 2033 2033 2033 2033 2033 2033 2033 2033 
2033 2033 2033 2033 2033 2033 2033 2033 2033 
2033 2033 2033 2033 2033 2033 2033 2033 2033 
2033 2033 2033 2033 2033 2033 2033 2033 2033 
2033 2033 2033 2033 2033 2033 2033 2033 2033 
2033 2033 2033 2033 2033 2033 2033 2033 2033 
2033 2033 2033 2033 2033 2033 2033 2033 2033 
2033 2033 2033 2033 2033 2033 2033 2033 2033 
2033 2033 2033 2033 2033 2033 2033 2033 2033 
2033 2033 2033 2033 2033 2033 2033 2033 2033 
2033 2033 2033 2033 2033 2033 2033 2033 2033 
2033 2033 2033 2033 2033 2033 2033 2033 2033 
2033 2033 2033 2033 2033 2033 2033 2033 2033 