# vtk DataFile Version 4.2
vtk output
ASCII
DATASET POLYDATA
POINTS 2832 float
-28.7045 32.8015 -28.7254 -28.5825 32.3741 -28.3529 -28.383 32.6368 -28.7798 
-28.9332 32.3097 -28.5003 -28.5818 32.8206 -29.2481 -28.3141 32.2732 -29.615 
-29.0905 32.4069 -29.1677 -28.7817 32.5343 -29.7762 -28.8746 31.4823 -28.0625 
-28.1752 31.7309 -28.6314 -29.3206 31.5433 -28.5647 -27.9622 31.3383 -29.7931 
-29.7862 31.3557 -29.043 -29.4939 31.9865 -29.8879 -30.1629 31.3194 -29.5799 
-28.878 32.0775 -30.4965 -28.2952 31.4018 -30.6642 -29.8388 31.902 -30.7734 
-30.2453 31.4966 -30.2527 -28.7573 31.6229 -31.1892 -29.0227 31.353 -31.6657 
-29.4533 31.8206 -31.3413 -30.6091 31.6017 -30.8909 -30.6982 31.8303 -31.5681 
-31.9007 31.9132 -31.5821 -31.4816 31.5551 -31.0481 -32.5354 31.8333 -31.8419 
-32.456 31.5656 -31.1387 -33.0556 31.2134 -31.4499 -29.7186 31.3639 -31.9026 
-30.6188 31.465 -32.2226 -31.14 31.3766 -32.6308 -31.6577 31.8483 -32.2405 
-32.3656 31.6774 -32.4337 -32.8543 31.4292 -32.197 -31.8959 31.2318 -32.8638 
-29.6596 30.7242 -25.7792 -29.7395 30.5507 -25.3456 -29.3348 30.6269 -25.5717 
-29.938 30.2351 -25.7055 -28.9528 30.8191 -26.2715 -28.8348 30.2041 -26.0176 
-28.3941 30.5337 -26.7372 -29.4089 30.7792 -26.6501 -30.0486 30.2802 -26.491 
-28.5489 31.0012 -27.4331 -28.0485 30.396 -27.4549 -29.3216 30.6835 -27.433 
-29.7323 30.4576 -26.9894 -27.7853 30.9155 -28.313 -27.631 30.1704 -28.1046 
-27.3447 30.4889 -28.7779 -29.6887 30.9145 -28.5362 -29.5278 30.7136 -28.0832 
-30.0629 30.5129 -28.4617 -27.5995 30.953 -29.2353 -27.3182 30.1568 -29.4118 
-30.8893 30.9175 -29.8673 -30.4858 30.7028 -29.1108 -31.1498 30.1485 -29.4044 
-27.6588 30.5607 -29.9223 -27.9863 30.4709 -30.4646 -30.9574 31.2479 -30.5217 
-31.6497 30.481 -29.9683 -31.8632 31.0367 -30.4421 -32.7673 31.0519 -30.6698 
-32.4331 30.3755 -30.072 -33.0926 30.4308 -30.412 -28.5512 31.0778 -31.4535 
-28.323 30.263 -31.3326 -33.2632 30.3792 -31.3224 -28.9077 30.6847 -31.8881 
-29.7242 30.6106 -32.2512 -30.5246 30.9437 -32.5195 -30.1703 30.4709 -32.5514 
-32.6279 31.155 -32.6879 -33.0994 30.4831 -32.385 -30.8062 30.5057 -32.9823 
-31.9109 30.5341 -33.2861 -32.6037 30.5385 -33.1328 -29.5333 30.2714 -25.5206 
-28.6134 29.4101 -25.9035 -28.2544 29.6191 -26.5411 -29.4253 29.6647 -25.7895 
-30.2043 29.6333 -26.239 -28.0589 29.3458 -27.5215 -30.0755 30.1491 -27.5756 
-30.5639 29.6452 -27.0443 -30.7384 29.7101 -27.8042 -31.1108 29.1898 -27.4569 
-27.7445 29.3744 -28.198 -27.3442 29.7609 -28.6882 -30.6437 30.0824 -28.472 
-31.1214 29.425 -28.4601 -27.3982 29.4241 -29.3011 -31.3276 29.1937 -29.67 
-32.8007 29.9232 -29.6262 -32.6634 29.2414 -29.2629 -32.3656 29.4252 -29.7007 
-33.0181 29.4329 -29.5559 -27.6445 29.7551 -29.9734 -28.0721 29.3202 -30.5116 
-31.8088 29.6455 -30.0377 -33.3351 29.4799 -30.4276 -28.3097 29.0928 -31.6079 
-33.3773 29.6603 -31.571 -28.8353 29.766 -32.1262 -29.6639 29.9595 -32.5748 
-29.1362 29.4459 -32.569 -33.3301 29.4133 -32.583 -29.659 29.4468 -33.0656 
-30.6178 29.8605 -33.4877 -30.108 29.319 -33.6358 -31.4707 30.0324 -33.5963 
-32.3959 29.9442 -33.631 -33.0013 29.7053 -33.3175 -30.7984 29.3997 -33.8804 
-31.8648 29.2456 -34.0812 -32.7132 29.2461 -33.8265 -29.7958 28.7352 -24.8324 
-29.6386 28.4765 -24.3797 -29.2854 28.4192 -24.6564 -29.9068 28.332 -24.5104 
-28.9628 28.9135 -25.3247 -28.7062 28.2132 -24.8963 -28.3037 28.5366 -25.5978 
-29.9339 29.1459 -25.7008 -30.5185 28.3446 -24.892 -30.889 28.8639 -25.5399 
-31.8101 28.753 -25.7913 -31.4797 28.4112 -25.2935 -32.0185 28.4161 -25.7737 
-28.196 28.4667 -26.5264 -30.8747 29.1111 -26.5366 -31.5831 28.8444 -26.305 
-32.0129 28.5783 -26.2963 -28.1146 28.3213 -27.5298 -31.5712 28.5407 -26.8729 
-31.3159 28.4723 -27.6593 -27.699 28.981 -28.8644 -27.9971 28.5775 -28.4675 
-31.2055 28.5105 -28.6167 -25.8397 28.7913 -29.8511 -25.4944 28.4337 -29.2241 
-25.0709 28.6036 -29.6523 -26.1357 28.3984 -29.3543 -27.764 29.0411 -29.6237 
-28.0097 28.4874 -29.6703 -31.1183 28.431 -29.4665 -32.6828 28.4418 -29.2142 
-32.3567 28.6136 -29.4925 -33.1925 28.3643 -29.5284 -24.9925 28.8721 -30.4807 
-24.4715 28.4748 -30.0682 -24.1938 28.5155 -30.8548 -25.8625 29.0365 -30.7198 
-26.5955 28.5352 -29.9451 -26.6152 28.799 -30.6293 -27.1346 28.3754 -30.4635 
-28.1036 28.4932 -30.8575 -31.6147 28.8961 -30.5128 -31.3471 28.4011 -30.3281 
-31.9696 28.5913 -30.271 -33.5936 28.5892 -30.1514 -33.6994 28.955 -30.867 
-33.9219 28.2555 -30.476 -24.6363 28.7833 -31.3125 -24.2888 28.4615 -31.6652 
-25.4227 28.9097 -31.4081 -26.4024 28.8156 -31.4438 -27.2081 28.4438 -31.2301 
-28.0563 28.3812 -31.7141 -31.6634 28.4432 -30.7761 -33.8539 29.0168 -31.852 
-34.2613 28.3229 -31.1848 -24.9767 28.5437 -32.0292 -25.956 28.5036 -32.1193 
-26.8381 28.3816 -31.936 -28.7302 29.0513 -32.4785 -28.2574 28.5353 -32.2772 
-33.6645 28.9346 -32.6667 -34.7836 28.3669 -31.9116 -34.3696 28.7521 -32.4726 
-35.1656 28.4152 -32.4357 -28.6547 28.4304 -33.0218 -29.5026 28.8727 -33.4931 
-29.141 28.429 -33.5344 -33.2438 28.8324 -33.3837 -34.0076 28.34 -33.093 
-34.9484 28.2801 -32.8265 -29.7747 28.4882 -33.9685 -30.938 28.8073 -34.2589 
-31.5572 28.7781 -34.4899 -31.1874 28.5384 -34.5576 -32.0611 28.4117 -34.5959 
-32.7506 28.3305 -34.0297 -31.5026 28.2204 -34.9215 -28.774 27.6786 -24.5583 
-28.5534 27.2018 -24.3274 -28.3225 27.642 -24.7497 -29.6421 28.2168 -24.4419 
-29.0763 27.0834 -24.4947 -28.1749 27.4839 -25.5155 -29.7031 27.7013 -24.7517 
-30.9595 27.6679 -25.1324 -31.6838 27.9585 -25.5341 -31.3104 27.3139 -25.6677 
-28.0655 27.5363 -26.5962 -31.8245 28.041 -26.2044 -31.2633 27.5096 -26.6939 
-25.8979 27.8299 -27.7671 -25.6296 27.1862 -27.192 -25.1026 27.5854 -27.6155 
-27.0183 27.8381 -27.6807 -26.5522 27.5052 -27.2157 -27.7727 27.8662 -27.4763 
-27.4159 27.3114 -27.0006 -31.0709 27.6339 -27.8303 -23.9614 27.7702 -28.6096 
-23.6401 27.2479 -28.2529 -23.3716 27.4827 -28.8006 -24.8594 27.885 -28.2755 
-24.3328 27.3276 -27.8951 -25.7551 28.0982 -28.7703 -26.7758 27.9533 -28.546 
-27.6489 28.0666 -28.2546 -30.9464 27.7829 -28.7678 -23.6477 27.8503 -29.3345 
-23.1135 27.4091 -29.6501 -24.5817 28.1696 -29.2612 -26.8705 28.1125 -29.5707 
-27.6304 28.0502 -29.2482 -30.8729 27.831 -29.6536 -30.3974 27.177 -29.6825 
-30.5629 27.3504 -28.9811 -32.8023 27.2891 -29.163 -32.15 27.7495 -29.6949 
-33.3442 27.3723 -29.3211 -23.7667 28.0268 -30.2411 -23.1111 27.5221 -30.8177 
-27.6836 28.138 -30.4466 -30.8952 27.249 -30.0828 -31.4815 27.4801 -30.0257 
-31.7171 28.0367 -30.4728 -33.6716 27.8121 -29.8687 -34.1814 27.3284 -30.4437 
-23.7441 28.0312 -31.4946 -23.1342 27.3356 -31.8671 -27.5824 28.1475 -31.6348 
-34.6356 27.5694 -31.17 -34.7467 27.9844 -31.5072 -35.1283 27.3446 -31.5997 
-23.7867 27.8242 -32.5287 -23.3891 27.268 -32.6 -24.5633 28.1606 -32.5384 
-25.5051 28.1874 -32.6465 -26.5486 27.9527 -32.6508 -27.6911 27.9649 -32.4837 
-35.6544 27.9822 -32.61 -35.5892 27.7298 -32.1718 -36.0479 27.2002 -32.6272 
-23.8222 27.5048 -33.1002 -24.2342 27.2118 -33.6054 -24.4625 27.8402 -33.3354 
-25.4567 27.8396 -33.3638 -26.2463 27.5186 -33.4208 -27.0026 27.4382 -33.1309 
-27.8602 27.5823 -33.165 -28.6759 27.9186 -33.5446 -28.2074 27.3448 -33.6922 
-33.4955 28.0587 -33.5916 -34.1839 27.3673 -33.6124 -34.7929 27.6278 -33.2136 
-35.6437 27.526 -33.0256 -25.0275 27.3533 -33.8845 -25.8953 27.2308 -33.8688 
-28.9123 27.613 -34.0971 -29.5948 27.7794 -34.4549 -29.1452 27.4119 -34.5129 
-30.5353 28.122 -34.6053 -32.4446 27.7504 -34.5414 -32.9033 27.4815 -34.2529 
-33.4885 27.4389 -33.9938 -29.7212 27.3164 -34.9403 -30.9155 27.7113 -35.1981 
-31.5864 27.7565 -35.4735 -31.3209 27.4639 -35.7452 -32.1987 27.4586 -35.3926 
-31.799 27.333 -35.9848 -29.7345 26.6592 -23.5091 -29.7457 26.4736 -23.315 
-29.3586 26.3669 -23.296 -30.0264 26.192 -23.6376 -28.7029 26.665 -24.1867 
-28.1999 26.6242 -24.6122 -29.1866 26.449 -24.367 -29.5688 26.4446 -23.7538 
-28.01 26.6898 -25.7304 -29.6912 26.6774 -24.7553 -30.5442 26.691 -25.0313 
-31.036 26.4282 -25.5371 -27.8311 26.8368 -26.4167 -27.7579 26.4152 -26.0795 
-27.3839 26.5098 -26.485 -30.7669 26.8045 -26.4178 -30.3971 26.4556 -26.7226 
-30.6955 26.157 -26.0782 -24.8356 27.0851 -27.4057 -24.6244 26.3369 -27.1951 
-24.2635 26.6591 -27.5383 -25.4709 26.2794 -26.915 -26.5426 26.7259 -26.8847 
-30.6765 26.9582 -27.2389 -30.268 26.3401 -27.4921 -23.7837 26.7296 -27.8999 
-23.1275 26.7343 -28.5514 -30.6205 27.0477 -28.178 -30.2425 26.501 -28.5623 
-22.6734 26.838 -29.4455 -22.5506 26.336 -28.9316 -22.3077 26.3806 -29.6249 
-30.1833 26.3194 -29.3861 -32.9452 26.1896 -29.1369 -32.1952 26.7584 -29.5002 
-33.7692 27.0512 -29.5841 -33.6058 26.4508 -29.116 -34.2237 26.3013 -29.7121 
-22.6107 27.016 -30.2961 -22.2267 26.3807 -30.5669 -30.6458 26.9936 -30.6339 
-30.3069 26.5515 -30.4658 -31.0503 26.6472 -30.5497 -31.6755 26.3347 -30.0004 
-34.3461 26.2278 -30.7101 -22.6049 26.9409 -31.271 -22.2817 26.1487 -31.6324 
-30.6276 26.7428 -31.3473 -30.3637 26.379 -31.529 -30.9984 26.3451 -31.4137 
-34.6938 26.7837 -31.1025 -35.1126 26.5687 -31.498 -22.6762 26.6533 -32.0168 
-23.0293 26.7414 -32.442 -30.7629 26.3891 -32.015 -35.5596 26.5722 -32.0414 
-36.0953 26.2528 -32.8004 -23.4537 26.6055 -33.0917 -24.0351 26.6 -33.6041 
-26.7167 27.0864 -33.7202 -27.551 27.1083 -33.6506 -34.7849 27.0862 -33.513 
-35.4154 26.9444 -33.524 -36.132 26.5296 -33.4281 -24.603 26.4731 -34.0523 
-25.77 26.4724 -34.1723 -26.6079 26.6002 -34.0983 -27.2454 26.1093 -34.6834 
-27.4177 26.7413 -34.2217 -28.4415 27.0254 -34.3965 -32.6895 27.2428 -34.7359 
-33.3277 26.8998 -34.663 -34.1739 26.4804 -34.5036 -34.9588 26.5925 -34.0434 
-35.7722 26.3356 -34.0598 -27.9854 26.4513 -34.9242 -28.8726 26.6408 -35.159 
-29.7753 26.8139 -35.6109 -29.2597 26.3973 -35.7322 -30.6496 27.1976 -35.6849 
-32.8238 26.9066 -35.275 -33.3171 26.2925 -35.5997 -33.7468 26.3054 -35.0921 
-29.862 26.5304 -36.1309 -30.2341 26.4904 -36.5501 -30.5206 26.7913 -36.29 
-31.3989 26.9419 -36.4141 -32.233 26.4989 -36.5929 -32.7251 26.4746 -36.053 
-30.7673 26.3591 -36.9877 -31.7189 26.3685 -37.115 -28.8964 25.7585 -22.7324 
[...]
CELL_DATA 5672
SCALARS scalars float
LOOKUP_TABLE default
1033 1033 1033 1033 1033 1033 1033 1033 1033 
1033 1033 1033 1033 1033 1033 1033 1033 1033 
1033 1033 1033 1033 1033 1033 1033 1033 1033 
1033 1033 1033 1033 1033 1033 1033 1033 1033 
1033 1033 1033 1033 1033 1033 1033 1033 1033 
1033 1033 1033 1033 1033 1033 1033 1033 1033 
1033 1033 1033 1033 1033 1033 1033 1033 1033 
1033 1033 1033 1033 1033 1033 1033 1033 1033 
1033 1033 1033 1033 1033 1033 1033 1033 1033 
1033 1033 1033 1033 1033 1033 1033 1033 1033 
1033 1033 1033 1033 1033 1033 1033 1033 1033 
1033 1033 1033 1033 1033 1033 1033 1033 1033 
1033 1033 1033 1033 1033 1033 1033 1033 1033 
1033 1033 1033 1033 1033 1033 1033 1033 1033 
1033 1033 1033 1033 1033 1033 1033 1033 1033 
1033 1033 1033 1033 1033 1033 1033 1033 1033 
1033 1033 1033 1033 1033 1033 1033 1033 1033 
1033 1033 1033 1033 1033 1033 1033 1033 1033 
1033 1033 1033 1033 1033 1033 1033 1033 1033 
1033 1033 1033 1033 1033 1033 1033 1033 1033 
1033 1033 1033 1033 1033 1033 1033 1033 1033 
1033 1033 1033 1033 1033 1033 1033 1033 1033 
1033 1033 1033 1033 1033 1033 1033 1033 1033 
1033 1033 1033 1033 1033 1033 1033 1033 1033 
1033 1033 1033 1033 1033 1033 1033 1033 1033 
1033 1033 1033 1033 1033 1033 1033 1033 1033 
1033 1033 1033 1033 1033 1033 1033 1033 1033 
1033 1033 1033 1033 1033 1033 1033 1033 1033 
1033 1033 1033 1033 1033 1033 1033 1033 1033 
1033 1033 1033 1033 1033 1033 1033 1033 1033 
1033 1033 1033 1033 1033 1033 1033 1033 1033 
1033 1033 1033 1033 1033 1033 1033 1033 1033 
1033 1033 1033 1033 1033 1033 1033 1033 1033 
1033 1033 1033 1033 1033 1033 1033 1033 1033 
1033 1033 1033 1033 1033 1033 1033 1033 1033 
1033 1033 1033 1033 1033 1033 1033 1033 1033 
1033 1033 1033 1033 1033 1033 1033 1033 1033 
1033 1033 1033 1033 1033 1033 1033 1033 1033 
1033 1033 1033 1033 1033 1033 1033 1033 1033 
1033 1033 1033 1033 1033 1033 1033 1033 1033 
1033 1033 1033 1033 1033 1033 1033 1033 1033 
1033 1033 1033 1033 1033 1033 1033 1033 1033 
1033 1033 1033 1033 1033 1033 1033 1033 1033 
1033 1033 1033 1033 1033 1033 1033 1033 1033 
1033 1033 1033 1033 1033 1033 1033 1033 1033 
1033 1033 1033 1033 1033 1033 1033 1033 1033 
1033 1033 1033 1033 1033 1033 1033 1033 1033 
1033 1033 1033 1033 1033 1033 1033 1033 1033 
1033 1033 1033 1033 1033 1033 1033 1033 1033 
1033 1033 1033 1033 1033 1033 1033 1033 1033 
1033 1033 1033 1033 1033 1033 1033 1033 1033 
1033 1033 1033 1033 1033 1033 1033 1033 1033 
1033 1033 1033 1033 1033 1033 1033 1033 1033 
1033 1033 1033 1033 1033 1033 1033 1033 1033 
1033 1033 1033 1033 1033 1033 1033 1033 1033 
1033 1033 1033 1033 1033 1033 1033 1033 1033 
1033 1033 1033 1033 1033 1033 1033 1033 1033 
1033 1033 1033 1033 1033 1033 1033 1033 1033 
1033 1033 1033 1033 1033 1033 1033 1033 1033 
1033 1033 1033 1033 1033 1033 1033 1033 1033 
1033 1033 1033 1033 1033 1033 1033 1033 1033 
1033 1033 1033 1033 1033 1033 1033 1033 1033 
1033 1033 1033 1033 1033 1033 1033 1033 1033 
1033 1033 1033 1033 1033 1033 1033 1033 1033 
1033 1033 1033 1033 1033 1033 1033 1033 1033 
1033 1033 1033 1033 1033 1033 1033 1033 1033 
1033 1033 1033 1033 1033 1033 1033 1033 1033 
1033 1033 1033 1033 1033 1033 1033 1033 1033 
1033 1033 1033 1033 1033 1033 1033 1033 1033 
1033 1033 1033 1033 1033 1033 1033 1033 1033 
1033 1033 1033 1033 1033 1033 1033 1033 1033 
1033 1033 1033 1033 1033 1033 1033 1033 1033 
1033 1033 1033 1033 1033 1033 1033 1033 1033 
1033 1033 1033 1033 1033 1033 1033 1033 1033 
1033 1033 1033 1033 1033 1033 1033 1033 1033 
1033 1033 1033 1033 1033 1033 1033 1033 1033 
1033 1033 1033 1033 1033 1033 1033 1033 1033 
1033 1033 1033 1033 1033 1033 1033 1033 1033 
1033 1033 1033 1033 1033 1033 1033 1033 1033 
1033 1033 1033 1033 1033 1033 1033 1033 1033 
1033 1033 1033 1033 1033 1033 1033 1033 1033 
1033 1033 1033 1033 1033 1033 1033 1033 1033 
1033 1033 1033 1033 1033 1033 1033 1033 1033 
1033 1033 1033 1033 1033 1033 1033 1033 1033 
1033 1033 1033 1033 1033 1033 1033 1033 1033 
1033 1033 1033 1033 1033 1033 1033 1033 1033 
1033 1033 1033 1033 1033 1033 1033 1033 1033 
1033 1033 1033 1033 1033 1033 1033 1033 1033 
1033 1033 1033 1033 1033 1033 1033 1033 1033 
1033 1033 1033 1033 1033 1033 1033 1033 1033 
1033 1033 1033 1033 1033 1033 1033 1033 1033 
1033 1033 1033 1033 1033 1033 1033 1033 1033 
1033 1033 1033 1033 1033 1033 1033 1033 1033 
1033 1033 1033 1033 1033 1033 1033 1033 1033 
1033 1033 1033 1033 1033 1033 1033 1033 1033 
1033 1033 1033 1033 1033 1033 1033 1033 1033 
1033 1033 1033 1033 1033 1033 1033 1033 1033 
1033 1033 1033 1033 1033 1033 1033 1033 1033 
1033 1033 1033 1033 1033 1033 1033 1033 1033 
1033 1033 1033 1033 1033 1033 1033 1033 1033 
1033 1033 1033 1033 1033 1033 1033 1033 1033 
1033 1033 1033 1033 1033 1033 1033 1033 1033 
1033 1033 1033 1033 1033 1033 1033 1033 1033 
1033 1033 1033 1033 1033 1033 1033 1033 1033 
1033 1033 1033 1033 1033 1033 1033 1033 1033 
1033 1033 1033 1033 1033 1033 1033 1033 1033 
1033 1033 1033 1033 1033 1033 1033 1033 1033 
1033 1033 1033 1033 1033 1033 1033 1033 1033 
1033 1033 1033 1033 1033 1033 1033 1033 1033 
1033 1033 1033 1033 1033 1033 1033 1033 1033 
1033 1033 1033 1033 1033 1033 1033 1033 1033 
1033 1033 1033 1033 1033 1033 1033 1033 1033 
1033 1033 1033 1033 1033 1033 1033 1033 1033 
1033 1033 1033 1033 1033 1033 1033 1033 1033 
1033 1033 1033 1033 1033 1033 1033 1033 1033 
1033 1033 1033 1033 1033 1033 1033 1033 1033 
1033 1033 1033 1033 1033 1033 1033 1033 1033 
1033 1033 1033 1033 1033 1033 1033 1033 1033 
1033 1033 1033 1033 1033 1033 1033 1033 1033 
1033 1033 1033 1033 1033 1033 1033 1033 1033 
1033 1033 1033 1033 1033 1033 1033 1033 1033 
1033 1033 1033 1033 1033 1033 1033 1033 1033 
1033 1033 1033 1033 1033 1033 1033 1033 1033 
1033 1033 1033 1033 1033 1033 1033 1033 1033 
1033 1033 1033 1033 1033 1033 1033 1033 1033 
1033 1033 1033 1033 1033 1033 1033 1033 1033 
1033 1033 1033 1033 1033 1033 1033 1033 1033 
1033 1033 1033 1033 1033 1033 1033 1033 1033 
1033 1033 1033 1033 1033 1033 1033 1033 1033 
1033 1033 1033 1033 1033 1033 1033 1033 1033 
1033 1033 1033 1033 1033 1033 1033 1033 1033 
1033 1033 1033 1033 1033 1033 1033 1033 1033 
1033 1033 1033 1033 1033 1033 1033 1033 1033 
1033 1033 1033 1033 1033 1033 1033 1033 1033 
1033 1033 1033 1033 1033 1033 1033 1033 1033 
1033 1033 1033 1033 1033 1033 1033 1033 1033 
1033 1033 1033 1033 1033 1033 1033 1033 1033 
1033 1033 1033 1033 1033 1033 1033 1033 1033 
1033 1033 1033 1033 1033 1033 1033 1033 1033 
1033 1033 1033 1033 1033 1033 1033 1033 1033 
1033 1033 1033 1033 1033 1033 1033 1033 1033 
1033 1033 1033 1033 1033 1033 1033 1033 1033 
1033 1033 1033 1033 1033 1033 1033 1033 1033 
1033 1033 1033 1033 1033 1033 1033 1033 1033 
1033 1033 1033 1033 1033 1033 1033 1033 1033 
1033 1033 1033 1033 1033 1033 1033 1033 1033 
1033 1033 1033 1033 1033 1033 1033 1033 1033 
1033 1033 1033 1033 1033 1033 1033 1033 1033 
1033 1033 1033 1033 1033 1033 1033 1033 1033 
1033 1033 1033 1033 1033 1033 1033 1033 1033 
1033 1033 1033 1033 1033 1033 1033 1033 1033 
1033 1033 1033 1033 1033 1033 1033 1033 1033 
1033 1033 1033 1033 1033 1033 1033 1033 1033 
1033 1033 1033 1033 1033 1033 1033 1033 1033 
1033 1033 1033 1033 1033 1033 1033 1033 1033 
1033 1033 1033 1033 1033 1033 1033 1033 1033 
1033 1033 1033 1033 1033 1033 1033 1033 1033 
1033 1033 1033 1033 1033 1033 1033 1033 1033 
1033 1033 1033 1033 1033 1033 1033 1033 1033 
1033 1033 1033 1033 1033 1033 1033 1033 1033 
1033 1033 1033 1033 1033 1033 1033 1033 1033 
1033 1033 1033 1033 1033 1033 1033 1033 1033 
1033 1033 1033 1033 1033 1033 1033 1033 1033 
1033 1033 1033 1033 1033 1033 1033 1033 1033 
1033 1033 1033 1033 1033 1033 1033 1033 1033 
1033 1033 1033 1033 1033 1033 1033 1033 1033 
1033 1033 1033 1033 1033 1033 1033 1033 1033 
1033 1033 1033 1033 1033 1033 1033 1033 1033 
1033 1033 1033 1033 1033 1033 1033 1033 1033 
1033 1033 1033 1033 1033 1033 1033 1033 1033 
1033 1033 1033 1033 1033 1033 1033 1033 1033 
1033 1033 1033 1033 1033 1033 1033 1033 1033 
1033 1033 1033 1033 1033 1033 1033 1033 1033 
1033 1033 1033 1033 1033 1033 1033 1033 1033 
1033 1033 1033 1033 1033 1033 1033 1033 1033 
1033 1033 1033 1033 1033 1033 1033 1033 1033 
1033 1033 1033 1033 1033 1033 1033 1033 1033 
1033 1033 1033 1033 1033 1033 1033 1033 1033 
1033 1033 1033 1033 1033 1033 1033 1033 1033 
1033 1033 1033 1033 1033 1033 1033 1033 1033 
1033 1033 1033 1033 1033 1033 1033 1033 1033 
1033 1033 1033 1033 1033 1033 1033 1033 1033 
1033 1033 1033 1033 1033 1033 1033 1033 1033 
1033 1033 1033 1033 1033 1033 1033 1033 1033 
1033 1033 1033 1033 1033 1033 1033 1033 1033 
1033 1033 1033 1033 1033 1033 1033 1033 1033 
1033 1033 1033 1033 1033 1033 1033 1033 1033 
1033 1033 1033 1033 1033 1033 1033 1033 1033 
1033 1033 1033 1033 1033 1033 1033 1033 1033 
1033 1033 1033 1033 1033 1033 1033 1033 1033 
1033 1033 1033 1033 1033 1033 1033 1033 1033 
1033 1033 1033 1033 1033 1033 1033 1033 1033 
1033 1033 1033 1033 1033 1033 1033 1033 1033 
1033 1033 1033 1033 1033 1033 1033 1033 1033 
1033 1033 1033 1033 1033 1033 1033 1033 1033 
1033 1033 1033 1033 1033 1033 1033 1033 1033 
1033 1033 1033 1033 1033 1033 1033 1033 1033 
1033 1033 1033 1033 1033 1033 1033 1033 1033 
1033 1033 1033 1033 1033 1033 1033 1033 1033 
1033 1033 1033 1033 1033 1033 1033 1033 1033 
1033 1033 1033 1033 1033 1033 1033 1033 1033 
1033 1033 1033 1033 1033 1033 1033 1033 1033 
1033 1033 1033 1033 1033 1033 1033 1033 1033 
1033 1033 1033 1033 1033 1033 1033 1033 1033 
1033 1033 1033 1033 1033 1033 1033 1033 1033 
1033 1033 1033 1033 1033 1033 1033 1033 1033 
1033 1033 1033 1033 1033 1033 1033 1033 1033 
1033 1033 1033 1033 1033 1033 1033 1033 1033 
1033 1033 1033 1033 1033 1033 1033 1033 1033 
1033 1033 1033 1033 1033 1033 1033 1033 1033 
1033 1033 1033 1033 1033 1033 1033 1033 1033 
1033 1033 1033 1033 1033 1033 1033 1033 1033 
1033 1033 1033 1033 1033 1033 1033 1033 1033 
1033 1033 1033 1033 1033 1033 1033 1033 1033 
1033 1033 1033 1033 1033 1033 1033 1033 1033 
1033 1033 1033 1033 1033 1033 1033 1033 1033 
1033 1033 1033 1033 1033 1033 1033 1033 1033 
1033 1033 1033 1033 1033 1033 1033 1033 1033 
1033 1033 1033 1033 1033 1033 1033 1033 1033 
1033 1033 1033 1033 1033 1033 1033 1033 1033 
1033 1033 1033 1033 1033 1033 1033 1033 1033 
1033 1033 1033 1033 1033 1033 1033 1033 1033 
1033 1033 1033 1033 1033 1033 1033 1033 1033 
1033 1033 1033 1033 1033 1033 1033 1033 1033 
1033 1033 1033 1033 1033 1033 1033 1033 1033 
1033 1033 1033 1033 1033 1033 1033 1033 1033 
1033 1033 1033 1033 1033 1033 1033 1033 1033 
1033 1033 1033 1033 1033 1033 1033 1033 1033 
1033 1033 1033 1033 1033 1033 1033 1033 1033 
1033 1033 1033 1033 1033 1033 1033 1033 1033 
1033 1033 1033 1033 1033 1033 1033 1033 1033 
1033 1033 1033 1033 1033 1033 1033 1033 1033 
1033 1033 1033 1033 1033 1033 1033 1033 1033 
1033 1033 1033 1033 1033 1033 1033 1033 1033 
1033 1033 1033 1033 1033 1033 1033 1033 1033 
1033 1033 1033 1033 1033 1033 1033 1033 1033 
1033 1033 1033 1033 1033 1033 1033 1033 1033 
1033 1033 1033 1033 1033 1033 1033 1033 1033 
1033 1033 1033 1033 1033 1033 1033 1033 1033 
1033 1033 1033 1033 1033 1033 1033 1033 1033 
1033 1033 1033 1033 1033 1033 1033 1033 1033 
1033 1033 1033 1033 1033 1033 1033 1033 1033 
1033 1033 1033 1033 1033 1033 1033 1033 1033 
1033 1033 1033 1033 1033 1033 1033 1033 1033 
1033 1033 1033 1033 1033 1033 1033 1033 1033 
1033 1033 1033 1033 1033 1033 1033 1033 1033 
1033 1033 1033 1033 1033 1033 1033 1033 1033 
1033 1033 1033 1033 1033 1033 1033 1033 1033 
1033 1033 1033 1033 1033 1033 1033 1033 1033 
1033 1033 1033 1033 1033 1033 1033 1033 1033 
1033 1033 1033 1033 1033 1033 1033 1033 1033 
1033 1033 1033 1033 1033 1033 1033 1033 1033 
1033 1033 1033 1033 1033 1033 1033 1033 1033 
1033 1033 1033 1033 1033 1033 1033 1033 1033 
1033 1033 1033 1033 1033 1033 1033 1033 1033 
1033 1033 1033 1033 1033 1033 1033 1033 1033 
1033 1033 1033 1033 1033 1033 1033 1033 1033 
1033 1033 1033 1033 1033 1033 1033 1033 1033 
1033 1033 1033 1033 1033 1033 1033 1033 1033 
1033 1033 1033 1033 1033 1033 1033 1033 1033 
1033 1033 1033 1033 1033 1033 1033 1033 1033 
1033 1033 1033 1033 1033 1033 1033 1033 1033 
1033 1033 1033 1033 1033 1033 1033 1033 1033 
1033 1033 1033 1033 1033 1033 1033 1033 1033 
1033 1033 1033 1033 1033 1033 1033 1033 1033 
1033 1033 1033 1033 1033 1033 1033 1033 1033 
1033 1033 1033 1033 1033 1033 1033 1033 1033 
1033 1033 1033 1033 1033 1033 1033 1033 1033 
1033 1033 1033 1033 1033 1033 1033 1033 1033 
1033 1033 1033 1033 1033 1033 1033 1033 1033 
1033 1033 1033 1033 1033 1033 1033 1033 1033 
1033 1033 1033 1033 1033 1033 1033 1033 1033 
1033 1033 1033 1033 1033 1033 1033 1033 1033 
1033 1033 1033 1033 1033 1033 1033 1033 1033 
1033 1033 1033 1033 1033 1033 1033 1033 1033 
1033 1033 1033 1033 1033 1033 1033 1033 1033 
1033 1033 1033 1033 1033 1033 1033 1033 1033 
1033 1033 1033 1033 1033 1033 1033 1033 1033 
1033 1033 1033 1033 1033 1033 1033 1033 1033 
1033 1033 1033 1033 1033 1033 1033 1033 1033 
1033 1033 1033 1033 1033 1033 1033 1033 1033 
1033 1033 1033 1033 1033 1033 1033 1033 1033 
1033 1033 1033 1033 1033 1033 1033 1033 1033 
1033 1033 1033 1033 1033 1033 1033 1033 1033 
1033 1033 1033 1033 1033 1033 1033 1033 1033 
1033 1033 1033 1033 1033 1033 1033 1033 1033 
1033 1033 1033 1033 1033 1033 1033 1033 1033 
1033 1033 1033 1033 1033 1033 1033 1033 1033 
1033 1033 1033 1033 1033 1033 1033 1033 1033 
1033 1033 1033 1033 1033 1033 1033 1033 1033 
1033 1033 1033 1033 1033 1033 1033 1033 1033 
1033 1033 1033 1033 1033 1033 1033 1033 1033 
1033 1033 1033 1033 1033 1033 1033 1033 1033 
1033 1033 1033 1033 1033 1033 1033 1033 1033 
1033 1033 1033 1033 1033 1033 1033 1033 1033 
1033 1033 1033 1033 1033 1033 1033 1033 1033 
1033 1033 1033 1033 1033 1033 1033 1033 1033 
1033 1033 1033 1033 1033 1033 1033 1033 1033 
1033 1033 1033 1033 1033 1033 1033 1033 1033 
1033 1033 1033 1033 1033 1033 1033 1033 1033 
1033 1033 1033 1033 1033 1033 1033 1033 1033 
1033 1033 1033 1033 1033 1033 1033 1033 1033 
1033 1033 1033 1033 1033 1033 1033 1033 1033 
1033 1033 1033 1033 1033 1033 1033 1033 1033 
1033 1033 1033 1033 1033 1033 1033 1033 1033 
1033 1033 1033 1033 1033 1033 1033 1033 1033 
1033 1033 1033 1033 1033 1033 1033 1033 1033 
1033 1033 1033 1033 1033 1033 1033 1033 1033 
1033 1033 1033 1033 1033 1033 1033 1033 1033 
1033 1033 1033 1033 1033 1033 1033 1033 1033 
1033 1033 1033 1033 1033 1033 1033 1033 1033 
1033 1033 1033 1033 1033 1033 1033 1033 1033 
1033 1033 1033 1033 1033 1033 1033 1033 1033 
1033 1033 1033 1033 1033 1033 1033 1033 1033 
1033 1033 1033 1033 1033 1033 1033 1033 1033 
1033 1033 1033 1033 1033 1033 1033 1033 1033 
1033 1033 1033 1033 1033 1033 1033 1033 1033 
1033 1033 1033 1033 1033 1033 1033 1033 1033 
1033 1033 1033 1033 1033 1033 1033 1033 1033 
1033 1033 1033 1033 1033 1033 1033 1033 1033 
1033 1033 1033 1033 1033 1033 1033 1033 1033 
1033 1033 1033 1033 1033 1033 1033 1033 1033 
1033 1033 1033 1033 1033 1033 1033 1033 1033 
1033 1033 1033 1033 1033 1033 1033 1033 1033 
1033 1033 1033 1033 1033 1033 1033 1033 1033 
1033 1033 1033 1033 1033 1033 1033 1033 1033 
1033 1033 1033 1033 1033 1033 1033 1033 1033 
1033 1033 1033 1033 1033 1033 1033 1033 1033 
1033 1033 1033 1033 1033 1033 1033 1033 1033 
1033 1033 1033 1033 1033 1033 1033 1033 1033 
1033 1033 1033 1033 1033 1033 1033 1033 1033 
1033 1033 1033 1033 1033 1033 1033 1033 1033 
1033 1033 1033 1033 1033 1033 1033 1033 1033 
1033 1033 1033 1033 1033 1033 1033 1033 1033 
1033 1033 1033 1033 1033 1033 1033 1033 1033 
1033 1033 1033 1033 1033 1033 1033 1033 1033 
1033 1033 1033 1033 1033 1033 1033 1033 1033 
1033 1033 1033 1033 1033 1033 1033 1033 1033 
1033 1033 1033 1033 1033 1033 1033 1033 1033 
1033 1033 1033 1033 1033 1033 1033 1033 1033 
1033 1033 1033 1033 1033 1033 1033 1033 1033 
1033 1033 1033 1033 1033 1033 1033 1033 1033 
1033 1033 1033 1033 1033 1033 1033 1033 1033 
1033 1033 1033 1033 1033 1033 1033 1033 1033 
1033 1033 1033 1033 1033 1033 1033 1033 1033 
1033 1033 1033 1033 1033 1033 1033 1033 1033 
1033 1033 1033 1033 1033 1033 1033 1033 1033 
1033 1033 1033 1033 1033 1033 1033 1033 1033 
1033 1033 1033 1033 1033 1033 1033 1033 1033 
1033 1033 1033 1033 1033 1033 1033 1033 1033 
1033 1033 1033 1033 1033 1033 1033 1033 1033 
1033 1033 1033 1033 1033 1033 1033 1033 1033 
1033 1033 1033 1033 1033 1033 1033 1033 1033 
1033 1033 1033 1033 1033 1033 1033 1033 1033 
1033 1033 1033 1033 1033 1033 1033 1033 1033 
1033 1033 1033 1033 1033 1033 1033 1033 1033 
1033 1033 1033 1033 1033 1033 1033 1033 1033 
1033 1033 1033 1033 1033 1033 1033 1033 1033 
1033 1033 1033 1033 1033 1033 1033 1033 1033 
1033 1033 1033 1033 1033 1033 1033 1033 1033 
1033 1033 1033 1033 1033 1033 1033 1033 1033 
1033 1033 1033 1033 1033 1033 1033 1033 1033 
1033 1033 1033 1033 1033 1033 1033 1033 1033 
1033 1033 1033 1033 1033 1033 1033 1033 1033 
1033 1033 1033 1033 1033 1033 1033 1033 1033 
1033 1033 1033 1033 1033 1033 1033 1033 1033 
1033 1033 1033 1033 1033 1033 1033 1033 1033 
1033 1033 1033 1033 1033 1033 1033 1033 1033 
1033 1033 1033 1033 1033 1033 1033 1033 1033 
1033 1033 1033 1033 1033 1033 1033 1033 1033 
1033 1033 1033 1033 1033 1033 1033 1033 1033 
1033 1033 1033 1033 1033 1033 1033 1033 1033 
1033 1033 1033 1033 1033 1033 1033 1033 1033 
1033 1033 1033 1033 1033 1033 1033 1033 1033 
1033 1033 1033 1033 1033 1033 1033 1033 1033 
1033 1033 1033 1033 1033 1033 1033 1033 1033 
1033 1033 1033 1033 1033 1033 1033 1033 1033 
1033 1033 1033 1033 1033 1033 1033 1033 1033 
1033 1033 1033 1033 1033 1033 1033 1033 1033 
1033 1033 1033 1033 1033 1033 1033 1033 1033 
1033 1033 1033 1033 1033 1033 1033 1033 1033 
1033 1033 1033 1033 1033 1033 1033 1033 1033 
1033 1033 1033 1033 1033 1033 1033 1033 1033 
1033 1033 1033 1033 1033 1033 1033 1033 1033 
1033 1033 1033 1033 1033 1033 1033 1033 1033 
1033 1033 1033 1033 1033 1033 1033 1033 1033 
1033 1033 1033 1033 1033 1033 1033 1033 1033 
1033 1033 1033 1033 1033 1033 1033 1033 1033 
1033 1033 1033 1033 1033 1033 1033 1033 1033 
1033 1033 1033 1033 1033 1033 1033 1033 1033 
1033 1033 1033 1033 1033 1033 1033 1033 1033 
1033 1033 1033 1033 1033 1033 1033 1033 1033 
1033 1033 1033 1033 1033 1033 1033 1033 1033 
1033 1033 1033 1033 1033 1033 1033 1033 1033 
1033 1033 1033 1033 1033 1033 1033 1033 1033 
1033 1033 1033 1033 1033 1033 1033 1033 1033 
1033 1033 1033 1033 1033 1033 1033 1033 1033 
1033 1033 1033 1033 1033 1033 1033 1033 1033 
1033 1033 1033 1033 1033 1033 1033 1033 1033 
1033 1033 1033 1033 1033 1033 1033 1033 1033 
1033 1033 1033 1033 1033 1033 1033 1033 1033 
1033 1033 1033 1033 1033 1033 1033 1033 1033 
1033 1033 1033 1033 1033 1033 1033 1033 1033 
1033 1033 1033 1033 1033 1033 1033 1033 1033 
1033 1033 1033 1033 1033 1033 1033 1033 1033 
1033 1033 1033 1033 1033 1033 1033 1033 1033 
1033 1033 1033 1033 1033 1033 1033 1033 1033 
1033 1033 1033 1033 1033 1033 1033 1033 1033 
1033 1033 1033 1033 1033 1033 1033 1033 1033 
1033 1033 1033 1033 1033 1033 1033 1033 1033 
1033 1033 1033 1033 1033 1033 1033 1033 1033 
1033 1033 1033 1033 1033 1033 1033 1033 1033 
1033 1033 1033 1033 1033 1033 1033 1033 1033 
1033 1033 1033 1033 1033 1033 1033 1033 1033 
1033 1033 1033 1033 1033 1033 1033 1033 1033 
1033 1033 1033 1033 1033 1033 1033 1033 1033 
1033 1033 1033 1033 1033 1033 1033 1033 1033 
1033 1033 1033 1033 1033 1033 1033 1033 1033 
1033 1033 1033 1033 1033 1033 1033 1033 1033 
1033 1033 1033 1033 1033 1033 1033 1033 1033 
1033 1033 1033 1033 1033 1033 1033 1033 1033 
1033 1033 1033 1033 1033 1033 1033 1033 1033 
1033 1033 1033 1033 1033 1033 1033 1033 1033 
1033 1033 1033 1033 1033 1033 1033 1033 1033 
1033 1033 1033 1033 1033 1033 1033 1033 1033 
1033 1033 1033 1033 1033 1033 1033 1033 1033 
1033 1033 1033 1033 1033 1033 1033 1033 1033 
1033 1033 1033 1033 1033 1033 1033 1033 1033 
1033 1033 1033 1033 1033 1033 1033 1033 1033 
1033 1033 1033 1033 1033 1033 1033 1033 1033 
1033 1033 1033 1033 1033 1033 1033 1033 1033 
1033 1033 1033 1033 1033 1033 1033 1033 1033 
1033 1033 1033 1033 1033 1033 1033 1033 1033 