# vtk DataFile Version 4.2
vtk output
ASCII
DATASET POLYDATA
POINTS 14626 float
-23.3275 -38.8126 14.335 -23.1482 -38.4569 14.0756 -22.8381 -38.7506 14.1684 
-23.9813 -38.7541 14.3729 -23.6626 -38.3619 14.1225 -24.433 -38.808 14.3168 
-24.2496 -38.401 14.1404 -24.6462 -38.6262 14.1093 -22.102 -39.4339 14.3372 
-22.0216 -39.0524 14.1212 -21.6874 -39.2959 14.1244 -22.7715 -39.2562 14.3688 
-22.3873 -38.9289 14.1268 -23.3225 -39.3857 14.4506 -23.8262 -39.2924 14.455 
-24.3615 -39.2758 14.3769 -24.7357 -39.1416 14.1605 -21.5654 -39.8769 14.3349 
-21.2738 -39.6468 14.1025 -21.0961 -40.1014 14.1453 -22.0706 -40.0125 14.448 
-22.5951 -39.9063 14.4421 -23.1096 -39.8012 14.4434 -23.6452 -39.9265 14.3777 
-24.2272 -39.8141 14.3174 -24.7276 -39.8331 14.033 -21.3701 -40.3668 14.2863 
-21.1632 -40.5651 14.0996 -21.8179 -40.4169 14.354 -22.4204 -40.4414 14.3551 
-23.0892 -40.3618 14.3183 -23.583 -40.4158 14.1678 -24.0351 -40.2544 14.1318 
-24.4457 -40.1869 14.0403 -21.5864 -40.7789 14.1369 -22.161 -40.8374 14.1304 
-22.7796 -40.8203 14.1086 -23.2864 -40.7162 14.0691 -22.652 -38.1504 13.6858 
-22.6472 -37.8497 13.4964 -22.3086 -38.0995 13.4984 -23.2704 -38.1292 13.8036 
-23.043 -37.7851 13.494 -23.9795 -38.0633 13.8168 -23.6558 -37.7696 13.5012 
-24.612 -38.183 13.8234 -24.2661 -37.7683 13.5142 -25.0373 -38.2477 13.6656 
-24.8262 -37.8272 13.5116 -25.2436 -38.125 13.4004 -22.069 -38.7047 13.8141 
-22.0034 -38.4039 13.5053 -21.7049 -38.6951 13.5135 -22.7086 -38.5096 13.9304 
-24.9815 -38.7574 13.8399 -25.2414 -38.5905 13.5138 -20.8236 -39.3767 13.7186 
-20.8469 -39.0904 13.54 -20.4946 -39.2956 13.5324 -21.3696 -39.2296 13.8275 
-21.2131 -38.9722 13.5252 -25.0354 -39.4587 13.8418 -25.3305 -39.1467 13.4362 
-20.3721 -39.8224 13.7002 -20.1247 -39.538 13.4263 -20.0033 -39.9781 13.3251 
-20.883 -39.7828 13.9219 -25.0325 -39.8661 13.7742 -25.3375 -39.8604 13.4203 
-20.2624 -40.2403 13.5784 -20.4496 -40.6967 13.4244 -20.7433 -40.4174 13.8546 
-23.8085 -40.7151 13.934 -24.3584 -40.5801 13.8348 -24.7374 -40.421 13.6953 
-25.0334 -40.2057 13.5467 -20.8624 -41.062 13.7091 -20.6255 -41.2334 13.3487 
-21.3517 -41.0762 13.9055 -22.0074 -41.2193 13.9107 -22.6172 -41.2165 13.8969 
-23.2948 -41.1125 13.8874 -23.8104 -41.102 13.831 -24.2149 -41.1314 13.7144 
-24.7319 -41.0345 13.4061 -20.891 -41.4481 13.5848 -21.0876 -41.7083 13.5508 
-21.2694 -41.5512 13.7128 -21.8452 -41.6453 13.7393 -22.4646 -41.6562 13.7362 
-23.074 -41.6308 13.7377 -23.7332 -41.5607 13.7112 -24.2027 -41.7263 13.4241 
-24.4793 -41.4382 13.4218 -21.4309 -41.9681 13.4491 -22.1864 -42.036 13.5237 
-22.8021 -42.0291 13.5256 -23.3902 -42.0217 13.5168 -23.8471 -42.0093 13.4332 
-23.9152 -37.0165 13.0978 -23.8389 -36.6471 12.9001 -23.5125 -36.8694 12.9028 
-24.5695 -36.9582 13.1318 -24.232 -36.5746 12.9098 -25.1873 -36.9662 13.1555 
-24.8304 -36.5645 12.923 -25.7346 -37.0403 13.1261 -25.4197 -36.6176 12.9202 
-25.8841 -36.7894 12.9078 -22.6571 -37.5962 13.2092 -22.6684 -37.2515 12.9116 
-22.3265 -37.4976 12.908 -23.3604 -37.3818 13.1994 -23.0239 -37.1327 12.9128 
-23.9028 -37.4742 13.2926 -24.4124 -37.4023 13.2931 -25.0599 -37.5011 13.2972 
-25.5438 -37.3894 13.2424 -26.1366 -37.153 12.9913 -26.0204 -37.5654 13.0857 
-26.4663 -37.5352 12.7719 -22.0142 -38.1008 13.2097 -22.0056 -37.8019 12.908 
-21.7177 -38.1015 12.9083 -25.5817 -37.9832 13.1444 -25.9827 -38.1324 12.7797 
-26.275 -37.8549 12.812 -20.8658 -38.8139 13.2291 -20.676 -38.5202 12.7551 
-20.4637 -38.7648 12.9679 -21.4891 -38.5545 13.2197 -21.2102 -38.3763 12.8131 
-25.4598 -38.6237 13.1091 -25.6731 -38.4549 12.8022 -20.305 -39.1165 13.2023 
-20.1968 -38.9602 12.9432 -19.9279 -39.3899 12.9814 -25.5735 -39.0661 12.9997 
-25.613 -39.5049 13.1561 -25.7763 -39.1997 12.7373 -19.7887 -40.0091 12.9203 
-25.6347 -39.8665 13.1732 -25.8132 -39.8017 12.7781 -20.1498 -40.4041 13.2832 
-19.9683 -40.4557 12.9629 -25.0302 -40.6976 13.269 -25.3293 -40.5169 12.993 
-25.6184 -40.1994 12.9353 -20.2321 -40.7409 13.019 -20.4083 -41.1875 12.8552 
-25.0333 -41.0475 13.137 -25.2073 -41.0648 12.8343 -20.8568 -41.6832 13.3244 
-20.6014 -41.7517 12.8404 -24.4512 -41.7013 13.2261 -24.7468 -41.6972 12.9163 
-25.0275 -41.3898 12.8974 -20.9421 -42.0689 13.0525 -21.3379 -42.2956 13.124 
-21.0331 -42.3723 12.8132 -21.8578 -42.3251 13.2231 -22.4763 -42.3309 13.2358 
-23.0838 -42.3362 13.2244 -23.6491 -42.3178 13.1863 -24.101 -42.2016 13.0801 
-24.4438 -42.0105 12.9396 -21.4891 -42.5105 12.7648 -22.0989 -42.5156 12.9224 
-22.6667 -42.6075 12.8461 -23.3718 -42.6099 12.909 -23.8868 -42.5208 12.8805 
-24.4934 -35.8752 12.4771 -24.3494 -35.5235 12.1161 -24.0481 -35.7807 12.3632 
-24.7754 -35.6555 12.218 -26.3108 -35.8186 12.5228 -26.2467 -35.423 12.3276 
-25.9065 -35.6766 12.314 -26.7941 -35.7997 12.4775 -26.6135 -35.4036 12.3236 
-27.0246 -35.6034 12.2903 -23.8882 -36.3073 12.6237 -23.7072 -36.0201 12.3013 
-23.4682 -36.3719 12.3624 -24.4929 -36.2646 12.7162 -24.9684 -35.8944 12.359 
-25.0511 -36.2086 12.6247 -25.7849 -36.2858 12.6313 -25.4112 -35.9401 12.3209 
-26.3259 -36.4092 12.6418 -26.7381 -36.2911 12.5465 -27.1254 -36.1128 12.3441 
-22.6749 -36.9995 12.6037 -22.4973 -36.7168 12.1328 -22.2833 -36.9714 12.3559 
-23.2855 -36.7302 12.6156 -23.0092 -36.5524 12.1987 -26.2989 -36.9276 12.7509 
-26.7366 -36.9078 12.5595 -27.1328 -36.7497 12.3363 -22.0284 -37.4844 12.6093 
-22.0167 -37.162 12.318 -21.7118 -37.4849 12.311 -26.7424 -37.3822 12.5705 
-27.1432 -37.4687 12.1946 -21.5269 -37.962 12.5741 -21.4156 -37.8172 12.324 
-21.1796 -38.0627 12.3678 -26.2439 -38.0792 12.605 -26.5027 -37.99 12.4675 
-26.843 -37.822 12.3187 -20.1641 -38.7746 12.6894 -20.2826 -38.4954 12.2796 
-19.9057 -38.7459 12.3158 -20.7358 -38.2956 12.2792 -25.6515 -38.8071 12.7347 
-25.913 -38.6938 12.4813 -26.2637 -38.3134 12.3485 -19.7146 -39.1415 12.5335 
-19.5993 -39.0116 12.1148 -19.4481 -39.4195 12.3123 -25.997 -39.2829 12.3827 
-19.5902 -39.7336 12.6195 -19.3013 -39.9743 12.2754 -25.9999 -39.896 12.2524 
-19.6501 -40.4432 12.6075 -19.2961 -40.6802 12.3178 -25.5855 -40.605 12.5785 
-25.8098 -40.4321 12.3573 -19.6283 -40.9918 12.4505 -19.4185 -41.1895 12.2501 
-20.0296 -40.9932 12.6338 -25.4281 -41.0694 12.3685 -25.6556 -40.8573 12.209 
-19.8329 -41.3907 12.2909 -20.2292 -41.4324 12.3923 -20.3926 -41.7604 12.3577 
-25.0324 -41.7111 12.6072 -25.2215 -41.6259 12.3374 -20.7381 -42.2315 12.6527 
-20.5052 -42.2138 12.2821 -24.3262 -42.5108 12.6614 -24.7386 -42.3153 12.3839 
-25.0227 -42.0082 12.2972 -20.9193 -42.5124 12.2588 -21.4069 -42.5915 12.3139 
-21.9783 -42.6798 12.4256 -22.5489 -42.8522 12.498 -22.3542 -42.9862 12.2609 
-23.0718 -42.8958 12.6072 -23.7758 -42.8505 12.617 -24.2843 -42.9023 12.4718 
-24.5855 -42.7615 12.3207 -22.8083 -43.1626 12.3197 -23.3792 -43.2137 12.3383 
-23.9989 -43.2057 12.2223 -24.4355 -43.0424 12.1838 -26.2588 -35.1801 12.0214 
-26.2476 -34.8474 11.7094 -25.9081 -35.0947 11.6917 -26.9738 -35.1567 12.0375 
-26.6502 -34.7685 11.7171 -27.5937 -35.1575 11.9598 -27.2839 -34.7572 11.7204 
-28.0439 -35.2029 11.9002 -27.9895 -34.7804 11.6054 -28.3481 -35.096 11.6601 
-23.372 -35.6703 11.8887 -23.2854 -35.5089 11.5187 -23.0662 -35.8276 11.7254 
-23.76 -35.6947 12.115 -23.8749 -35.4369 11.7155 -24.5027 -35.3977 11.6368 
-25.1949 -35.7019 12.0572 -24.8987 -35.4922 11.825 -25.6717 -35.5458 11.9995 
-25.4053 -35.387 11.6074 -27.434 -35.7419 12.1168 -27.9452 -35.6728 11.9721 
-28.3499 -35.5465 11.7632 -23.3022 -36.0788 12.0597 -22.9016 -36.2052 11.7156 
-27.4332 -36.3979 12.15 -27.8294 -36.3555 11.9347 -28.3334 -36.2381 11.6323 
-21.9824 -36.9855 12.0735 -22.0964 -36.7141 11.6693 -21.706 -36.9948 11.7063 
-22.5447 -36.4931 11.6408 -27.5047 -37.0029 12.0287 -27.8072 -36.9702 11.6909 
-28.0757 -36.6645 11.6303 -21.4002 -37.5125 12.0218 -21.378 -37.2412 11.5206 
-21.0915 -37.6031 11.7122 -27.4314 -37.484 11.9411 -27.5922 -37.3865 11.7307 
-20.9208 -37.952 11.9967 -20.7974 -37.8552 11.5377 -20.5956 -38.1426 11.7753 
-26.7283 -38.3074 12.0411 -27.1117 -38.0563 11.8268 -27.3951 -37.7613 11.6059 
-20.2786 -38.3922 11.6621 -19.9035 -38.6755 11.8656 -26.302 -38.7516 12.1293 
-26.6815 -38.8198 11.8823 -27.0219 -38.5154 11.6239 -19.5066 -38.9842 11.5476 
-19.2708 -39.396 11.9215 -26.2991 -39.3597 12.0235 -26.5912 -39.2472 11.7426 
-26.8406 -38.952 11.5197 -18.5923 -39.9482 11.9032 -18.2663 -39.6679 11.5502 
-18.1373 -40.0689 11.7203 -19.0026 -39.8324 11.9966 -18.805 -39.5295 11.638 
-26.1832 -39.9416 11.9277 -26.4289 -39.798 11.6019 -18.4926 -40.4366 11.9136 
-18.1744 -40.5174 11.6796 -18.9263 -40.3303 12.1082 -26.0231 -40.4729 11.8031 
-26.267 -40.2432 11.6254 -18.4805 -40.8364 11.7609 -18.6499 -41.2997 11.7045 
-18.9575 -41.0228 12.0151 -25.5841 -41.2007 11.9458 -25.8055 -41.0349 11.7528 
-19.011 -41.5744 11.8386 -18.8271 -41.7703 11.6455 -19.5368 -41.6877 11.9886 
-20.0905 -41.7282 12.1321 -25.4249 -41.6689 11.7718 -25.6419 -41.4625 11.6049 
-19.2225 -41.9855 11.7023 -19.6617 -42.131 11.7281 -19.9167 -42.4492 11.5741 
-20.1077 -42.123 11.9414 -24.992 -42.4114 11.9406 -25.214 -42.2326 11.7249 
-20.3887 -42.4938 11.7913 -20.8241 -42.6704 11.6267 -21.43 -42.6935 11.9157 
-22.0092 -42.97 12.027 -21.6743 -43.0731 11.6133 -24.7896 -42.9042 11.7618 
-25.0663 -42.6641 11.588 -22.0867 -43.4426 11.9022 -21.826 -43.6077 11.5669 
-22.571 -43.4526 12.0919 -23.1153 -43.518 12.1416 -23.622 -43.6198 12.0035 
-24.1205 -43.5707 11.6538 -24.3964 -43.2684 11.7693 -22.0834 -43.8408 11.8001 
-22.2751 -44.1134 11.7606 -22.4702 -43.9411 11.9178 -23.098 -43.9708 11.9285 
-23.5755 -44.0185 11.7769 -23.8667 -43.8651 11.6403 -22.6559 -44.3711 11.5804 
-23.3663 -44.3035 11.5641 -26.2598 -34.5935 11.4034 -26.2519 -34.2509 11.1001 
-25.9097 -34.5017 11.0971 -26.9515 -34.4675 11.4106 -26.6587 -34.1759 11.0952 
-27.5849 -34.4795 11.4009 -27.2683 -34.1743 11.1007 -27.9906 -34.4869 11.3343 
-27.834 -34.2361 11.1036 -28.2549 -34.4559 11.1555 -25.7127 -34.9597 11.3503 
-25.607 -34.8138 11.0973 -25.382 -35.0851 11.133 -28.6481 -35.3041 11.405 
[...]
CELL_DATA 29272
SCALARS scalars float
LOOKUP_TABLE default
1030 1030 1030 1030 1030 1030 1030 1030 1030 
1030 1030 1030 1030 1030 1030 1030 1030 1030 
1030 1030 1030 1030 1030 1030 1030 1030 1030 
1030 1030 1030 1030 1030 1030 1030 1030 1030 
1030 1030 1030 1030 1030 1030 1030 1030 1030 
1030 1030 1030 1030 1030 1030 1030 1030 1030 
1030 1030 1030 1030 1030 1030 1030 1030 1030 
1030 1030 1030 1030 1030 1030 1030 1030 1030 
1030 1030 1030 1030 1030 1030 1030 1030 1030 
1030 1030 1030 1030 1030 1030 1030 1030 1030 
1030 1030 1030 1030 1030 1030 1030 1030 1030 
1030 1030 1030 1030 1030 1030 1030 1030 1030 
1030 1030 1030 1030 1030 1030 1030 1030 1030 
1030 1030 1030 1030 1030 1030 1030 1030 1030 
1030 1030 1030 1030 1030 1030 1030 1030 1030 
1030 1030 1030 1030 1030 1030 1030 1030 1030 
1030 1030 1030 1030 1030 1030 1030 1030 1030 
1030 1030 1030 1030 1030 1030 1030 1030 1030 
1030 1030 1030 1030 1030 1030 1030 1030 1030 
1030 1030 1030 1030 1030 1030 1030 1030 1030 
1030 1030 1030 1030 1030 1030 1030 1030 1030 
1030 1030 1030 1030 1030 1030 1030 1030 1030 
1030 1030 1030 1030 1030 1030 1030 1030 1030 
1030 1030 1030 1030 1030 1030 1030 1030 1030 
1030 1030 1030 1030 1030 1030 1030 1030 1030 
1030 1030 1030 1030 1030 1030 1030 1030 1030 
1030 1030 1030 1030 1030 1030 1030 1030 1030 
1030 1030 1030 1030 1030 1030 1030 1030 1030 
1030 1030 1030 1030 1030 1030 1030 1030 1030 
1030 1030 1030 1030 1030 1030 1030 1030 1030 
1030 1030 1030 1030 1030 1030 1030 1030 1030 
1030 1030 1030 1030 1030 1030 1030 1030 1030 
1030 1030 1030 1030 1030 1030 1030 1030 1030 
1030 1030 1030 1030 1030 1030 1030 1030 1030 
1030 1030 1030 1030 1030 1030 1030 1030 1030 
1030 1030 1030 1030 1030 1030 1030 1030 1030 
1030 1030 1030 1030 1030 1030 1030 1030 1030 
1030 1030 1030 1030 1030 1030 1030 1030 1030 
1030 1030 1030 1030 1030 1030 1030 1030 1030 
1030 1030 1030 1030 1030 1030 1030 1030 1030 
1030 1030 1030 1030 1030 1030 1030 1030 1030 
1030 1030 1030 1030 1030 1030 1030 1030 1030 
1030 1030 1030 1030 1030 1030 1030 1030 1030 
1030 1030 1030 1030 1030 1030 1030 1030 1030 
1030 1030 1030 1030 1030 1030 1030 1030 1030 
1030 1030 1030 1030 1030 1030 1030 1030 1030 
1030 1030 1030 1030 1030 1030 1030 1030 1030 
1030 1030 1030 1030 1030 1030 1030 1030 1030 
1030 1030 1030 1030 1030 1030 1030 1030 1030 
1030 1030 1030 1030 1030 1030 1030 1030 1030 
1030 1030 1030 1030 1030 1030 1030 1030 1030 
1030 1030 1030 1030 1030 1030 1030 1030 1030 
1030 1030 1030 1030 1030 1030 1030 1030 1030 
1030 1030 1030 1030 1030 1030 1030 1030 1030 
1030 1030 1030 1030 1030 1030 1030 1030 1030 
1030 1030 1030 1030 1030 1030 1030 1030 1030 
1030 1030 1030 1030 1030 1030 1030 1030 1030 
1030 1030 1030 1030 1030 1030 1030 1030 1030 
1030 1030 1030 1030 1030 1030 1030 1030 1030 
1030 1030 1030 1030 1030 1030 1030 1030 1030 
1030 1030 1030 1030 1030 1030 1030 1030 1030 
1030 1030 1030 1030 1030 1030 1030 1030 1030 
1030 1030 1030 1030 1030 1030 1030 1030 1030 
1030 1030 1030 1030 1030 1030 1030 1030 1030 
1030 1030 1030 1030 1030 1030 1030 1030 1030 
1030 1030 1030 1030 1030 1030 1030 1030 1030 
1030 1030 1030 1030 1030 1030 1030 1030 1030 
1030 1030 1030 1030 1030 1030 1030 1030 1030 
1030 1030 1030 1030 1030 1030 1030 1030 1030 
1030 1030 1030 1030 1030 1030 1030 1030 1030 
1030 1030 1030 1030 1030 1030 1030 1030 1030 
1030 1030 1030 1030 1030 1030 1030 1030 1030 
1030 1030 1030 1030 1030 1030 1030 1030 1030 
1030 1030 1030 1030 1030 1030 1030 1030 1030 
1030 1030 1030 1030 1030 1030 1030 1030 1030 
1030 1030 1030 1030 1030 1030 1030 1030 1030 
1030 1030 1030 1030 1030 1030 1030 1030 1030 
1030 1030 1030 1030 1030 1030 1030 1030 1030 
1030 1030 1030 1030 1030 1030 1030 1030 1030 
1030 1030 1030 1030 1030 1030 1030 1030 1030 
1030 1030 1030 1030 1030 1030 1030 1030 1030 
1030 1030 1030 1030 1030 1030 1030 1030 1030 
1030 1030 1030 1030 1030 1030 1030 1030 1030 
1030 1030 1030 1030 1030 1030 1030 1030 1030 
1030 1030 1030 1030 1030 1030 1030 1030 1030 
1030 1030 1030 1030 1030 1030 1030 1030 1030 
1030 1030 1030 1030 1030 1030 1030 1030 1030 
1030 1030 1030 1030 1030 1030 1030 1030 1030 
1030 1030 1030 1030 1030 1030 1030 1030 1030 
1030 1030 1030 1030 1030 1030 1030 1030 1030 
1030 1030 1030 1030 1030 1030 1030 1030 1030 
1030 1030 1030 1030 1030 1030 1030 1030 1030 
1030 1030 1030 1030 1030 1030 1030 1030 1030 
1030 1030 1030 1030 1030 1030 1030 1030 1030 
1030 1030 1030 1030 1030 1030 1030 1030 1030 
1030 1030 1030 1030 1030 1030 1030 1030 1030 
1030 1030 1030 1030 1030 1030 1030 1030 1030 
1030 1030 1030 1030 1030 1030 1030 1030 1030 
1030 1030 1030 1030 1030 1030 1030 1030 1030 
1030 1030 1030 1030 1030 1030 1030 1030 1030 
1030 1030 1030 1030 1030 1030 1030 1030 1030 
1030 1030 1030 1030 1030 1030 1030 1030 1030 
1030 1030 1030 1030 1030 1030 1030 1030 1030 
1030 1030 1030 1030 1030 1030 1030 1030 1030 
1030 1030 1030 1030 1030 1030 1030 1030 1030 
1030 1030 1030 1030 1030 1030 1030 1030 1030 
1030 1030 1030 1030 1030 1030 1030 1030 1030 
1030 1030 1030 1030 1030 1030 1030 1030 1030 
1030 1030 1030 1030 1030 1030 1030 1030 1030 
1030 1030 1030 1030 1030 1030 1030 1030 1030 
1030 1030 1030 1030 1030 1030 1030 1030 1030 
1030 1030 1030 1030 1030 1030 1030 1030 1030 
1030 1030 1030 1030 1030 1030 1030 1030 1030 
1030 1030 1030 1030 1030 1030 1030 1030 1030 
1030 1030 1030 1030 1030 1030 1030 1030 1030 
1030 1030 1030 1030 1030 1030 1030 1030 1030 
1030 1030 1030 1030 1030 1030 1030 1030 1030 
1030 1030 1030 1030 1030 1030 1030 1030 1030 
1030 1030 1030 1030 1030 1030 1030 1030 1030 
1030 1030 1030 1030 1030 1030 1030 1030 1030 
1030 1030 1030 1030 1030 1030 1030 1030 1030 
1030 1030 1030 1030 1030 1030 1030 1030 1030 
1030 1030 1030 1030 1030 1030 1030 1030 1030 
1030 1030 1030 1030 1030 1030 1030 1030 1030 
1030 1030 1030 1030 1030 1030 1030 1030 1030 
1030 1030 1030 1030 1030 1030 1030 1030 1030 
1030 1030 1030 1030 1030 1030 1030 1030 1030 
1030 1030 1030 1030 1030 1030 1030 1030 1030 
1030 1030 1030 1030 1030 1030 1030 1030 1030 
1030 1030 1030 1030 1030 1030 1030 1030 1030 
1030 1030 1030 1030 1030 1030 1030 1030 1030 
1030 1030 1030 1030 1030 1030 1030 1030 1030 
1030 1030 1030 1030 1030 1030 1030 1030 1030 
1030 1030 1030 1030 1030 1030 1030 1030 1030 
1030 1030 1030 1030 1030 1030 1030 1030 1030 
1030 1030 1030 1030 1030 1030 1030 1030 1030 
1030 1030 1030 1030 1030 1030 1030 1030 1030 
1030 1030 1030 1030 1030 1030 1030 1030 1030 
1030 1030 1030 1030 1030 1030 1030 1030 1030 
1030 1030 1030 1030 1030 1030 1030 1030 1030 
1030 1030 1030 1030 1030 1030 1030 1030 1030 
1030 1030 1030 1030 1030 1030 1030 1030 1030 
1030 1030 1030 1030 1030 1030 1030 1030 1030 
1030 1030 1030 1030 1030 1030 1030 1030 1030 
1030 1030 1030 1030 1030 1030 1030 1030 1030 
1030 1030 1030 1030 1030 1030 1030 1030 1030 
1030 1030 1030 1030 1030 1030 1030 1030 1030 
1030 1030 1030 1030 1030 1030 1030 1030 1030 
1030 1030 1030 1030 1030 1030 1030 1030 1030 
1030 1030 1030 1030 1030 1030 1030 1030 1030 
1030 1030 1030 1030 1030 1030 1030 1030 1030 
1030 1030 1030 1030 1030 1030 1030 1030 1030 
1030 1030 1030 1030 1030 1030 1030 1030 1030 
1030 1030 1030 1030 1030 1030 1030 1030 1030 
1030 1030 1030 1030 1030 1030 1030 1030 1030 
1030 1030 1030 1030 1030 1030 1030 1030 1030 
1030 1030 1030 1030 1030 1030 1030 1030 1030 
1030 1030 1030 1030 1030 1030 1030 1030 1030 
1030 1030 1030 1030 1030 1030 1030 1030 1030 
1030 1030 1030 1030 1030 1030 1030 1030 1030 
1030 1030 1030 1030 1030 1030 1030 1030 1030 
1030 1030 1030 1030 1030 1030 1030 1030 1030 
1030 1030 1030 1030 1030 1030 1030 1030 1030 
1030 1030 1030 1030 1030 1030 1030 1030 1030 
1030 1030 1030 1030 1030 1030 1030 1030 1030 
1030 1030 1030 1030 1030 1030 1030 1030 1030 
1030 1030 1030 1030 1030 1030 1030 1030 1030 
1030 1030 1030 1030 1030 1030 1030 1030 1030 
1030 1030 1030 1030 1030 1030 1030 1030 1030 
1030 1030 1030 1030 1030 1030 1030 1030 1030 
1030 1030 1030 1030 1030 1030 1030 1030 1030 
1030 1030 1030 1030 1030 1030 1030 1030 1030 
1030 1030 1030 1030 1030 1030 1030 1030 1030 
1030 1030 1030 1030 1030 1030 1030 1030 1030 
1030 1030 1030 1030 1030 1030 1030 1030 1030 
1030 1030 1030 1030 1030 1030 1030 1030 1030 
1030 1030 1030 1030 1030 1030 1030 1030 1030 
1030 1030 1030 1030 1030 1030 1030 1030 1030 
1030 1030 1030 1030 1030 1030 1030 1030 1030 
1030 1030 1030 1030 1030 1030 1030 1030 1030 
1030 1030 1030 1030 1030 1030 1030 1030 1030 
1030 1030 1030 1030 1030 1030 1030 1030 1030 
1030 1030 1030 1030 1030 1030 1030 1030 1030 
1030 1030 1030 1030 1030 1030 1030 1030 1030 
1030 1030 1030 1030 1030 1030 1030 1030 1030 
1030 1030 1030 1030 1030 1030 1030 1030 1030 
1030 1030 1030 1030 1030 1030 1030 1030 1030 
1030 1030 1030 1030 1030 1030 1030 1030 1030 
1030 1030 1030 1030 1030 1030 1030 1030 1030 
1030 1030 1030 1030 1030 1030 1030 1030 1030 
1030 1030 1030 1030 1030 1030 1030 1030 1030 
1030 1030 1030 1030 1030 1030 1030 1030 1030 
1030 1030 1030 1030 1030 1030 1030 1030 1030 
1030 1030 1030 1030 1030 1030 1030 1030 1030 
1030 1030 1030 1030 1030 1030 1030 1030 1030 
1030 1030 1030 1030 1030 1030 1030 1030 1030 
1030 1030 1030 1030 1030 1030 1030 1030 1030 
1030 1030 1030 1030 1030 1030 1030 1030 1030 
1030 1030 1030 1030 1030 1030 1030 1030 1030 
1030 1030 1030 1030 1030 1030 1030 1030 1030 
1030 1030 1030 1030 1030 1030 1030 1030 1030 
1030 1030 1030 1030 1030 1030 1030 1030 1030 
1030 1030 1030 1030 1030 1030 1030 1030 1030 
1030 1030 1030 1030 1030 1030 1030 1030 1030 
1030 1030 1030 1030 1030 1030 1030 1030 1030 
1030 1030 1030 1030 1030 1030 1030 1030 1030 
1030 1030 1030 1030 1030 1030 1030 1030 1030 
1030 1030 1030 1030 1030 1030 1030 1030 1030 
1030 1030 1030 1030 1030 1030 1030 1030 1030 
1030 1030 1030 1030 1030 1030 1030 1030 1030 
1030 1030 1030 1030 1030 1030 1030 1030 1030 
1030 1030 1030 1030 1030 1030 1030 1030 1030 
1030 1030 1030 1030 1030 1030 1030 1030 1030 
1030 1030 1030 1030 1030 1030 1030 1030 1030 
1030 1030 1030 1030 1030 1030 1030 1030 1030 
1030 1030 1030 1030 1030 1030 1030 1030 1030 
1030 1030 1030 1030 1030 1030 1030 1030 1030 
1030 1030 1030 1030 1030 1030 1030 1030 1030 
1030 1030 1030 1030 1030 1030 1030 1030 1030 
1030 1030 1030 1030 1030 1030 1030 1030 1030 
1030 1030 1030 1030 1030 1030 1030 1030 1030 
1030 1030 1030 1030 1030 1030 1030 1030 1030 
1030 1030 1030 1030 1030 1030 1030 1030 1030 
1030 1030 1030 1030 1030 1030 1030 1030 1030 
1030 1030 1030 1030 1030 1030 1030 1030 1030 
1030 1030 1030 1030 1030 1030 1030 1030 1030 
1030 1030 1030 1030 1030 1030 1030 1030 1030 
1030 1030 1030 1030 1030 1030 1030 1030 1030 
1030 1030 1030 1030 1030 1030 1030 1030 1030 
1030 1030 1030 1030 1030 1030 1030 1030 1030 
1030 1030 1030 1030 1030 1030 1030 1030 1030 
1030 1030 1030 1030 1030 1030 1030 1030 1030 
1030 1030 1030 1030 1030 1030 1030 1030 1030 
1030 1030 1030 1030 1030 1030 1030 1030 1030 
1030 1030 1030 1030 1030 1030 1030 1030 1030 
1030 1030 1030 1030 1030 1030 1030 1030 1030 
1030 1030 1030 1030 1030 1030 1030 1030 1030 
1030 1030 1030 1030 1030 1030 1030 1030 1030 
1030 1030 1030 1030 1030 1030 1030 1030 1030 
1030 1030 1030 1030 1030 1030 1030 1030 1030 
1030 1030 1030 1030 1030 1030 1030 1030 1030 
1030 1030 1030 1030 1030 1030 1030 1030 1030 
1030 1030 1030 1030 1030 1030 1030 1030 1030 
1030 1030 1030 1030 1030 1030 1030 1030 1030 
1030 1030 1030 1030 1030 1030 1030 1030 1030 
1030 1030 1030 1030 1030 1030 1030 1030 1030 
1030 1030 1030 1030 1030 1030 1030 1030 1030 
1030 1030 1030 1030 1030 1030 1030 1030 1030 
1030 1030 1030 1030 1030 1030 1030 1030 1030 
1030 1030 1030 1030 1030 1030 1030 1030 1030 
1030 1030 1030 1030 1030 1030 1030 1030 1030 
1030 1030 1030 1030 1030 1030 1030 1030 1030 
1030 1030 1030 1030 1030 1030 1030 1030 1030 
1030 1030 1030 1030 1030 1030 1030 1030 1030 
1030 1030 1030 1030 1030 1030 1030 1030 1030 
1030 1030 1030 1030 1030 1030 1030 1030 1030 
1030 1030 1030 1030 1030 1030 1030 1030 1030 
1030 1030 1030 1030 1030 1030 1030 1030 1030 
1030 1030 1030 1030 1030 1030 1030 1030 1030 
1030 1030 1030 1030 1030 1030 1030 1030 1030 
1030 1030 1030 1030 1030 1030 1030 1030 1030 
1030 1030 1030 1030 1030 1030 1030 1030 1030 
1030 1030 1030 1030 1030 1030 1030 1030 1030 
1030 1030 1030 1030 1030 1030 1030 1030 1030 
1030 1030 1030 1030 1030 1030 1030 1030 1030 
1030 1030 1030 1030 1030 1030 1030 1030 1030 
1030 1030 1030 1030 1030 1030 1030 1030 1030 
1030 1030 1030 1030 1030 1030 1030 1030 1030 
1030 1030 1030 1030 1030 1030 1030 1030 1030 
1030 1030 1030 1030 1030 1030 1030 1030 1030 
1030 1030 1030 1030 1030 1030 1030 1030 1030 
1030 1030 1030 1030 1030 1030 1030 1030 1030 
1030 1030 1030 1030 1030 1030 1030 1030 1030 
1030 1030 1030 1030 1030 1030 1030 1030 1030 
1030 1030 1030 1030 1030 1030 1030 1030 1030 
1030 1030 1030 1030 1030 1030 1030 1030 1030 
1030 1030 1030 1030 1030 1030 1030 1030 1030 
1030 1030 1030 1030 1030 1030 1030 1030 1030 
1030 1030 1030 1030 1030 1030 1030 1030 1030 
1030 1030 1030 1030 1030 1030 1030 1030 1030 
1030 1030 1030 1030 1030 1030 1030 1030 1030 
1030 1030 1030 1030 1030 1030 1030 1030 1030 
1030 1030 1030 1030 1030 1030 1030 1030 1030 
1030 1030 1030 1030 1030 1030 1030 1030 1030 
1030 1030 1030 1030 1030 1030 1030 1030 1030 
1030 1030 1030 1030 1030 1030 1030 1030 1030 
1030 1030 1030 1030 1030 1030 1030 1030 1030 
1030 1030 1030 1030 1030 1030 1030 1030 1030 
1030 1030 1030 1030 1030 1030 1030 1030 1030 
1030 1030 1030 1030 1030 1030 1030 1030 1030 
1030 1030 1030 1030 1030 1030 1030 1030 1030 
1030 1030 1030 1030 1030 1030 1030 1030 1030 
1030 1030 1030 1030 1030 1030 1030 1030 1030 
1030 1030 1030 1030 1030 1030 1030 1030 1030 
1030 1030 1030 1030 1030 1030 1030 1030 1030 
1030 1030 1030 1030 1030 1030 1030 1030 1030 
1030 1030 1030 1030 1030 1030 1030 1030 1030 
1030 1030 1030 1030 1030 1030 1030 1030 1030 
1030 1030 1030 1030 1030 1030 1030 1030 1030 
1030 1030 1030 1030 1030 1030 1030 1030 1030 
1030 1030 1030 1030 1030 1030 1030 1030 1030 
1030 1030 1030 1030 1030 1030 1030 1030 1030 
1030 1030 1030 1030 1030 1030 1030 1030 1030 
1030 1030 1030 1030 1030 1030 1030 1030 1030 
1030 1030 1030 1030 1030 1030 1030 1030 1030 
1030 1030 1030 1030 1030 1030 1030 1030 1030 
1030 1030 1030 1030 1030 1030 1030 1030 1030 
1030 1030 1030 1030 1030 1030 1030 1030 1030 
1030 1030 1030 1030 1030 1030 1030 1030 1030 
1030 1030 1030 1030 1030 1030 1030 1030 1030 
1030 1030 1030 1030 1030 1030 1030 1030 1030 
1030 1030 1030 1030 1030 1030 1030 1030 1030 
1030 1030 1030 1030 1030 1030 1030 1030 1030 
1030 1030 1030 1030 1030 1030 1030 1030 1030 
1030 1030 1030 1030 1030 1030 1030 1030 1030 
1030 1030 1030 1030 1030 1030 1030 1030 1030 
1030 1030 1030 1030 1030 1030 1030 1030 1030 
1030 1030 1030 1030 1030 1030 1030 1030 1030 
1030 1030 1030 1030 1030 1030 1030 1030 1030 
1030 1030 1030 1030 1030 1030 1030 1030 1030 
1030 1030 1030 1030 1030 1030 1030 1030 1030 
1030 1030 1030 1030 1030 1030 1030 1030 1030 
1030 1030 1030 1030 1030 1030 1030 1030 1030 
1030 1030 1030 1030 1030 1030 1030 1030 1030 
1030 1030 1030 1030 1030 1030 1030 1030 1030 
1030 1030 1030 1030 1030 1030 1030 1030 1030 
1030 1030 1030 1030 1030 1030 1030 1030 1030 
1030 1030 1030 1030 1030 1030 1030 1030 1030 
1030 1030 1030 1030 1030 1030 1030 1030 1030 
1030 1030 1030 1030 1030 1030 1030 1030 1030 
1030 1030 1030 1030 1030 1030 1030 1030 1030 
1030 1030 1030 1030 1030 1030 1030 1030 1030 
1030 1030 1030 1030 1030 1030 1030 1030 1030 
1030 1030 1030 1030 1030 1030 1030 1030 1030 
1030 1030 1030 1030 1030 1030 1030 1030 1030 
1030 1030 1030 1030 1030 1030 1030 1030 1030 
1030 1030 1030 1030 1030 1030 1030 1030 1030 
1030 1030 1030 1030 1030 1030 1030 1030 1030 
1030 1030 1030 1030 1030 1030 1030 1030 1030 
1030 1030 1030 1030 1030 1030 1030 1030 1030 
1030 1030 1030 1030 1030 1030 1030 1030 1030 
1030 1030 1030 1030 1030 1030 1030 1030 1030 
1030 1030 1030 1030 1030 1030 1030 1030 1030 
1030 1030 1030 1030 1030 1030 1030 1030 1030 
1030 1030 1030 1030 1030 1030 1030 1030 1030 
1030 1030 1030 1030 1030 1030 1030 1030 1030 
1030 1030 1030 1030 1030 1030 1030 1030 1030 
1030 1030 1030 1030 1030 1030 1030 1030 1030 
1030 1030 1030 1030 1030 1030 1030 1030 1030 
1030 1030 1030 1030 1030 1030 1030 1030 1030 
1030 1030 1030 1030 1030 1030 1030 1030 1030 
1030 1030 1030 1030 1030 1030 1030 1030 1030 
1030 1030 1030 1030 1030 1030 1030 1030 1030 
1030 1030 1030 1030 1030 1030 1030 1030 1030 
1030 1030 1030 1030 1030 1030 1030 1030 1030 
1030 1030 1030 1030 1030 1030 1030 1030 1030 
1030 1030 1030 1030 1030 1030 1030 1030 1030 
1030 1030 1030 1030 1030 1030 1030 1030 1030 
1030 1030 1030 1030 1030 1030 1030 1030 1030 
1030 1030 1030 1030 1030 1030 1030 1030 1030 
1030 1030 1030 1030 1030 1030 1030 1030 1030 
1030 1030 1030 1030 1030 1030 1030 1030 1030 
1030 1030 1030 1030 1030 1030 1030 1030 1030 
1030 1030 1030 1030 1030 1030 1030 1030 1030 
1030 1030 1030 1030 1030 1030 1030 1030 1030 
1030 1030 1030 1030 1030 1030 1030 1030 1030 
1030 1030 1030 1030 1030 1030 1030 1030 1030 
1030 1030 1030 1030 1030 1030 1030 1030 1030 
1030 1030 1030 1030 1030 1030 1030 1030 1030 
1030 1030 1030 1030 1030 1030 1030 1030 1030 
1030 1030 1030 1030 1030 1030 1030 1030 1030 
1030 1030 1030 1030 1030 1030 1030 1030 1030 
1030 1030 1030 1030 1030 1030 1030 1030 1030 
1030 1030 1030 1030 1030 1030 1030 1030 1030 
1030 1030 1030 1030 1030 1030 1030 1030 1030 
1030 1030 1030 1030 1030 1030 1030 1030 1030 
1030 1030 1030 1030 1030 1030 1030 1030 1030 
1030 1030 1030 1030 1030 1030 1030 1030 1030 
1030 1030 1030 1030 1030 1030 1030 1030 1030 
1030 1030 1030 1030 1030 1030 1030 1030 1030 
1030 1030 1030 1030 1030 1030 1030 1030 1030 
1030 1030 1030 1030 1030 1030 1030 1030 1030 
1030 1030 1030 1030 1030 1030 1030 1030 1030 
1030 1030 1030 1030 1030 1030 1030 1030 1030 
1030 1030 1030 1030 1030 1030 1030 1030 1030 
1030 1030 1030 1030 1030 1030 1030 1030 1030 
1030 1030 1030 1030 1030 1030 1030 1030 1030 
1030 1030 1030 1030 1030 1030 1030 1030 1030 
1030 1030 1030 1030 1030 1030 1030 1030 1030 
1030 1030 1030 1030 1030 1030 1030 1030 1030 
1030 1030 1030 1030 1030 1030 1030 1030 1030 
1030 1030 1030 1030 1030 1030 1030 1030 1030 
1030 1030 1030 1030 1030 1030 1030 1030 1030 
1030 1030 1030 1030 1030 1030 1030 1030 1030 
1030 1030 1030 1030 1030 1030 1030 1030 1030 
1030 1030 1030 1030 1030 1030 1030 1030 1030 
1030 1030 1030 1030 1030 1030 1030 1030 1030 
1030 1030 1030 1030 1030 1030 1030 1030 1030 
1030 1030 1030 1030 1030 1030 1030 1030 1030 
1030 1030 1030 1030 1030 1030 1030 1030 1030 
1030 1030 1030 1030 1030 1030 1030 1030 1030 
1030 1030 1030 1030 1030 1030 1030 1030 1030 
1030 1030 1030 1030 1030 1030 1030 1030 1030 
1030 1030 1030 1030 1030 1030 1030 1030 1030 
1030 1030 1030 1030 1030 1030 1030 1030 1030 
1030 1030 1030 1030 1030 1030 1030 1030 1030 
1030 1030 1030 1030 1030 1030 1030 1030 1030 
1030 1030 1030 1030 1030 1030 1030 1030 1030 
1030 1030 1030 1030 1030 1030 1030 1030 1030 
1030 1030 1030 1030 1030 1030 1030 1030 1030 
1030 1030 1030 1030 1030 1030 1030 1030 1030 
1030 1030 1030 1030 1030 1030 1030 1030 1030 
1030 1030 1030 1030 1030 1030 1030 1030 1030 
1030 1030 1030 1030 1030 1030 1030 1030 1030 
1030 1030 1030 1030 1030 1030 1030 1030 1030 
1030 1030 1030 1030 1030 1030 1030 1030 1030 
1030 1030 1030 1030 1030 1030 1030 1030 1030 
1030 1030 1030 1030 1030 1030 1030 1030 1030 
1030 1030 1030 1030 1030 1030 1030 1030 1030 
1030 1030 1030 1030 1030 1030 1030 1030 1030 
1030 1030 1030 1030 1030 1030 1030 1030 1030 
1030 1030 1030 1030 1030 1030 1030 1030 1030 
1030 1030 1030 1030 1030 1030 1030 1030 1030 
1030 1030 1030 1030 1030 1030 1030 1030 1030 
1030 1030 1030 1030 1030 1030 1030 1030 1030 
1030 1030 1030 1030 1030 1030 1030 1030 1030 
1030 1030 1030 1030 1030 1030 1030 1030 1030 
1030 1030 1030 1030 1030 1030 1030 1030 1030 
1030 1030 1030 1030 1030 1030 1030 1030 1030 
1030 1030 1030 1030 1030 1030 1030 1030 1030 
1030 1030 1030 1030 1030 1030 1030 1030 1030 
1030 1030 1030 1030 1030 1030 1030 1030 1030 
1030 1030 1030 1030 1030 1030 1030 1030 1030 