# vtk DataFile Version 4.2
vtk output
ASCII
DATASET POLYDATA
POINTS 1814 float
41.7232 4.3278 5.82194 41.5997 4.84145 5.4948 41.065 4.31636 5.62451 
42.4547 4.22701 5.75088 42.4029 4.94703 5.53727 43.0059 4.68887 5.45684 
40.9172 3.6839 5.75318 40.6193 3.95009 5.53756 40.4219 3.40493 5.40748 
41.6269 3.56091 5.79891 42.3081 3.58325 5.58812 42.9022 4.05905 5.45879 
40.999 2.94156 5.51902 41.7744 3.05081 5.46303 40.9304 5.49823 4.7451 
40.4795 5.80852 4.20151 40.269 5.15921 4.48649 41.8473 5.42222 5.02206 
41.5363 6.02017 4.26124 43.0304 5.3569 5.03324 42.7035 5.89237 4.38038 
43.9328 5.26299 4.82112 43.6569 5.79709 4.36435 44.3009 5.57936 4.36199 
38.9498 4.24059 4.72651 38.6889 4.58169 4.53949 38.4958 4.25367 4.60176 
38.9427 4.49421 4.47471 40.6768 4.54257 5.13258 40.0098 4.40489 4.57869 
43.4593 4.43917 5.13538 44.8102 5.15393 4.45715 44.5435 4.45594 4.81011 
45.4821 4.45596 4.68587 45.6242 4.82124 4.41119 46.1347 4.58175 4.37958 
38.8027 3.55019 4.81835 38.1799 3.74853 4.33738 39.3139 4.22934 4.2612 
39.7653 3.57668 4.96256 42.6664 3.29648 5.18901 43.5621 3.41311 4.82292 
44.2572 3.64669 4.55863 45.0239 3.94996 4.51713 45.8298 4.19186 4.44022 
38.5064 2.95336 4.44479 39.1361 2.40718 4.54903 39.5788 2.50885 4.87886 
40.5986 2.38743 5.15299 41.6818 2.44707 5.15532 42.5873 2.30599 4.79758 
43.2962 2.60745 4.51272 43.842 3.06308 4.41795 39.6686 1.95095 4.25878 
40.4476 1.41894 4.34294 40.462 1.59986 4.81368 41.4826 1.54056 4.83635 
42.0931 1.49315 4.51414 42.6893 1.97604 4.13583 40.9168 1.13966 4.55617 
41.4588 1.13683 4.42175 41.8379 6.38952 3.77004 41.5937 6.73681 3.15698 
41.2791 6.40508 3.67343 42.2975 6.54392 3.35285 39.856 5.44205 3.94787 
39.736 5.84291 3.52741 39.2644 5.10957 3.44872 40.6062 6.20921 3.65593 
42.5016 6.21397 3.77133 43.5685 6.11177 3.52862 44.8722 5.42658 3.93211 
44.4095 5.78611 3.70801 45.152 5.46436 3.16405 38.5614 4.28066 4.17688 
39.6995 4.76156 4.01255 39.1643 4.43529 3.5756 45.6873 5.08306 3.58335 
46.7461 4.17675 3.98059 46.4627 4.77441 3.72726 47.2076 4.49648 3.17499 
37.759 3.37022 3.93336 37.7991 3.94046 3.53037 37.3175 3.31375 3.16528 
38.5846 4.19881 3.51824 44.6419 3.13092 4.17956 45.82 3.49669 4.13955 
46.7262 3.48096 4.02488 47.707 4.0681 3.51727 47.5983 3.41729 3.82198 
48.5419 3.38702 3.72526 48.4819 3.71391 3.52325 48.8855 3.46906 3.57606 
37.8391 2.85854 3.71949 38.6302 2.43418 4.02864 38.0353 2.38607 3.36881 
43.8688 2.38162 4.09287 44.8524 2.2705 4.00209 45.5041 2.60996 4.00009 
46.4903 2.53904 3.84778 47.1821 2.49616 3.3487 47.8719 2.97177 3.37472 
48.5216 3.2269 3.26173 38.7414 2.06954 3.43081 39.6796 1.79217 3.3766 
40.709 1.7511 3.56527 41.0357 1.33595 4.08301 41.7092 1.85605 3.69444 
41.7662 1.4341 4.13528 42.5455 2.14455 3.48454 43.5101 1.88337 3.49617 
44.1876 1.41727 3.53016 44.6465 1.54207 3.84538 45.6935 1.57038 3.89316 
46.3781 1.47716 3.59167 46.7711 1.87432 3.32977 44.5659 0.893657 3.43748 
45.071 0.298462 3.39482 45.4076 0.665409 3.75794 46.1678 0.490467 3.39875 
45.5342 0.0985579 3.3129 38.8978 6.46873 2.71055 38.5899 6.84445 2.13549 
38.172 6.18792 2.46608 39.7982 6.40336 2.99967 39.4897 6.84783 2.46523 
40.7716 6.56724 3.18758 40.5538 7.00072 2.45985 41.7333 7.1296 2.35292 
43.0609 6.50105 3.05698 42.6689 6.87741 2.52893 43.8464 6.44231 2.78725 
43.7034 6.80565 2.30728 44.3497 6.58756 2.296 38.7159 5.58314 2.95277 
37.9264 5.40944 2.52368 44.5586 6.0573 2.81049 45.2798 5.59695 2.17303 
37.9612 4.61531 2.8864 37.5098 5.04945 2.29532 37.2849 4.3243 2.50718 
38.6828 4.64094 3.16003 45.8793 5.06671 2.46299 46.7047 4.84627 2.6081 
47.4053 4.58054 2.38112 37.1035 3.60767 2.30869 48.0586 4.07654 2.59265 
48.6529 3.54734 3.13913 48.4349 3.32928 2.27575 37.5212 2.5832 3.0784 
37.2433 2.48976 2.29157 41.8357 2.34065 2.95815 41.2395 2.23194 2.22964 
41.6437 2.87458 2.17572 42.504 2.79567 2.51379 42.8562 2.3532 2.94293 
42.9727 2.52013 2.28281 47.4123 2.45352 2.7397 47.9163 2.82161 2.53654 
37.9237 1.98406 2.68315 38.8499 1.728 2.77398 39.6269 1.49104 2.83247 
39.1034 1.33066 2.33084 40.4045 1.44043 2.91592 41.1066 1.69669 2.63144 
43.3532 1.71877 2.41035 43.8634 1.36733 3.12892 46.8935 1.07184 3.09051 
47.2384 1.79066 2.66288 39.9181 1.07781 2.21604 40.7431 1.17297 2.24015 
43.9197 0.927014 2.66069 44.4955 0.440924 2.9578 44.1987 0.409874 2.17646 
46.8119 0.362513 3.12613 47.5519 1.02957 2.5609 47.367 0.264399 2.76132 
48.0008 0.524693 2.09744 44.995 0.0309193 2.56273 45.9214 -0.207734 2.54205 
46.6404 -0.275206 2.84126 46.4467 -0.570054 2.33637 47.1013 -0.466908 2.58431 
47.5275 -0.320703 2.11377 46.7091 -0.704675 2.51798 41.0632 7.4906 1.92834 
40.5279 7.78553 1.21469 40.2943 7.44691 1.65247 41.803 7.41499 1.84746 
41.3697 7.69255 1.42175 41.9374 7.40036 1.3398 37.8033 6.50594 1.95338 
37.9914 6.82087 1.37987 37.4166 6.15582 1.39573 38.6595 7.11552 1.55521 
39.4783 7.19134 1.7224 42.5812 7.09726 1.43038 43.558 6.99058 1.63431 
44.8455 6.32857 2.05433 44.4343 6.76958 1.55276 45.0467 6.117 1.34467 
37.5815 5.81859 2.04017 37.244 5.27476 1.66642 45.3997 5.40781 1.31264 
37.1199 4.44081 1.49019 45.8626 5.05094 1.46185 46.5397 4.91065 1.65394 
47.7394 4.52052 1.96059 47.3617 4.93122 1.44788 48.1409 4.45208 1.23865 
37.1295 3.44181 1.47659 48.7436 3.41439 1.72009 48.5603 3.73294 1.71454 
48.8225 3.44049 1.46579 37.1501 2.57315 1.34202 40.882 2.56639 1.87198 
40.4835 2.19047 1.22136 40.6994 2.97168 1.45718 41.5615 3.2288 1.56278 
42.464 2.88443 1.62601 43.0068 2.14174 1.41631 47.6881 2.14299 2.04531 
48.3434 2.7732 1.39927 48.6688 3.22496 1.56988 37.5884 1.54962 1.98575 
37.2832 1.6136 1.29533 38.2985 1.3879 2.07257 40.8167 2.02785 1.64137 
40.9688 1.51157 1.81761 43.3215 1.43451 1.29303 47.7738 1.39749 2.11062 
48.2725 1.41499 1.4165 37.9088 1.07317 1.35409 38.9539 0.97956 1.52299 
39.7594 0.866312 1.45504 40.414 1.04965 1.39972 43.7671 0.92111 1.58352 
44.2765 0.450541 1.36038 48.2702 0.407443 1.46222 44.7695 0.0971556 1.5111 
45.6406 -0.132099 1.47446 46.684 -0.342951 1.57944 46.8679 -0.592389 2.23274 
47.7595 -0.659379 1.74428 47.5034 -0.566386 1.40854 48.03 -0.310733 1.55799 
47.7895 -0.754091 1.45349 38.765 7.37153 0.930422 38.764 7.85545 0.467677 
38.2165 7.39628 0.360383 39.7541 7.5918 1.12518 39.6741 7.99931 0.47342 
40.9215 7.86636 0.539225 41.5448 7.54493 0.905433 41.4513 7.53243 0.307496 
37.5802 6.30624 0.854697 37.9455 6.72557 0.639262 42.0423 7.18842 0.564788 
42.7339 6.96715 0.476152 43.6899 6.8454 0.642467 44.6049 6.56712 0.840469 
44.2804 6.52648 0.399819 37.607 6.1694 0.471596 37.1923 5.47473 0.631898 
44.5951 6.07842 0.403269 45.1374 5.56885 0.72286 47.7937 5.3466 0.812367 
47.7632 5.64124 0.412694 47.4901 5.41721 0.457932 47.9838 5.20749 0.326791 
37.0494 4.16867 0.408555 45.4648 5.1484 0.391231 46.6447 5.0994 0.570084 
48.2542 4.49992 0.383826 37.1677 3.2562 0.632858 39.9605 3.39335 0.821955 
39.3261 3.38502 0.181442 39.6293 4.05259 0.387143 40.4066 4.07428 0.555908 
40.946 3.55564 1.0698 41.3702 3.78173 0.417503 41.8493 3.32442 0.96867 
41.944 3.20262 0.213579 48.5919 3.49739 1.21793 48.5003 3.45214 0.25159 
37.1525 2.4147 0.473644 39.6045 2.93345 0.536396 40.0194 2.37191 0.494638 
42.3963 2.64843 0.492513 42.7155 2.48714 1.02728 48.6913 2.72301 0.580527 
48.7789 2.15108 0.843337 48.9386 2.20721 0.377467 37.2569 1.53827 0.219451 
40.6563 1.56534 1.2127 40.2716 1.38562 0.484333 42.7768 2.10991 0.559232 
43.1525 1.52537 0.323858 48.7269 1.34513 0.737836 48.9775 1.68121 0.457764 
37.7504 0.985688 0.487434 38.5028 0.833903 0.651476 39.5916 0.786865 0.508803 
43.7473 1.04018 0.451281 44.5034 0.70673 0.486926 44.7976 0.306461 0.839572 
45.2342 0.464534 0.246959 48.2165 0.378152 0.77044 48.638 1.02711 0.32961 
45.4538 0.109519 0.656851 46.3634 0.00355311 0.526471 47.3645 -0.0969667 0.579043 
47.8237 -0.483966 1.03788 38.7635 8.27073 -0.0149434 38.8934 8.80627 -0.726693 
38.0728 8.5557 -0.582161 39.724 8.43985 -0.183652 39.6331 8.7676 -0.692844 
40.2989 8.60609 -0.714564 37.8584 7.63591 -0.134847 37.567 8.07629 -0.654996 
37.3716 7.34057 -0.637138 40.4986 8.22851 -0.252145 41.843 7.36802 -0.139681 
41.3682 7.91224 -0.377922 42.1272 7.62379 -0.878357 37.5226 6.49239 0.0827551 
37.0335 6.4544 -0.568187 42.7069 6.92477 -0.25399 43.7448 6.43477 -0.0618936 
43.2141 6.23044 -0.874888 36.837 5.60988 -0.125798 36.588 5.96397 -0.641068 
36.3433 5.34283 -0.630582 43.9465 5.80921 -0.363048 44.6855 5.39919 -0.0254882 
44.0998 5.25489 -0.674345 45.9985 5.38001 -0.110693 45.7856 5.72626 -0.818523 
45.3241 5.313 -0.453451 46.7616 5.39093 -0.188553 46.4438 5.71111 -0.565232 
47.7212 5.54721 0.153191 47.1841 5.70386 -0.724285 36.6744 4.7692 -0.115403 
36.3723 4.5742 -0.87589 39.9642 4.59945 -0.0278921 39.3178 4.31075 -0.289312 
39.675 4.84691 -0.715378 40.3653 4.80651 -0.585645 40.8102 4.3523 -0.0380775 
40.9517 4.26213 -0.755033 44.6808 5.07836 -0.714124 47.5346 5.27938 -0.194652 
48.2746 4.48985 -0.623328 36.7603 4.12103 -0.489464 37.0609 3.41154 -0.406001 
39.1021 3.66157 -0.664691 41.4027 3.65575 -0.477968 41.7047 3.48713 0.000537291 
48.7007 3.67775 -0.440914 48.788 3.45695 -0.299236 48.8528 3.42383 -0.560049 
37.0931 2.42074 -0.470432 39.5318 2.60626 0.0989909 39.3156 2.68895 -0.722074 
41.7966 3.12499 -0.410826 42.1811 2.52849 -0.665817 48.577 2.36796 0.059904 
48.2567 2.56989 -0.446657 48.6925 3.19201 -0.42827 37.285 1.67706 -0.627991 
39.744 2.09907 -0.436007 40.0869 1.5225 -0.571214 42.7963 1.92368 -0.455391 
43.3299 1.4618 -0.666194 46.8933 1.1801 -0.282406 46.2161 1.42467 -0.556857 
46.7537 1.77893 -0.552954 47.394 1.98226 -0.571859 47.9252 1.6252 -0.223075 
48.6382 1.53657 0.0977297 37.8009 1.07966 -0.436216 38.8239 0.722826 -0.3869 
39.5677 0.418295 -0.310374 39.5105 0.407835 -0.746447 40.0103 0.708584 -0.482136 
43.6557 1.16272 -0.353169 44.3913 1.03063 -0.428442 45.3411 0.98744 -0.412898 
46.0128 0.57266 -0.0590084 46.8557 0.382292 0.0112514 47.812 0.723984 0.0499417 
39.7647 0.270172 -0.592873 37.8147 9.269 -1.17851 37.727 9.74309 -1.86587 
37.385 9.27836 -1.48426 38.236 9.5676 -1.66866 37.5311 8.74466 -0.974368 
[...]
CELL_DATA 3628
SCALARS scalars float
LOOKUP_TABLE default
1034 1034 1034 1034 1034 1034 1034 1034 1034 
1034 1034 1034 1034 1034 1034 1034 1034 1034 
1034 1034 1034 1034 1034 1034 1034 1034 1034 
1034 1034 1034 1034 1034 1034 1034 1034 1034 
1034 1034 1034 1034 1034 1034 1034 1034 1034 
1034 1034 1034 1034 1034 1034 1034 1034 1034 
1034 1034 1034 1034 1034 1034 1034 1034 1034 
1034 1034 1034 1034 1034 1034 1034 1034 1034 
1034 1034 1034 1034 1034 1034 1034 1034 1034 
1034 1034 1034 1034 1034 1034 1034 1034 1034 
1034 1034 1034 1034 1034 1034 1034 1034 1034 
1034 1034 1034 1034 1034 1034 1034 1034 1034 
1034 1034 1034 1034 1034 1034 1034 1034 1034 
1034 1034 1034 1034 1034 1034 1034 1034 1034 
1034 1034 1034 1034 1034 1034 1034 1034 1034 
1034 1034 1034 1034 1034 1034 1034 1034 1034 
1034 1034 1034 1034 1034 1034 1034 1034 1034 
1034 1034 1034 1034 1034 1034 1034 1034 1034 
1034 1034 1034 1034 1034 1034 1034 1034 1034 
1034 1034 1034 1034 1034 1034 1034 1034 1034 
1034 1034 1034 1034 1034 1034 1034 1034 1034 
1034 1034 1034 1034 1034 1034 1034 1034 1034 
1034 1034 1034 1034 1034 1034 1034 1034 1034 
1034 1034 1034 1034 1034 1034 1034 1034 1034 
1034 1034 1034 1034 1034 1034 1034 1034 1034 
1034 1034 1034 1034 1034 1034 1034 1034 1034 
1034 1034 1034 1034 1034 1034 1034 1034 1034 
1034 1034 1034 1034 1034 1034 1034 1034 1034 
1034 1034 1034 1034 1034 1034 1034 1034 1034 
1034 1034 1034 1034 1034 1034 1034 1034 1034 
1034 1034 1034 1034 1034 1034 1034 1034 1034 
1034 1034 1034 1034 1034 1034 1034 1034 1034 
1034 1034 1034 1034 1034 1034 1034 1034 1034 
1034 1034 1034 1034 1034 1034 1034 1034 1034 
1034 1034 1034 1034 1034 1034 1034 1034 1034 
1034 1034 1034 1034 1034 1034 1034 1034 1034 
1034 1034 1034 1034 1034 1034 1034 1034 1034 
1034 1034 1034 1034 1034 1034 1034 1034 1034 
1034 1034 1034 1034 1034 1034 1034 1034 1034 
1034 1034 1034 1034 1034 1034 1034 1034 1034 
1034 1034 1034 1034 1034 1034 1034 1034 1034 
1034 1034 1034 1034 1034 1034 1034 1034 1034 
1034 1034 1034 1034 1034 1034 1034 1034 1034 
1034 1034 1034 1034 1034 1034 1034 1034 1034 
1034 1034 1034 1034 1034 1034 1034 1034 1034 
1034 1034 1034 1034 1034 1034 1034 1034 1034 
1034 1034 1034 1034 1034 1034 1034 1034 1034 
1034 1034 1034 1034 1034 1034 1034 1034 1034 
1034 1034 1034 1034 1034 1034 1034 1034 1034 
1034 1034 1034 1034 1034 1034 1034 1034 1034 
1034 1034 1034 1034 1034 1034 1034 1034 1034 
1034 1034 1034 1034 1034 1034 1034 1034 1034 
1034 1034 1034 1034 1034 1034 1034 1034 1034 
1034 1034 1034 1034 1034 1034 1034 1034 1034 
1034 1034 1034 1034 1034 1034 1034 1034 1034 
1034 1034 1034 1034 1034 1034 1034 1034 1034 
1034 1034 1034 1034 1034 1034 1034 1034 1034 
1034 1034 1034 1034 1034 1034 1034 1034 1034 
1034 1034 1034 1034 1034 1034 1034 1034 1034 
1034 1034 1034 1034 1034 1034 1034 1034 1034 
1034 1034 1034 1034 1034 1034 1034 1034 1034 
1034 1034 1034 1034 1034 1034 1034 1034 1034 
1034 1034 1034 1034 1034 1034 1034 1034 1034 
1034 1034 1034 1034 1034 1034 1034 1034 1034 
1034 1034 1034 1034 1034 1034 1034 1034 1034 
1034 1034 1034 1034 1034 1034 1034 1034 1034 
1034 1034 1034 1034 1034 1034 1034 1034 1034 
1034 1034 1034 1034 1034 1034 1034 1034 1034 
1034 1034 1034 1034 1034 1034 1034 1034 1034 
1034 1034 1034 1034 1034 1034 1034 1034 1034 
1034 1034 1034 1034 1034 1034 1034 1034 1034 
1034 1034 1034 1034 1034 1034 1034 1034 1034 
1034 1034 1034 1034 1034 1034 1034 1034 1034 
1034 1034 1034 1034 1034 1034 1034 1034 1034 
1034 1034 1034 1034 1034 1034 1034 1034 1034 
1034 1034 1034 1034 1034 1034 1034 1034 1034 
1034 1034 1034 1034 1034 1034 1034 1034 1034 
1034 1034 1034 1034 1034 1034 1034 1034 1034 
1034 1034 1034 1034 1034 1034 1034 1034 1034 
1034 1034 1034 1034 1034 1034 1034 1034 1034 
1034 1034 1034 1034 1034 1034 1034 1034 1034 
1034 1034 1034 1034 1034 1034 1034 1034 1034 
1034 1034 1034 1034 1034 1034 1034 1034 1034 
1034 1034 1034 1034 1034 1034 1034 1034 1034 
1034 1034 1034 1034 1034 1034 1034 1034 1034 
1034 1034 1034 1034 1034 1034 1034 1034 1034 
1034 1034 1034 1034 1034 1034 1034 1034 1034 
1034 1034 1034 1034 1034 1034 1034 1034 1034 
1034 1034 1034 1034 1034 1034 1034 1034 1034 
1034 1034 1034 1034 1034 1034 1034 1034 1034 
1034 1034 1034 1034 1034 1034 1034 1034 1034 
1034 1034 1034 1034 1034 1034 1034 1034 1034 
1034 1034 1034 1034 1034 1034 1034 1034 1034 
1034 1034 1034 1034 1034 1034 1034 1034 1034 
1034 1034 1034 1034 1034 1034 1034 1034 1034 
1034 1034 1034 1034 1034 1034 1034 1034 1034 
1034 1034 1034 1034 1034 1034 1034 1034 1034 
1034 1034 1034 1034 1034 1034 1034 1034 1034 
1034 1034 1034 1034 1034 1034 1034 1034 1034 
1034 1034 1034 1034 1034 1034 1034 1034 1034 
1034 1034 1034 1034 1034 1034 1034 1034 1034 
1034 1034 1034 1034 1034 1034 1034 1034 1034 
1034 1034 1034 1034 1034 1034 1034 1034 1034 
1034 1034 1034 1034 1034 1034 1034 1034 1034 
1034 1034 1034 1034 1034 1034 1034 1034 1034 
1034 1034 1034 1034 1034 1034 1034 1034 1034 
1034 1034 1034 1034 1034 1034 1034 1034 1034 
1034 1034 1034 1034 1034 1034 1034 1034 1034 
1034 1034 1034 1034 1034 1034 1034 1034 1034 
1034 1034 1034 1034 1034 1034 1034 1034 1034 
1034 1034 1034 1034 1034 1034 1034 1034 1034 
1034 1034 1034 1034 1034 1034 1034 1034 1034 
1034 1034 1034 1034 1034 1034 1034 1034 1034 
1034 1034 1034 1034 1034 1034 1034 1034 1034 
1034 1034 1034 1034 1034 1034 1034 1034 1034 
1034 1034 1034 1034 1034 1034 1034 1034 1034 
1034 1034 1034 1034 1034 1034 1034 1034 1034 
1034 1034 1034 1034 1034 1034 1034 1034 1034 
1034 1034 1034 1034 1034 1034 1034 1034 1034 
1034 1034 1034 1034 1034 1034 1034 1034 1034 
1034 1034 1034 1034 1034 1034 1034 1034 1034 
1034 1034 1034 1034 1034 1034 1034 1034 1034 
1034 1034 1034 1034 1034 1034 1034 1034 1034 
1034 1034 1034 1034 1034 1034 1034 1034 1034 
1034 1034 1034 1034 1034 1034 1034 1034 1034 
1034 1034 1034 1034 1034 1034 1034 1034 1034 
1034 1034 1034 1034 1034 1034 1034 1034 1034 
1034 1034 1034 1034 1034 1034 1034 1034 1034 
1034 1034 1034 1034 1034 1034 1034 1034 1034 
1034 1034 1034 1034 1034 1034 1034 1034 1034 
1034 1034 1034 1034 1034 1034 1034 1034 1034 
1034 1034 1034 1034 1034 1034 1034 1034 1034 
1034 1034 1034 1034 1034 1034 1034 1034 1034 
1034 1034 1034 1034 1034 1034 1034 1034 1034 
1034 1034 1034 1034 1034 1034 1034 1034 1034 
1034 1034 1034 1034 1034 1034 1034 1034 1034 
1034 1034 1034 1034 1034 1034 1034 1034 1034 
1034 1034 1034 1034 1034 1034 1034 1034 1034 
1034 1034 1034 1034 1034 1034 1034 1034 1034 
1034 1034 1034 1034 1034 1034 1034 1034 1034 
1034 1034 1034 1034 1034 1034 1034 1034 1034 
1034 1034 1034 1034 1034 1034 1034 1034 1034 
1034 1034 1034 1034 1034 1034 1034 1034 1034 
1034 1034 1034 1034 1034 1034 1034 1034 1034 
1034 1034 1034 1034 1034 1034 1034 1034 1034 
1034 1034 1034 1034 1034 1034 1034 1034 1034 
1034 1034 1034 1034 1034 1034 1034 1034 1034 
1034 1034 1034 1034 1034 1034 1034 1034 1034 
1034 1034 1034 1034 1034 1034 1034 1034 1034 
1034 1034 1034 1034 1034 1034 1034 1034 1034 
1034 1034 1034 1034 1034 1034 1034 1034 1034 
1034 1034 1034 1034 1034 1034 1034 1034 1034 
1034 1034 1034 1034 1034 1034 1034 1034 1034 
1034 1034 1034 1034 1034 1034 1034 1034 1034 
1034 1034 1034 1034 1034 1034 1034 1034 1034 
1034 1034 1034 1034 1034 1034 1034 1034 1034 
1034 1034 1034 1034 1034 1034 1034 1034 1034 
1034 1034 1034 1034 1034 1034 1034 1034 1034 
1034 1034 1034 1034 1034 1034 1034 1034 1034 
1034 1034 1034 1034 1034 1034 1034 1034 1034 
1034 1034 1034 1034 1034 1034 1034 1034 1034 
1034 1034 1034 1034 1034 1034 1034 1034 1034 
1034 1034 1034 1034 1034 1034 1034 1034 1034 
1034 1034 1034 1034 1034 1034 1034 1034 1034 
1034 1034 1034 1034 1034 1034 1034 1034 1034 
1034 1034 1034 1034 1034 1034 1034 1034 1034 
1034 1034 1034 1034 1034 1034 1034 1034 1034 
1034 1034 1034 1034 1034 1034 1034 1034 1034 
1034 1034 1034 1034 1034 1034 1034 1034 1034 
1034 1034 1034 1034 1034 1034 1034 1034 1034 
1034 1034 1034 1034 1034 1034 1034 1034 1034 
1034 1034 1034 1034 1034 1034 1034 1034 1034 
1034 1034 1034 1034 1034 1034 1034 1034 1034 
1034 1034 1034 1034 1034 1034 1034 1034 1034 
1034 1034 1034 1034 1034 1034 1034 1034 1034 
1034 1034 1034 1034 1034 1034 1034 1034 1034 
1034 1034 1034 1034 1034 1034 1034 1034 1034 
1034 1034 1034 1034 1034 1034 1034 1034 1034 
1034 1034 1034 1034 1034 1034 1034 1034 1034 
1034 1034 1034 1034 1034 1034 1034 1034 1034 
1034 1034 1034 1034 1034 1034 1034 1034 1034 
1034 1034 1034 1034 1034 1034 1034 1034 1034 
1034 1034 1034 1034 1034 1034 1034 1034 1034 
1034 1034 1034 1034 1034 1034 1034 1034 1034 
1034 1034 1034 1034 1034 1034 1034 1034 1034 
1034 1034 1034 1034 1034 1034 1034 1034 1034 
1034 1034 1034 1034 1034 1034 1034 1034 1034 
1034 1034 1034 1034 1034 1034 1034 1034 1034 
1034 1034 1034 1034 1034 1034 1034 1034 1034 
1034 1034 1034 1034 1034 1034 1034 1034 1034 
1034 1034 1034 1034 1034 1034 1034 1034 1034 
1034 1034 1034 1034 1034 1034 1034 1034 1034 
1034 1034 1034 1034 1034 1034 1034 1034 1034 
1034 1034 1034 1034 1034 1034 1034 1034 1034 
1034 1034 1034 1034 1034 1034 1034 1034 1034 
1034 1034 1034 1034 1034 1034 1034 1034 1034 
1034 1034 1034 1034 1034 1034 1034 1034 1034 
1034 1034 1034 1034 1034 1034 1034 1034 1034 
1034 1034 1034 1034 1034 1034 1034 1034 1034 
1034 1034 1034 1034 1034 1034 1034 1034 1034 
1034 1034 1034 1034 1034 1034 1034 1034 1034 
1034 1034 1034 1034 1034 1034 1034 1034 1034 
1034 1034 1034 1034 1034 1034 1034 1034 1034 
1034 1034 1034 1034 1034 1034 1034 1034 1034 
1034 1034 1034 1034 1034 1034 1034 1034 1034 
1034 1034 1034 1034 1034 1034 1034 1034 1034 
1034 1034 1034 1034 1034 1034 1034 1034 1034 
1034 1034 1034 1034 1034 1034 1034 1034 1034 
1034 1034 1034 1034 1034 1034 1034 1034 1034 
1034 1034 1034 1034 1034 1034 1034 1034 1034 
1034 1034 1034 1034 1034 1034 1034 1034 1034 
1034 1034 1034 1034 1034 1034 1034 1034 1034 
1034 1034 1034 1034 1034 1034 1034 1034 1034 
1034 1034 1034 1034 1034 1034 1034 1034 1034 
1034 1034 1034 1034 1034 1034 1034 1034 1034 
1034 1034 1034 1034 1034 1034 1034 1034 1034 
1034 1034 1034 1034 1034 1034 1034 1034 1034 
1034 1034 1034 1034 1034 1034 1034 1034 1034 
1034 1034 1034 1034 1034 1034 1034 1034 1034 
1034 1034 1034 1034 1034 1034 1034 1034 1034 
1034 1034 1034 1034 1034 1034 1034 1034 1034 
1034 1034 1034 1034 1034 1034 1034 1034 1034 
1034 1034 1034 1034 1034 1034 1034 1034 1034 
1034 1034 1034 1034 1034 1034 1034 1034 1034 
1034 1034 1034 1034 1034 1034 1034 1034 1034 
1034 1034 1034 1034 1034 1034 1034 1034 1034 
1034 1034 1034 1034 1034 1034 1034 1034 1034 
1034 1034 1034 1034 1034 1034 1034 1034 1034 
1034 1034 1034 1034 1034 1034 1034 1034 1034 
1034 1034 1034 1034 1034 1034 1034 1034 1034 
1034 1034 1034 1034 1034 1034 1034 1034 1034 
1034 1034 1034 1034 1034 1034 1034 1034 1034 
1034 1034 1034 1034 1034 1034 1034 1034 1034 
1034 1034 1034 1034 1034 1034 1034 1034 1034 
1034 1034 1034 1034 1034 1034 1034 1034 1034 
1034 1034 1034 1034 1034 1034 1034 1034 1034 
1034 1034 1034 1034 1034 1034 1034 1034 1034 
1034 1034 1034 1034 1034 1034 1034 1034 1034 
1034 1034 1034 1034 1034 1034 1034 1034 1034 
1034 1034 1034 1034 1034 1034 1034 1034 1034 
1034 1034 1034 1034 1034 1034 1034 1034 1034 
1034 1034 1034 1034 1034 1034 1034 1034 1034 
1034 1034 1034 1034 1034 1034 1034 1034 1034 
1034 1034 1034 1034 1034 1034 1034 1034 1034 
1034 1034 1034 1034 1034 1034 1034 1034 1034 
1034 1034 1034 1034 1034 1034 1034 1034 1034 
1034 1034 1034 1034 1034 1034 1034 1034 1034 
1034 1034 1034 1034 1034 1034 1034 1034 1034 
1034 1034 1034 1034 1034 1034 1034 1034 1034 
1034 1034 1034 1034 1034 1034 1034 1034 1034 
1034 1034 1034 1034 1034 1034 1034 1034 1034 
1034 1034 1034 1034 1034 1034 1034 1034 1034 
1034 1034 1034 1034 1034 1034 1034 1034 1034 
1034 1034 1034 1034 1034 1034 1034 1034 1034 
1034 1034 1034 1034 1034 1034 1034 1034 1034 
1034 1034 1034 1034 1034 1034 1034 1034 1034 
1034 1034 1034 1034 1034 1034 1034 1034 1034 
1034 1034 1034 1034 1034 1034 1034 1034 1034 
1034 1034 1034 1034 1034 1034 1034 1034 1034 
1034 1034 1034 1034 1034 1034 1034 1034 1034 
1034 1034 1034 1034 1034 1034 1034 1034 1034 
1034 1034 1034 1034 1034 1034 1034 1034 1034 
1034 1034 1034 1034 1034 1034 1034 1034 1034 
1034 1034 1034 1034 1034 1034 1034 1034 1034 
1034 1034 1034 1034 1034 1034 1034 1034 1034 
1034 1034 1034 1034 1034 1034 1034 1034 1034 
1034 1034 1034 1034 1034 1034 1034 1034 1034 
1034 1034 1034 1034 1034 1034 1034 1034 1034 
1034 1034 1034 1034 1034 1034 1034 1034 1034 
1034 1034 1034 1034 1034 1034 1034 1034 1034 
1034 1034 1034 1034 1034 1034 1034 1034 1034 
1034 1034 1034 1034 1034 1034 1034 1034 1034 
1034 1034 1034 1034 1034 1034 1034 1034 1034 
1034 1034 1034 1034 1034 1034 1034 1034 1034 
1034 1034 1034 1034 1034 1034 1034 1034 1034 
1034 1034 1034 1034 1034 1034 1034 1034 1034 
1034 1034 1034 1034 1034 1034 1034 1034 1034 
1034 1034 1034 1034 1034 1034 1034 1034 1034 
1034 1034 1034 1034 1034 1034 1034 1034 1034 
1034 1034 1034 1034 1034 1034 1034 1034 1034 
1034 1034 1034 1034 1034 1034 1034 1034 1034 
1034 1034 1034 1034 1034 1034 1034 1034 1034 
1034 1034 1034 1034 1034 1034 1034 1034 1034 
1034 1034 1034 1034 1034 1034 1034 1034 1034 
1034 1034 1034 1034 1034 1034 1034 1034 1034 
1034 1034 1034 1034 1034 1034 1034 1034 1034 
1034 1034 1034 1034 1034 1034 1034 1034 1034 
1034 1034 1034 1034 1034 1034 1034 1034 1034 
1034 1034 1034 1034 1034 1034 1034 1034 1034 
1034 1034 1034 1034 1034 1034 1034 1034 1034 
1034 1034 1034 1034 1034 1034 1034 1034 1034 
1034 1034 1034 1034 1034 1034 1034 1034 1034 
1034 1034 1034 1034 1034 1034 1034 1034 1034 
1034 1034 1034 1034 1034 1034 1034 1034 1034 
1034 1034 1034 1034 1034 1034 1034 1034 1034 
1034 1034 1034 1034 1034 1034 1034 1034 1034 
1034 1034 1034 1034 1034 1034 1034 1034 1034 
1034 1034 1034 1034 1034 1034 1034 1034 1034 
1034 1034 1034 1034 1034 1034 1034 1034 1034 
1034 1034 1034 1034 1034 1034 1034 1034 1034 
1034 1034 1034 1034 1034 1034 1034 1034 1034 
1034 1034 1034 1034 1034 1034 1034 1034 1034 
1034 1034 1034 1034 1034 1034 1034 1034 1034 
1034 1034 1034 1034 1034 1034 1034 1034 1034 
1034 1034 1034 1034 1034 1034 1034 1034 1034 
1034 1034 1034 1034 1034 1034 1034 1034 1034 
1034 1034 1034 1034 1034 1034 1034 1034 1034 
1034 1034 1034 1034 1034 1034 1034 1034 1034 
1034 1034 1034 1034 1034 1034 1034 1034 1034 
1034 1034 1034 1034 1034 1034 1034 1034 1034 
1034 1034 1034 1034 1034 1034 1034 1034 1034 
1034 1034 1034 1034 1034 1034 1034 1034 1034 
1034 1034 1034 1034 1034 1034 1034 1034 1034 
1034 1034 1034 1034 1034 1034 1034 1034 1034 
1034 1034 1034 1034 1034 1034 1034 1034 1034 
1034 1034 1034 1034 1034 1034 1034 1034 1034 
1034 1034 1034 1034 1034 1034 1034 1034 1034 
1034 1034 1034 1034 1034 1034 1034 1034 1034 
1034 1034 1034 1034 1034 1034 1034 1034 1034 
1034 1034 1034 1034 1034 1034 1034 1034 1034 
1034 1034 1034 1034 1034 1034 1034 1034 1034 
1034 1034 1034 1034 1034 1034 1034 1034 1034 
1034 1034 1034 1034 1034 1034 1034 1034 1034 
1034 1034 1034 1034 1034 1034 1034 1034 1034 
1034 1034 1034 1034 1034 1034 1034 1034 1034 
1034 1034 1034 1034 1034 1034 1034 1034 1034 
1034 1034 1034 1034 1034 1034 1034 1034 1034 
1034 1034 1034 1034 1034 1034 1034 1034 1034 
1034 1034 1034 1034 1034 1034 1034 1034 1034 
1034 1034 1034 1034 1034 1034 1034 1034 1034 
1034 1034 1034 1034 1034 1034 1034 1034 1034 
1034 1034 1034 1034 1034 1034 1034 1034 1034 
1034 1034 1034 1034 1034 1034 1034 1034 1034 
1034 1034 1034 1034 1034 1034 1034 1034 1034 
1034 1034 1034 1034 1034 1034 1034 1034 1034 
1034 1034 1034 1034 1034 1034 1034 1034 1034 
1034 1034 1034 1034 1034 1034 1034 1034 1034 
1034 1034 1034 1034 1034 1034 1034 1034 1034 
1034 1034 1034 1034 1034 1034 1034 1034 1034 
1034 1034 1034 1034 1034 1034 1034 1034 1034 
1034 1034 1034 1034 1034 1034 1034 1034 1034 
1034 1034 1034 1034 1034 1034 1034 1034 1034 
1034 1034 1034 1034 1034 1034 1034 1034 1034 
1034 1034 1034 1034 1034 1034 1034 1034 1034 
1034 1034 1034 1034 1034 1034 1034 1034 1034 
1034 1034 1034 1034 1034 1034 1034 1034 1034 
1034 1034 1034 1034 1034 1034 1034 1034 1034 
1034 1034 1034 1034 1034 1034 1034 1034 1034 
1034 1034 1034 1034 1034 1034 1034 1034 1034 
1034 1034 1034 1034 1034 1034 1034 1034 1034 
1034 1034 1034 1034 1034 1034 1034 1034 1034 
1034 1034 1034 1034 1034 1034 1034 1034 1034 
1034 1034 1034 1034 1034 1034 1034 1034 1034 
1034 1034 1034 1034 1034 1034 1034 1034 1034 
1034 1034 1034 1034 1034 1034 1034 1034 1034 
1034 1034 1034 1034 1034 1034 1034 1034 1034 
1034 1034 1034 1034 1034 1034 1034 1034 1034 
1034 1034 1034 1034 1034 1034 1034 1034 1034 
1034 1034 1034 1034 1034 1034 1034 1034 1034 
1034 1034 1034 1034 1034 1034 1034 1034 1034 
1034 1034 1034 1034 1034 1034 1034 1034 1034 
1034 1034 1034 1034 1034 1034 1034 1034 1034 
1034 1034 1034 1034 1034 1034 1034 1034 1034 
1034 1034 1034 1034 1034 1034 1034 1034 1034 
1034 1034 1034 1034 1034 1034 1034 1034 1034 
1034 1034 1034 1034 1034 1034 1034 1034 1034 
1034 1034 1034 1034 1034 1034 1034 1034 1034 
1034 1034 1034 1034 1034 1034 1034 1034 1034 
1034 1034 1034 1034 1034 1034 1034 1034 1034 
1034 1034 1034 1034 1034 1034 1034 1034 1034 
1034 1034 1034 1034 1034 1034 1034 1034 1034 
1034 1034 1034 1034 1034 1034 1034 1034 1034 
1034 1034 1034 1034 1034 1034 1034 1034 1034 
1034 1034 1034 1034 1034 1034 1034 1034 1034 
1034 1034 1034 1034 1034 1034 1034 1034 1034 
1034 1034 1034 1034 1034 1034 1034 1034 1034 
1034 1034 1034 1034 1034 1034 1034 1034 1034 
1034 1034 1034 1034 1034 1034 1034 1034 1034 
1034 1034 1034 1034 1034 1034 1034 1034 1034 
1034 1034 1034 1034 1034 1034 1034 1034 1034 
1034 1034 1034 1034 1034 1034 1034 1034 1034 
1034 1034 1034 1034 1034 1034 1034 1034 1034 
1034 1034 1034 1034 1034 1034 1034 1034 1034 
1034 1034 1034 1034 1034 1034 1034 1034 1034 
1034 1034 1034 1034 1034 1034 1034 1034 1034 
1034 1034 1034 1034 1034 1034 1034 1034 1034 
1034 1034 1034 1034 1034 1034 1034 1034 1034 
1034 1034 1034 1034 1034 1034 1034 1034 1034 
1034 1034 1034 1034 1034 1034 1034 1034 1034 
1034 1034 1034 1034 1034 1034 1034 1034 1034 
1034 1034 1034 1034 1034 1034 1034 1034 1034 
1034 1034 1034 1034 1034 1034 1034 1034 1034 
1034 1034 1034 1034 1034 1034 1034 1034 1034 
1034 1034 1034 1034 1034 1034 1034 1034 1034 
1034 1034 1034 1034 1034 1034 1034 1034 1034 
1034 1034 1034 1034 1034 1034 1034 1034 1034 
1034 1034 1034 1034 1034 1034 1034 1034 1034 
1034 1034 1034 1034 1034 1034 1034 1034 1034 
1034 1034 1034 1034 1034 1034 1034 1034 1034 
1034 1034 1034 1034 1034 1034 1034 1034 1034 
1034 1034 1034 1034 1034 1034 1034 1034 1034 
1034 1034 1034 1034 1034 1034 1034 1034 1034 
1034 1034 1034 1034 1034 1034 1034 1034 1034 
1034 
