# vtk DataFile Version 4.2
vtk output
ASCII
DATASET POLYDATA
POINTS 20416 float
10.9883 19.4896 -12.1714 10.9779 19.6457 -12.216 11.1351 19.5651 -12.279 
10.8482 19.5533 -12.2799 11.0598 19.3346 -12.3848 10.3648 18.2758 -12.1646 
10.463 18.4422 -12.2717 10.5212 18.19 -12.2552 10.1996 18.3489 -12.4441 
10.3168 18.0291 -12.3141 10.8753 21.1788 -12.7254 11.0966 21.4545 -13.0162 
11.1867 21.1904 -12.8672 10.7333 21.4507 -12.9934 10.9137 20.7233 -12.6339 
11.2481 20.7291 -12.928 10.4539 21.1229 -12.8012 10.3921 20.7947 -12.6346 
9.8069 20.6126 -12.6924 9.94813 21.0127 -12.8302 9.30855 20.6589 -12.7639 
9.36766 20.9571 -12.8454 8.91024 20.6613 -13.0269 10.9964 19.9567 -12.5018 
11.4155 20.1522 -12.9008 10.3815 20.1791 -12.6244 10.0125 20.1833 -12.8836 
9.67621 20.4305 -12.9447 9.2369 20.4301 -13.0172 11.4452 19.5973 -12.6208 
11.6823 19.8496 -12.9555 11.7686 19.5285 -13.066 10.5438 19.402 -12.5496 
10.1568 19.6688 -12.9639 9.17107 19.4776 -12.7388 9.24002 19.7559 -12.9149 
9.34256 19.401 -13.0141 9.01757 19.5504 -13.0161 11.4535 19.2069 -12.7949 
10.9528 18.9746 -12.5958 11.3061 18.8332 -12.9549 10.4574 18.7649 -12.497 
10.1381 18.9475 -12.8857 9.13379 19.1982 -12.8968 10.8289 18.3914 -12.543 
11.2183 18.3145 -12.9663 10.0516 18.3752 -12.9759 10.8962 17.7022 -12.6167 
11.2115 17.705 -12.941 10.465 17.7089 -12.5088 10.1257 17.8362 -12.8087 
10.9241 17.0906 -12.6011 11.2244 17.1088 -12.9308 10.473 17.0465 -12.6014 
10.1421 17.1959 -12.9091 11.0007 16.6392 -12.6665 11.1894 16.4926 -13.0551 
10.5837 16.5304 -12.6322 10.1632 16.5396 -12.9791 10.7911 16.1982 -12.8234 
10.3694 16.1381 -12.9159 10.3412 14.0793 -12.7491 10.4552 14.2379 -12.852 
10.5084 13.9892 -12.8381 10.1969 14.1466 -13.0272 10.3107 13.8347 -12.9073 
10.3406 21.8112 -13.2684 10.3477 22.1551 -13.6753 10.6799 21.9578 -13.5258 
9.59967 21.8846 -13.2342 9.80441 22.2003 -13.5425 9.00774 21.7973 -13.2913 
9.30547 22.1408 -13.4736 8.88804 21.8498 -13.6741 10.9649 21.6659 -13.5025 
11.258 21.2666 -13.3023 10.2681 21.3354 -13.0028 9.76801 21.4028 -13.0539 
9.08844 21.2895 -13.0909 8.61693 21.5774 -13.4493 8.59783 21.263 -13.2965 
8.42712 21.1549 -13.5256 11.3957 20.7154 -13.4454 8.60815 20.8303 -13.2154 
8.41741 20.8146 -13.4391 11.5982 20.2012 -13.214 11.6177 20.3952 -13.6767 
11.809 19.9417 -13.3605 9.97814 20.0161 -13.3962 9.62925 20.2919 -13.3094 
9.2289 20.0886 -13.1315 9.5406 19.9369 -13.4641 8.81499 20.1464 -13.4912 
8.56926 20.5226 -13.3717 11.8633 19.4811 -13.6613 10.0776 19.4258 -13.4213 
9.49977 19.5003 -13.4565 8.87266 19.4583 -13.4396 11.637 19.153 -13.2987 
11.449 18.7071 -13.4086 10.0668 18.897 -13.5217 9.21144 18.9221 -13.1812 
9.38159 19.0013 -13.5796 8.99191 19.0265 -13.4077 11.387 18.1599 -13.4142 
10.0632 18.2719 -13.5047 9.15541 18.702 -13.6117 11.3694 17.5369 -13.4972 
10.0565 17.6525 -13.4688 11.3092 17.0141 -13.388 10.0463 17.0418 -13.4703 
11.3062 16.6088 -13.576 10.046 16.5443 -13.5566 10.899 15.8372 -13.1051 
11.2306 15.9773 -13.485 10.4419 15.7734 -13.1334 10.1204 16.0194 -13.4279 
10.9215 15.3051 -13.2315 11.2256 15.3204 -13.5608 10.465 15.2632 -13.2227 
10.1406 15.4213 -13.5425 10.9913 14.8136 -13.2481 11.2073 14.7322 -13.551 
10.5248 14.6508 -13.0956 10.1268 14.7383 -13.4566 10.8399 14.1758 -13.1131 
11.1979 14.1038 -13.5381 10.0444 14.1578 -13.5412 11.0863 13.4878 -13.2017 
11.3378 13.5179 -13.5153 10.5751 13.4677 -13.1422 10.147 13.5841 -13.4669 
12.0932 12.9426 -13.3301 12.1299 13.0692 -13.6349 12.358 12.9123 -13.4983 
11.581 12.9956 -13.2625 11.6928 13.1765 -13.5133 11.0354 12.958 -13.2573 
10.5946 12.8218 -13.5593 10.3179 13.0979 -13.5267 12.1372 12.6366 -13.5122 
11.422 12.5842 -13.4402 10.9518 12.5704 -13.5463 19.1863 11.6393 -13.2729 
19.4708 11.9377 -13.5092 19.677 11.5219 -13.4614 18.6049 11.6276 -13.2364 
18.9655 12.045 -13.4593 18.1458 11.5651 -13.3069 18.3747 11.9987 -13.4578 
17.9508 11.7554 -13.5002 19.3384 11.1076 -13.2295 19.7268 10.9407 -13.4556 
18.7867 11.1021 -13.1464 18.2319 11.0989 -13.228 17.8406 11.2424 -13.4546 
19.4216 10.6469 -13.3094 19.6179 10.4468 -13.5111 18.9728 10.5831 -13.2345 
18.3968 10.571 -13.2725 17.9103 10.6746 -13.4623 19.2119 10.2296 -13.4683 
18.627 10.174 -13.4616 18.1242 10.2697 -13.5172 17.4689 1.528 -13.2908 
17.6066 1.79859 -13.5064 17.7855 1.50639 -13.6287 17.1197 1.43126 -13.2933 
17.1904 1.75933 -13.3981 16.8034 1.5564 -13.6196 17.429 1.17193 -13.4771 
16.9509 1.16765 -13.5093 17.5811 -0.272461 -13.3682 17.6645 -0.134207 -13.4487 
17.7674 -0.275739 -13.4067 17.3712 -0.259726 -13.6474 17.6704 -0.511157 -13.6023 
10.3247 22.1937 -14.2326 10.7394 21.9763 -13.9281 9.89253 22.2888 -13.9703 
9.33299 22.1778 -13.9574 8.99232 21.7758 -14.2023 11.0245 21.6574 -14.2334 
11.2407 21.2784 -13.9176 8.58073 21.3655 -13.6807 8.77364 21.3113 -14.0121 
11.3932 20.8222 -14.1053 8.56505 20.7892 -13.6985 8.7332 20.7612 -14.1578 
11.6064 20.4399 -14.2673 11.8394 20.0422 -13.9381 9.85413 20.0764 -13.7743 
8.51509 20.4128 -14.1545 8.61155 20.0093 -13.9295 8.328 20.1594 -14.1627 
11.9312 19.6164 -14.2036 10.0364 19.5878 -13.9925 9.82588 19.8411 -14.1939 
9.58916 19.539 -14.0573 8.81332 19.4628 -13.9411 8.47249 19.8516 -14.1144 
11.6755 18.9615 -13.7041 11.8603 18.9872 -14.1335 10.0991 18.9193 -14.1572 
9.38616 19.0364 -14.2341 9.05881 18.8517 -14.0372 11.6082 18.4716 -13.7952 
11.8275 18.301 -14.2024 10.1006 18.2883 -14.1403 9.23538 18.7082 -13.9816 
11.588 17.8986 -13.8443 11.8032 17.6594 -14.3105 10.0842 17.6761 -14.1086 
11.5466 17.4378 -13.9998 11.4059 16.9961 -13.9407 10.0717 17.0702 -14.094 
11.3852 16.3595 -14.0153 10.0654 16.4731 -14.0874 11.3688 15.7351 -14.1129 
10.0607 15.8754 -14.0883 11.307 15.2158 -14.0028 10.0541 15.2706 -14.0825 
11.2789 14.7198 -14.093 10.0462 14.6594 -14.066 11.2522 14.1137 -14.0865 
10.0484 14.0547 -14.0659 13.2413 13.5325 -13.9431 13.4394 13.6839 -14.091 
13.6039 13.37 -14.1726 12.9007 13.4876 -13.9529 12.83 13.7932 -14.1645 
12.5157 13.5466 -14.1508 11.3441 13.5746 -14.062 10.0575 13.5537 -14.1535 
19.2988 12.7784 -13.8875 19.4824 13.1099 -14.1168 19.779 12.8128 -14.0381 
18.6015 12.8508 -13.8687 18.9737 13.2283 -14.0868 18.0216 12.7456 -13.8983 
18.3774 13.2042 -14.0823 17.9036 13.003 -14.1007 13.2358 13.3447 -14.061 
12.8144 13.2866 -14.1863 12.4695 12.9051 -13.9118 12.0343 13.1805 -14.1017 
11.6511 13.2639 -14.0616 10.338 12.8451 -13.7664 10.1553 13.0619 -14.0254 
19.8569 12.4281 -13.9008 20.0714 12.6641 -14.1668 20.1875 12.2828 -14.1648 
19.4158 12.2722 -13.6927 18.788 12.4224 -13.6824 18.1115 12.278 -13.6966 
17.6349 12.6324 -14.024 17.6272 12.2333 -13.8863 17.3879 12.3931 -14.2206 
12.6827 12.2453 -13.8139 12.7863 12.6275 -14.0761 13.0709 12.3093 -14.102 
12.1086 12.1484 -13.6975 11.5775 12.1815 -13.6646 11.0363 12.1866 -13.7544 
10.6861 12.3393 -13.9395 10.3812 12.6258 -14.1632 19.9134 11.8962 -13.7769 
20.3092 11.6593 -14.1499 17.6181 11.6223 -13.7592 17.3484 11.8416 -14.1726 
13.3223 11.6987 -13.8546 13.4797 11.9254 -14.1187 13.7447 11.5551 -13.997 
12.925 11.5481 -13.8312 12.3422 11.7479 -13.8528 11.716 11.7392 -13.8407 
11.1562 11.7308 -13.9047 10.8035 11.857 -14.1166 20.0798 11.1715 -13.7617 
20.4032 11.0564 -14.029 17.553 10.9285 -13.7597 17.2569 11.2476 -14.171 
13.8263 11.2063 -13.8964 13.9924 11.3436 -14.0302 14.1379 11.1495 -14.0968 
13.4374 11.1348 -13.8638 13.1047 11.1405 -14.0426 12.6653 11.3658 -14.2032 
12.0165 11.4512 -14.1594 11.4507 11.4453 -14.0927 11.0952 11.5072 -14.2495 
20.4104 10.5261 -13.8745 20.5933 10.7782 -14.0665 20.8398 10.3786 -14.1107 
19.9499 10.4919 -13.6863 17.6647 10.3126 -13.7747 17.2562 10.6268 -14.0697 
13.9246 10.7994 -14.2034 13.412 10.8901 -14.1795 20.6149 10.0231 -13.9349 
20.8859 9.80887 -14.1809 20.1776 9.99058 -13.8632 19.5065 9.92532 -13.7819 
18.7814 9.81003 -13.6883 18.1023 9.85579 -13.7073 17.58 9.79521 -13.8808 
17.266 10.0417 -14.0724 20.4892 9.73868 -14.0807 19.946 9.60517 -14.1482 
19.3446 9.50943 -14.0629 19.0189 9.22321 -14.1398 18.8091 9.37279 -13.8973 
18.1792 9.28961 -13.7776 17.6495 9.29463 -13.8574 17.2716 9.44544 -14.0742 
25.4193 8.71881 -14.0042 25.4877 8.86306 -14.094 25.5716 8.71516 -14.0539 
25.263 8.79342 -14.1247 22.8628 8.57169 -13.8604 23.0232 8.94745 -14.111 
23.3123 8.62249 -14.0255 22.3686 8.59572 -13.9205 22.5526 8.99235 -14.0745 
22.1455 8.79203 -14.1089 18.6577 8.96004 -14.0469 18.4982 8.48939 -14.0557 
18.1909 8.71284 -13.8466 17.6603 8.69475 -13.8503 17.2713 8.84886 -14.0631 
26.0388 8.11286 -13.9861 26.074 8.34868 -14.1394 26.1602 8.14097 -14.2334 
25.3892 8.57494 -14.1405 25.8232 8.0578 -14.1724 23.4611 8.07151 -13.847 
23.6814 8.36336 -14.116 23.9309 7.99827 -14.0408 22.9763 8.11851 -13.7531 
22.5632 8.0903 -13.8669 22.0888 8.32183 -14.0744 18.1611 8.13706 -13.8587 
18.4656 7.90943 -14.0482 17.7634 8.0521 -13.8714 17.3114 8.27942 -14.0714 
26.0203 7.983 -14.0874 24.0382 7.57538 -13.8891 24.2829 7.71172 -14.1241 
24.4464 7.25632 -14.068 23.7116 7.38346 -13.8393 23.1038 7.64095 -13.8614 
22.6356 7.60104 -14.0313 22.2616 7.84937 -14.1091 18.14 7.64672 -13.9159 
18.4304 7.52006 -14.0603 17.8387 7.55441 -14.0301 17.4849 7.81602 -14.1118 
24.1638 7.06003 -13.9133 24.4421 6.90624 -14.0647 23.8615 6.95017 -14.0004 
23.3999 7.12653 -14.05 22.9192 7.29316 -14.1159 18.2698 7.30742 -14.2004 
16.7901 6.8965 -13.9285 17.0379 7.15538 -14.1232 17.16 6.94936 -14.0846 
16.3672 6.78517 -13.9188 16.5892 7.20636 -14.0717 16.1812 6.97112 -14.1081 
24.2684 6.70999 -14.1915 17.047 6.63809 -14.1212 16.8458 6.25372 -13.9991 
16.4107 6.24359 -13.8517 15.9748 6.28694 -14.1916 16.765 5.78643 -13.867 
17.0293 6.08135 -14.1657 17.1344 5.67331 -14.2716 16.3582 5.69162 -13.7249 
15.8395 5.92027 -14.0056 15.9553 5.60065 -13.8817 15.6734 5.67233 -14.0578 
16.8864 5.34305 -13.9814 16.7484 4.86041 -14.0101 16.3975 5.15576 -13.8363 
16.0068 5.17992 -14.1422 15.7751 5.51331 -14.1632 16.4212 4.58439 -13.9158 
16.6399 4.37286 -14.1595 16.1783 4.66592 -14.1166 16.3263 4.35024 -14.1782 
16.9927 2.49163 -13.9024 17.0838 2.84712 -14.1035 17.3228 2.61757 -14.0181 
[...]
CELL_DATA 40948
SCALARS scalars float
LOOKUP_TABLE default
2029 2029 2029 2029 2029 2029 2029 2029 2029 
2029 2029 2029 2029 2029 2029 2029 2029 2029 
2029 2029 2029 2029 2029 2029 2029 2029 2029 
2029 2029 2029 2029 2029 2029 2029 2029 2029 
2029 2029 2029 2029 2029 2029 2029 2029 2029 
2029 2029 2029 2029 2029 2029 2029 2029 2029 
2029 2029 2029 2029 2029 2029 2029 2029 2029 
2029 2029 2029 2029 2029 2029 2029 2029 2029 
2029 2029 2029 2029 2029 2029 2029 2029 2029 
2029 2029 2029 2029 2029 2029 2029 2029 2029 
2029 2029 2029 2029 2029 2029 2029 2029 2029 
2029 2029 2029 2029 2029 2029 2029 2029 2029 
2029 2029 2029 2029 2029 2029 2029 2029 2029 
2029 2029 2029 2029 2029 2029 2029 2029 2029 
2029 2029 2029 2029 2029 2029 2029 2029 2029 
2029 2029 2029 2029 2029 2029 2029 2029 2029 
2029 2029 2029 2029 2029 2029 2029 2029 2029 
2029 2029 2029 2029 2029 2029 2029 2029 2029 
2029 2029 2029 2029 2029 2029 2029 2029 2029 
2029 2029 2029 2029 2029 2029 2029 2029 2029 
2029 2029 2029 2029 2029 2029 2029 2029 2029 
2029 2029 2029 2029 2029 2029 2029 2029 2029 
2029 2029 2029 2029 2029 2029 2029 2029 2029 
2029 2029 2029 2029 2029 2029 2029 2029 2029 
2029 2029 2029 2029 2029 2029 2029 2029 2029 
2029 2029 2029 2029 2029 2029 2029 2029 2029 
2029 2029 2029 2029 2029 2029 2029 2029 2029 
2029 2029 2029 2029 2029 2029 2029 2029 2029 
2029 2029 2029 2029 2029 2029 2029 2029 2029 
2029 2029 2029 2029 2029 2029 2029 2029 2029 
2029 2029 2029 2029 2029 2029 2029 2029 2029 
2029 2029 2029 2029 2029 2029 2029 2029 2029 
2029 2029 2029 2029 2029 2029 2029 2029 2029 
2029 2029 2029 2029 2029 2029 2029 2029 2029 
2029 2029 2029 2029 2029 2029 2029 2029 2029 
2029 2029 2029 2029 2029 2029 2029 2029 2029 
2029 2029 2029 2029 2029 2029 2029 2029 2029 
2029 2029 2029 2029 2029 2029 2029 2029 2029 
2029 2029 2029 2029 2029 2029 2029 2029 2029 
2029 2029 2029 2029 2029 2029 2029 2029 2029 
2029 2029 2029 2029 2029 2029 2029 2029 2029 
2029 2029 2029 2029 2029 2029 2029 2029 2029 
2029 2029 2029 2029 2029 2029 2029 2029 2029 
2029 2029 2029 2029 2029 2029 2029 2029 2029 
2029 2029 2029 2029 2029 2029 2029 2029 2029 
2029 2029 2029 2029 2029 2029 2029 2029 2029 
2029 2029 2029 2029 2029 2029 2029 2029 2029 
2029 2029 2029 2029 2029 2029 2029 2029 2029 
2029 2029 2029 2029 2029 2029 2029 2029 2029 
2029 2029 2029 2029 2029 2029 2029 2029 2029 
2029 2029 2029 2029 2029 2029 2029 2029 2029 
2029 2029 2029 2029 2029 2029 2029 2029 2029 
2029 2029 2029 2029 2029 2029 2029 2029 2029 
2029 2029 2029 2029 2029 2029 2029 2029 2029 
2029 2029 2029 2029 2029 2029 2029 2029 2029 
2029 2029 2029 2029 2029 2029 2029 2029 2029 
2029 2029 2029 2029 2029 2029 2029 2029 2029 
2029 2029 2029 2029 2029 2029 2029 2029 2029 
2029 2029 2029 2029 2029 2029 2029 2029 2029 
2029 2029 2029 2029 2029 2029 2029 2029 2029 
2029 2029 2029 2029 2029 2029 2029 2029 2029 
2029 2029 2029 2029 2029 2029 2029 2029 2029 
2029 2029 2029 2029 2029 2029 2029 2029 2029 
2029 2029 2029 2029 2029 2029 2029 2029 2029 
2029 2029 2029 2029 2029 2029 2029 2029 2029 
2029 2029 2029 2029 2029 2029 2029 2029 2029 
2029 2029 2029 2029 2029 2029 2029 2029 2029 
2029 2029 2029 2029 2029 2029 2029 2029 2029 
2029 2029 2029 2029 2029 2029 2029 2029 2029 
2029 2029 2029 2029 2029 2029 2029 2029 2029 
2029 2029 2029 2029 2029 2029 2029 2029 2029 
2029 2029 2029 2029 2029 2029 2029 2029 2029 
2029 2029 2029 2029 2029 2029 2029 2029 2029 
2029 2029 2029 2029 2029 2029 2029 2029 2029 
2029 2029 2029 2029 2029 2029 2029 2029 2029 
2029 2029 2029 2029 2029 2029 2029 2029 2029 
2029 2029 2029 2029 2029 2029 2029 2029 2029 
2029 2029 2029 2029 2029 2029 2029 2029 2029 
2029 2029 2029 2029 2029 2029 2029 2029 2029 
2029 2029 2029 2029 2029 2029 2029 2029 2029 
2029 2029 2029 2029 2029 2029 2029 2029 2029 
2029 2029 2029 2029 2029 2029 2029 2029 2029 
2029 2029 2029 2029 2029 2029 2029 2029 2029 
2029 2029 2029 2029 2029 2029 2029 2029 2029 
2029 2029 2029 2029 2029 2029 2029 2029 2029 
2029 2029 2029 2029 2029 2029 2029 2029 2029 
2029 2029 2029 2029 2029 2029 2029 2029 2029 
2029 2029 2029 2029 2029 2029 2029 2029 2029 
2029 2029 2029 2029 2029 2029 2029 2029 2029 
2029 2029 2029 2029 2029 2029 2029 2029 2029 
2029 2029 2029 2029 2029 2029 2029 2029 2029 
2029 2029 2029 2029 2029 2029 2029 2029 2029 
2029 2029 2029 2029 2029 2029 2029 2029 2029 
2029 2029 2029 2029 2029 2029 2029 2029 2029 
2029 2029 2029 2029 2029 2029 2029 2029 2029 
2029 2029 2029 2029 2029 2029 2029 2029 2029 
2029 2029 2029 2029 2029 2029 2029 2029 2029 
2029 2029 2029 2029 2029 2029 2029 2029 2029 
2029 2029 2029 2029 2029 2029 2029 2029 2029 
2029 2029 2029 2029 2029 2029 2029 2029 2029 
2029 2029 2029 2029 2029 2029 2029 2029 2029 
2029 2029 2029 2029 2029 2029 2029 2029 2029 
2029 2029 2029 2029 2029 2029 2029 2029 2029 
2029 2029 2029 2029 2029 2029 2029 2029 2029 
2029 2029 2029 2029 2029 2029 2029 2029 2029 
2029 2029 2029 2029 2029 2029 2029 2029 2029 
2029 2029 2029 2029 2029 2029 2029 2029 2029 
2029 2029 2029 2029 2029 2029 2029 2029 2029 
2029 2029 2029 2029 2029 2029 2029 2029 2029 
2029 2029 2029 2029 2029 2029 2029 2029 2029 
2029 2029 2029 2029 2029 2029 2029 2029 2029 
2029 2029 2029 2029 2029 2029 2029 2029 2029 
2029 2029 2029 2029 2029 2029 2029 2029 2029 
2029 2029 2029 2029 2029 2029 2029 2029 2029 
2029 2029 2029 2029 2029 2029 2029 2029 2029 
2029 2029 2029 2029 2029 2029 2029 2029 2029 
2029 2029 2029 2029 2029 2029 2029 2029 2029 
2029 2029 2029 2029 2029 2029 2029 2029 2029 
2029 2029 2029 2029 2029 2029 2029 2029 2029 
2029 2029 2029 2029 2029 2029 2029 2029 2029 
2029 2029 2029 2029 2029 2029 2029 2029 2029 
2029 2029 2029 2029 2029 2029 2029 2029 2029 
2029 2029 2029 2029 2029 2029 2029 2029 2029 
2029 2029 2029 2029 2029 2029 2029 2029 2029 
2029 2029 2029 2029 2029 2029 2029 2029 2029 
2029 2029 2029 2029 2029 2029 2029 2029 2029 
2029 2029 2029 2029 2029 2029 2029 2029 2029 
2029 2029 2029 2029 2029 2029 2029 2029 2029 
2029 2029 2029 2029 2029 2029 2029 2029 2029 
2029 2029 2029 2029 2029 2029 2029 2029 2029 
2029 2029 2029 2029 2029 2029 2029 2029 2029 
2029 2029 2029 2029 2029 2029 2029 2029 2029 
2029 2029 2029 2029 2029 2029 2029 2029 2029 
2029 2029 2029 2029 2029 2029 2029 2029 2029 
2029 2029 2029 2029 2029 2029 2029 2029 2029 
2029 2029 2029 2029 2029 2029 2029 2029 2029 
2029 2029 2029 2029 2029 2029 2029 2029 2029 
2029 2029 2029 2029 2029 2029 2029 2029 2029 
2029 2029 2029 2029 2029 2029 2029 2029 2029 
2029 2029 2029 2029 2029 2029 2029 2029 2029 
2029 2029 2029 2029 2029 2029 2029 2029 2029 
2029 2029 2029 2029 2029 2029 2029 2029 2029 
2029 2029 2029 2029 2029 2029 2029 2029 2029 
2029 2029 2029 2029 2029 2029 2029 2029 2029 
2029 2029 2029 2029 2029 2029 2029 2029 2029 
2029 2029 2029 2029 2029 2029 2029 2029 2029 
2029 2029 2029 2029 2029 2029 2029 2029 2029 
2029 2029 2029 2029 2029 2029 2029 2029 2029 
2029 2029 2029 2029 2029 2029 2029 2029 2029 
2029 2029 2029 2029 2029 2029 2029 2029 2029 
2029 2029 2029 2029 2029 2029 2029 2029 2029 
2029 2029 2029 2029 2029 2029 2029 2029 2029 
2029 2029 2029 2029 2029 2029 2029 2029 2029 
2029 2029 2029 2029 2029 2029 2029 2029 2029 
2029 2029 2029 2029 2029 2029 2029 2029 2029 
2029 2029 2029 2029 2029 2029 2029 2029 2029 
2029 2029 2029 2029 2029 2029 2029 2029 2029 
2029 2029 2029 2029 2029 2029 2029 2029 2029 
2029 2029 2029 2029 2029 2029 2029 2029 2029 
2029 2029 2029 2029 2029 2029 2029 2029 2029 
2029 2029 2029 2029 2029 2029 2029 2029 2029 
2029 2029 2029 2029 2029 2029 2029 2029 2029 
2029 2029 2029 2029 2029 2029 2029 2029 2029 
2029 2029 2029 2029 2029 2029 2029 2029 2029 
2029 2029 2029 2029 2029 2029 2029 2029 2029 
2029 2029 2029 2029 2029 2029 2029 2029 2029 
2029 2029 2029 2029 2029 2029 2029 2029 2029 
2029 2029 2029 2029 2029 2029 2029 2029 2029 
2029 2029 2029 2029 2029 2029 2029 2029 2029 
2029 2029 2029 2029 2029 2029 2029 2029 2029 
2029 2029 2029 2029 2029 2029 2029 2029 2029 
2029 2029 2029 2029 2029 2029 2029 2029 2029 
2029 2029 2029 2029 2029 2029 2029 2029 2029 
2029 2029 2029 2029 2029 2029 2029 2029 2029 
2029 2029 2029 2029 2029 2029 2029 2029 2029 
2029 2029 2029 2029 2029 2029 2029 2029 2029 
2029 2029 2029 2029 2029 2029 2029 2029 2029 
2029 2029 2029 2029 2029 2029 2029 2029 2029 
2029 2029 2029 2029 2029 2029 2029 2029 2029 
2029 2029 2029 2029 2029 2029 2029 2029 2029 
2029 2029 2029 2029 2029 2029 2029 2029 2029 
2029 2029 2029 2029 2029 2029 2029 2029 2029 
2029 2029 2029 2029 2029 2029 2029 2029 2029 
2029 2029 2029 2029 2029 2029 2029 2029 2029 
2029 2029 2029 2029 2029 2029 2029 2029 2029 
2029 2029 2029 2029 2029 2029 2029 2029 2029 
2029 2029 2029 2029 2029 2029 2029 2029 2029 
2029 2029 2029 2029 2029 2029 2029 2029 2029 
2029 2029 2029 2029 2029 2029 2029 2029 2029 
2029 2029 2029 2029 2029 2029 2029 2029 2029 
2029 2029 2029 2029 2029 2029 2029 2029 2029 
2029 2029 2029 2029 2029 2029 2029 2029 2029 
2029 2029 2029 2029 2029 2029 2029 2029 2029 
2029 2029 2029 2029 2029 2029 2029 2029 2029 
2029 2029 2029 2029 2029 2029 2029 2029 2029 
2029 2029 2029 2029 2029 2029 2029 2029 2029 
2029 2029 2029 2029 2029 2029 2029 2029 2029 
2029 2029 2029 2029 2029 2029 2029 2029 2029 
2029 2029 2029 2029 2029 2029 2029 2029 2029 
2029 2029 2029 2029 2029 2029 2029 2029 2029 
2029 2029 2029 2029 2029 2029 2029 2029 2029 
2029 2029 2029 2029 2029 2029 2029 2029 2029 
2029 2029 2029 2029 2029 2029 2029 2029 2029 
2029 2029 2029 2029 2029 2029 2029 2029 2029 
2029 2029 2029 2029 2029 2029 2029 2029 2029 
2029 2029 2029 2029 2029 2029 2029 2029 2029 
2029 2029 2029 2029 2029 2029 2029 2029 2029 
2029 2029 2029 2029 2029 2029 2029 2029 2029 
2029 2029 2029 2029 2029 2029 2029 2029 2029 
2029 2029 2029 2029 2029 2029 2029 2029 2029 
2029 2029 2029 2029 2029 2029 2029 2029 2029 
2029 2029 2029 2029 2029 2029 2029 2029 2029 
2029 2029 2029 2029 2029 2029 2029 2029 2029 
2029 2029 2029 2029 2029 2029 2029 2029 2029 
2029 2029 2029 2029 2029 2029 2029 2029 2029 
2029 2029 2029 2029 2029 2029 2029 2029 2029 
2029 2029 2029 2029 2029 2029 2029 2029 2029 
2029 2029 2029 2029 2029 2029 2029 2029 2029 
2029 2029 2029 2029 2029 2029 2029 2029 2029 
2029 2029 2029 2029 2029 2029 2029 2029 2029 
2029 2029 2029 2029 2029 2029 2029 2029 2029 
2029 2029 2029 2029 2029 2029 2029 2029 2029 
2029 2029 2029 2029 2029 2029 2029 2029 2029 
2029 2029 2029 2029 2029 2029 2029 2029 2029 
2029 2029 2029 2029 2029 2029 2029 2029 2029 
2029 2029 2029 2029 2029 2029 2029 2029 2029 
2029 2029 2029 2029 2029 2029 2029 2029 2029 
2029 2029 2029 2029 2029 2029 2029 2029 2029 
2029 2029 2029 2029 2029 2029 2029 2029 2029 
2029 2029 2029 2029 2029 2029 2029 2029 2029 
2029 2029 2029 2029 2029 2029 2029 2029 2029 
2029 2029 2029 2029 2029 2029 2029 2029 2029 
2029 2029 2029 2029 2029 2029 2029 2029 2029 
2029 2029 2029 2029 2029 2029 2029 2029 2029 
2029 2029 2029 2029 2029 2029 2029 2029 2029 
2029 2029 2029 2029 2029 2029 2029 2029 2029 
2029 2029 2029 2029 2029 2029 2029 2029 2029 
2029 2029 2029 2029 2029 2029 2029 2029 2029 
2029 2029 2029 2029 2029 2029 2029 2029 2029 
2029 2029 2029 2029 2029 2029 2029 2029 2029 
2029 2029 2029 2029 2029 2029 2029 2029 2029 
2029 2029 2029 2029 2029 2029 2029 2029 2029 
2029 2029 2029 2029 2029 2029 2029 2029 2029 
2029 2029 2029 2029 2029 2029 2029 2029 2029 
2029 2029 2029 2029 2029 2029 2029 2029 2029 
2029 2029 2029 2029 2029 2029 2029 2029 2029 
2029 2029 2029 2029 2029 2029 2029 2029 2029 
2029 2029 2029 2029 2029 2029 2029 2029 2029 
2029 2029 2029 2029 2029 2029 2029 2029 2029 
2029 2029 2029 2029 2029 2029 2029 2029 2029 
2029 2029 2029 2029 2029 2029 2029 2029 2029 
2029 2029 2029 2029 2029 2029 2029 2029 2029 
2029 2029 2029 2029 2029 2029 2029 2029 2029 
2029 2029 2029 2029 2029 2029 2029 2029 2029 
2029 2029 2029 2029 2029 2029 2029 2029 2029 
2029 2029 2029 2029 2029 2029 2029 2029 2029 
2029 2029 2029 2029 2029 2029 2029 2029 2029 
2029 2029 2029 2029 2029 2029 2029 2029 2029 
2029 2029 2029 2029 2029 2029 2029 2029 2029 
2029 2029 2029 2029 2029 2029 2029 2029 2029 
2029 2029 2029 2029 2029 2029 2029 2029 2029 
2029 2029 2029 2029 2029 2029 2029 2029 2029 
2029 2029 2029 2029 2029 2029 2029 2029 2029 
2029 2029 2029 2029 2029 2029 2029 2029 2029 
2029 2029 2029 2029 2029 2029 2029 2029 2029 
2029 2029 2029 2029 2029 2029 2029 2029 2029 
2029 2029 2029 2029 2029 2029 2029 2029 2029 
2029 2029 2029 2029 2029 2029 2029 2029 2029 
2029 2029 2029 2029 2029 2029 2029 2029 2029 
2029 2029 2029 2029 2029 2029 2029 2029 2029 
2029 2029 2029 2029 2029 2029 2029 2029 2029 
2029 2029 2029 2029 2029 2029 2029 2029 2029 
2029 2029 2029 2029 2029 2029 2029 2029 2029 
2029 2029 2029 2029 2029 2029 2029 2029 2029 
2029 2029 2029 2029 2029 2029 2029 2029 2029 
2029 2029 2029 2029 2029 2029 2029 2029 2029 
2029 2029 2029 2029 2029 2029 2029 2029 2029 
2029 2029 2029 2029 2029 2029 2029 2029 2029 
2029 2029 2029 2029 2029 2029 2029 2029 2029 
2029 2029 2029 2029 2029 2029 2029 2029 2029 
2029 2029 2029 2029 2029 2029 2029 2029 2029 
2029 2029 2029 2029 2029 2029 2029 2029 2029 
2029 2029 2029 2029 2029 2029 2029 2029 2029 
2029 2029 2029 2029 2029 2029 2029 2029 2029 
2029 2029 2029 2029 2029 2029 2029 2029 2029 
2029 2029 2029 2029 2029 2029 2029 2029 2029 
2029 2029 2029 2029 2029 2029 2029 2029 2029 
2029 2029 2029 2029 2029 2029 2029 2029 2029 
2029 2029 2029 2029 2029 2029 2029 2029 2029 
2029 2029 2029 2029 2029 2029 2029 2029 2029 
2029 2029 2029 2029 2029 2029 2029 2029 2029 
2029 2029 2029 2029 2029 2029 2029 2029 2029 
2029 2029 2029 2029 2029 2029 2029 2029 2029 
2029 2029 2029 2029 2029 2029 2029 2029 2029 
2029 2029 2029 2029 2029 2029 2029 2029 2029 
2029 2029 2029 2029 2029 2029 2029 2029 2029 
2029 2029 2029 2029 2029 2029 2029 2029 2029 
2029 2029 2029 2029 2029 2029 2029 2029 2029 
2029 2029 2029 2029 2029 2029 2029 2029 2029 
2029 2029 2029 2029 2029 2029 2029 2029 2029 
2029 2029 2029 2029 2029 2029 2029 2029 2029 
2029 2029 2029 2029 2029 2029 2029 2029 2029 
2029 2029 2029 2029 2029 2029 2029 2029 2029 
2029 2029 2029 2029 2029 2029 2029 2029 2029 
2029 2029 2029 2029 2029 2029 2029 2029 2029 
2029 2029 2029 2029 2029 2029 2029 2029 2029 
2029 2029 2029 2029 2029 2029 2029 2029 2029 
2029 2029 2029 2029 2029 2029 2029 2029 2029 
2029 2029 2029 2029 2029 2029 2029 2029 2029 
2029 2029 2029 2029 2029 2029 2029 2029 2029 
2029 2029 2029 2029 2029 2029 2029 2029 2029 
2029 2029 2029 2029 2029 2029 2029 2029 2029 
2029 2029 2029 2029 2029 2029 2029 2029 2029 
2029 2029 2029 2029 2029 2029 2029 2029 2029 
2029 2029 2029 2029 2029 2029 2029 2029 2029 
2029 2029 2029 2029 2029 2029 2029 2029 2029 
2029 2029 2029 2029 2029 2029 2029 2029 2029 
2029 2029 2029 2029 2029 2029 2029 2029 2029 
2029 2029 2029 2029 2029 2029 2029 2029 2029 
2029 2029 2029 2029 2029 2029 2029 2029 2029 
2029 2029 2029 2029 2029 2029 2029 2029 2029 
2029 2029 2029 2029 2029 2029 2029 2029 2029 
2029 2029 2029 2029 2029 2029 2029 2029 2029 
2029 2029 2029 2029 2029 2029 2029 2029 2029 
2029 2029 2029 2029 2029 2029 2029 2029 2029 
2029 2029 2029 2029 2029 2029 2029 2029 2029 
2029 2029 2029 2029 2029 2029 2029 2029 2029 
2029 2029 2029 2029 2029 2029 2029 2029 2029 
2029 2029 2029 2029 2029 2029 2029 2029 2029 
2029 2029 2029 2029 2029 2029 2029 2029 2029 
2029 2029 2029 2029 2029 2029 2029 2029 2029 
2029 2029 2029 2029 2029 2029 2029 2029 2029 
2029 2029 2029 2029 2029 2029 2029 2029 2029 
2029 2029 2029 2029 2029 2029 2029 2029 2029 
2029 2029 2029 2029 2029 2029 2029 2029 2029 
2029 2029 2029 2029 2029 2029 2029 2029 2029 
2029 2029 2029 2029 2029 2029 2029 2029 2029 
2029 2029 2029 2029 2029 2029 2029 2029 2029 
2029 2029 2029 2029 2029 2029 2029 2029 2029 
2029 2029 2029 2029 2029 2029 2029 2029 2029 
2029 2029 2029 2029 2029 2029 2029 2029 2029 
2029 2029 2029 2029 2029 2029 2029 2029 2029 
2029 2029 2029 2029 2029 2029 2029 2029 2029 
2029 2029 2029 2029 2029 2029 2029 2029 2029 
2029 2029 2029 2029 2029 2029 2029 2029 2029 
2029 2029 2029 2029 2029 2029 2029 2029 2029 
2029 2029 2029 2029 2029 2029 2029 2029 2029 
2029 2029 2029 2029 2029 2029 2029 2029 2029 
2029 2029 2029 2029 2029 2029 2029 2029 2029 
2029 2029 2029 2029 2029 2029 2029 2029 2029 
2029 2029 2029 2029 2029 2029 2029 2029 2029 
2029 2029 2029 2029 2029 2029 2029 2029 2029 
2029 2029 2029 2029 2029 2029 2029 2029 2029 
2029 2029 2029 2029 2029 2029 2029 2029 2029 
2029 2029 2029 2029 2029 2029 2029 2029 2029 
2029 2029 2029 2029 2029 2029 2029 2029 2029 
2029 2029 2029 2029 2029 2029 2029 2029 2029 
2029 2029 2029 2029 2029 2029 2029 2029 2029 
2029 2029 2029 2029 2029 2029 2029 2029 2029 
2029 2029 2029 2029 2029 2029 2029 2029 2029 
2029 2029 2029 2029 2029 2029 2029 2029 2029 
2029 2029 2029 2029 2029 2029 2029 2029 2029 
2029 2029 2029 2029 2029 2029 2029 2029 2029 
2029 2029 2029 2029 2029 2029 2029 2029 2029 
2029 2029 2029 2029 2029 2029 2029 2029 2029 
2029 2029 2029 2029 2029 2029 2029 2029 2029 
2029 2029 2029 2029 2029 2029 2029 2029 2029 
2029 2029 2029 2029 2029 2029 2029 2029 2029 
2029 2029 2029 2029 2029 2029 2029 2029 2029 
2029 2029 2029 2029 2029 2029 2029 2029 2029 
2029 2029 2029 2029 2029 2029 2029 2029 2029 
2029 2029 2029 2029 2029 2029 2029 2029 2029 
2029 2029 2029 2029 2029 2029 2029 2029 2029 
2029 2029 2029 2029 2029 2029 2029 2029 2029 
2029 2029 2029 2029 2029 2029 2029 2029 2029 
2029 2029 2029 2029 2029 2029 2029 2029 2029 
2029 2029 2029 2029 2029 2029 2029 2029 2029 
2029 2029 2029 2029 2029 2029 2029 2029 2029 
2029 2029 2029 2029 2029 2029 2029 2029 2029 
2029 2029 2029 2029 2029 2029 2029 2029 2029 
2029 2029 2029 2029 2029 2029 2029 2029 2029 
2029 2029 2029 2029 2029 2029 2029 2029 2029 
2029 2029 2029 2029 2029 2029 2029 2029 2029 
2029 2029 2029 2029 2029 2029 2029 2029 2029 
2029 2029 2029 2029 2029 2029 2029 2029 2029 
2029 2029 2029 2029 2029 2029 2029 2029 2029 
2029 2029 2029 2029 2029 2029 2029 2029 2029 
2029 2029 2029 2029 2029 2029 2029 2029 2029 
2029 2029 2029 2029 2029 2029 2029 2029 2029 
2029 2029 2029 2029 2029 2029 2029 2029 2029 
2029 2029 2029 2029 2029 2029 2029 2029 2029 
2029 2029 2029 2029 2029 2029 2029 2029 2029 
2029 2029 2029 2029 2029 2029 2029 2029 2029 
2029 2029 2029 2029 2029 2029 2029 2029 2029 
2029 2029 2029 2029 2029 2029 2029 2029 2029 
2029 2029 2029 2029 2029 2029 2029 2029 2029 
2029 2029 2029 2029 2029 2029 2029 2029 2029 
2029 2029 2029 2029 2029 2029 2029 2029 2029 
2029 2029 2029 2029 2029 2029 2029 2029 2029 
2029 2029 2029 2029 2029 2029 2029 2029 2029 
2029 2029 2029 2029 2029 2029 2029 2029 2029 
2029 2029 2029 2029 2029 2029 2029 2029 2029 
2029 2029 2029 2029 2029 2029 2029 2029 2029 
2029 2029 2029 2029 2029 2029 2029 2029 2029 
2029 2029 2029 2029 2029 2029 2029 2029 2029 
2029 2029 2029 2029 2029 2029 2029 2029 2029 
2029 2029 2029 2029 2029 2029 2029 2029 2029 
2029 2029 2029 2029 2029 2029 2029 2029 2029 
2029 2029 2029 2029 2029 2029 2029 2029 2029 
2029 2029 2029 2029 2029 2029 2029 2029 2029 
2029 2029 2029 2029 2029 2029 2029 2029 2029 
2029 2029 2029 2029 2029 2029 2029 2029 2029 
2029 2029 2029 2029 2029 2029 2029 2029 2029 
2029 2029 2029 2029 2029 2029 2029 2029 2029 
2029 2029 2029 2029 2029 2029 2029 2029 2029 
2029 2029 2029 2029 2029 2029 2029 2029 2029 
2029 2029 2029 2029 2029 2029 2029 2029 2029 
2029 2029 2029 2029 2029 2029 2029 2029 2029 
2029 2029 2029 2029 2029 2029 2029 2029 2029 
2029 2029 2029 2029 2029 2029 2029 2029 2029 
2029 2029 2029 2029 2029 2029 2029 2029 2029 
2029 2029 2029 2029 2029 2029 2029 2029 2029 
2029 2029 2029 2029 2029 2029 2029 2029 2029 
2029 2029 2029 2029 2029 2029 2029 2029 2029 
2029 2029 2029 2029 2029 2029 2029 2029 2029 
2029 2029 2029 2029 2029 2029 2029 2029 2029 
2029 2029 2029 2029 2029 2029 2029 2029 2029 
2029 2029 2029 2029 2029 2029 2029 2029 2029 
2029 2029 2029 2029 2029 2029 2029 2029 2029 
2029 2029 2029 2029 2029 2029 2029 2029 2029 
2029 2029 2029 2029 2029 2029 2029 2029 2029 
2029 2029 2029 2029 2029 2029 2029 2029 2029 
2029 2029 2029 2029 2029 2029 2029 2029 2029 