# vtk DataFile Version 4.2
vtk output
ASCII
DATASET POLYDATA
POINTS 3328 float
-30.2067 -21.6925 6.79826 -30.5696 -21.2191 6.35631 -30.7599 -21.8454 6.46572 
-29.9937 -21.4332 6.34908 -30.3381 -22.3035 6.81162 -30.6226 -22.7575 6.33941 
-29.7656 -22.3499 6.30557 -30.2546 -22.9784 6.46741 -32.2 -21.3916 5.71484 
-32.2197 -21.2371 5.35746 -32.555 -21.5002 5.51348 -31.442 -21.4567 6.008 
-31.2881 -21.0621 5.55423 -30.3048 -21.073 5.74804 -29.768 -21.5585 5.45536 
-32.1075 -21.7047 5.5023 -31.3845 -21.8955 5.70128 -30.9734 -22.4342 5.58812 
-29.3281 -22.1606 5.62648 -29.2581 -22.5125 5.84939 -28.996 -22.6514 5.21475 
-30.4115 -23.4373 5.98872 -30.6518 -23.3474 5.3408 -29.8884 -23.3715 5.87714 
-29.3568 -22.961 5.73753 -30.1833 -23.7532 5.41422 -29.3317 -24.2702 5.61314 
-29.487 -24.5047 5.34673 -29.346 -24.5098 5.71292 -29.0264 -24.3728 5.35665 
-29.2481 -24.7113 5.35668 -33.046 -20.4656 4.80745 -33.0608 -20.1661 4.38794 
-33.6569 -20.4876 4.40378 -32.5177 -20.5844 4.8015 -32.5474 -20.2587 4.61212 
-32.0979 -20.4093 4.37164 -32.9389 -20.9914 4.42624 -32.2224 -20.7471 4.33239 
-32.1795 -21.4927 5.01433 -31.4328 -21.0724 4.5516 -31.7176 -21.3928 4.24264 
-30.4513 -21.0713 4.78468 -29.7731 -21.4512 4.21877 -31.6591 -22.0499 4.65501 
-31.0096 -22.9026 4.43654 -29.269 -21.9912 4.75295 -28.7528 -22.4897 4.24945 
-30.6285 -23.5611 4.33253 -29.263 -23.7647 5.18145 -28.4481 -23.1111 4.62766 
-28.3326 -23.5759 4.73991 -28.0025 -23.5681 4.19797 -30.2336 -23.9287 4.71945 
-29.7706 -24.6249 4.36341 -28.3657 -24.1153 4.60741 -28.7463 -24.786 4.52637 
-29.3218 -25.0004 4.65047 -35.0507 -19.5849 3.81042 -35.6026 -19.1935 3.25674 
-35.8351 -19.5351 3.39409 -34.2004 -19.7684 3.96896 -34.4532 -18.9674 3.27689 
-33.7576 -19.4364 3.41858 -35.3938 -20.0147 3.45383 -34.897 -20.716 3.43309 
-34.4884 -20.5111 4.06635 -33.2931 -19.9092 3.67839 -32.2873 -20.1189 3.70746 
-31.7967 -20.4888 3.61211 -34.3477 -21.3525 3.85975 -34.5486 -21.3646 3.26112 
-33.6746 -21.4417 4.02623 -32.9418 -21.544 3.61659 -32.2723 -21.0405 3.46191 
-31.1689 -21.0227 3.51387 -31.794 -21.6401 3.45653 -30.3224 -21.0664 3.57913 
-29.6335 -21.4003 3.35547 -33.9907 -21.859 3.45871 -33.3361 -21.9024 3.29712 
-32.2931 -22.2841 3.30811 -32.445 -22.5554 3.43797 -32.1101 -22.3418 3.76863 
-31.5981 -22.627 3.99292 -29.1322 -21.8809 3.48899 -28.5958 -22.4412 3.4203 
-32.0167 -22.7735 3.41633 -31.3345 -22.9856 3.55312 -30.8074 -23.4549 3.35608 
-28.2334 -22.9564 3.81848 -27.8964 -23.3137 3.28661 -30.3091 -24.0329 3.76077 
-29.9852 -24.5593 3.35461 -28.2493 -24.5522 4.06838 -27.9255 -24.1606 3.55681 
-29.4057 -25.4487 3.96997 -29.6741 -25.563 3.30251 -28.932 -25.5623 3.61271 
-28.3245 -24.9636 3.34242 -29.258 -26.0674 3.39458 -34.272 -18.4391 2.8575 
-34.3838 -18.1909 2.21328 -34.7183 -18.5356 2.73895 -33.7937 -18.4661 2.55923 
-36.2864 -19.4059 2.92598 -36.1774 -19.2913 2.49177 -36.5151 -19.5112 2.49324 
-35.3865 -18.9224 2.64267 -33.1752 -19.5811 2.92604 -33.5067 -19.0533 2.78536 
-32.8767 -19.3433 2.13003 -36.1775 -19.7291 2.77903 -35.5911 -20.2368 2.49598 
-35.0103 -20.7919 2.56895 -32.3716 -19.9147 2.5542 -31.4375 -20.81 2.90648 
-31.5297 -20.2341 2.68732 -30.8404 -20.5216 2.10759 -34.4126 -21.1895 2.31317 
-34.142 -21.6883 2.89877 -33.7544 -21.5172 2.31496 -32.8361 -21.5791 2.80877 
-32.424 -21.2451 2.31029 -31.93 -21.5342 2.52085 -30.3355 -20.878 2.50886 
-29.3027 -21.4997 2.93596 -29.5704 -21.2055 2.641 -28.9093 -21.5817 2.2622 
-33.5265 -21.8438 2.7471 -32.2366 -22.6383 3.06718 -32.015 -22.2538 2.74649 
-28.209 -22.701 3.0709 -28.5004 -22.1658 2.63817 -27.9905 -22.6605 2.37594 
-31.6596 -23.033 2.61639 -30.9894 -23.6197 2.37124 -27.686 -23.4478 2.42437 
-30.4061 -24.024 2.59824 -29.9688 -24.6718 2.49449 -27.7421 -24.5629 2.41553 
-29.8322 -25.4044 2.32817 -28.6266 -25.7455 2.54817 -28.2196 -25.2344 2.3959 
-29.391 -26.5339 2.91638 -29.6605 -26.4125 2.30077 -29.0246 -26.4019 2.70788 
-29.2936 -26.8581 2.25668 -17.3888 -17.5375 1.71241 -17.5597 -17.2516 1.55536 
-17.5913 -17.6884 1.55934 -17.0952 -17.3715 1.25608 -36.1496 -18.5757 1.64006 
-36.3869 -18.2276 1.23191 -36.6018 -18.6097 1.21367 -35.3417 -18.5408 2.13118 
-35.3934 -17.9925 1.38536 -34.1615 -17.9623 1.366 -33.2277 -18.6504 2.10956 
-33.3905 -18.1663 1.55661 -32.7987 -18.6642 1.44251 -17.2361 -17.9506 1.4278 
-36.2228 -19.7263 2.1028 -36.432 -18.9246 1.36778 -36.0429 -19.2654 1.61435 
-32.5683 -19.3057 1.44075 -35.6721 -20.2209 1.38109 -35.3872 -20.5497 1.97274 
-32.3173 -19.783 1.68754 -31.3644 -20.0161 1.45826 -30.6142 -20.5027 1.3337 
-35.0788 -20.7712 1.73661 -34.4901 -20.9112 1.50011 -33.5563 -21.2382 1.59187 
-33.1385 -21.474 2.21155 -32.2895 -21.5966 2.02606 -32.8291 -21.7875 1.3935 
-30.1507 -20.8235 1.5103 -29.3266 -21.1308 1.56189 -28.6218 -21.4516 1.297 
-32.5774 -22.5492 1.2233 -32.2155 -22.2817 1.98224 -28.157 -21.9079 1.45096 
-27.6408 -22.5591 1.53108 -32.1031 -23.0758 1.58399 -31.5207 -23.5161 1.87509 
-31.7711 -23.5699 1.11674 -27.3613 -23.0777 1.65651 -27.3204 -23.8342 1.93593 
-26.9693 -23.4467 1.44374 -30.9744 -23.879 1.50097 -30.3011 -24.1897 1.64529 
-29.9668 -24.6584 1.47654 -27.294 -24.4507 1.90166 -26.802 -24.4477 1.32738 
-29.7237 -25.5069 1.41003 -28.3598 -25.7379 1.86861 -27.8617 -25.3624 1.74407 
-27.302 -25.0337 1.52938 -29.618 -26.4305 1.46521 -28.8839 -26.3823 1.59576 
-28.0651 -25.9341 1.19866 -29.4396 -26.8431 1.69477 -17.2681 -15.5474 0.845273 
-17.3467 -15.1365 0.286075 -17.8664 -15.5566 0.506227 -16.208 -15.729 0.829608 
-16.3942 -15.1479 0.383505 -15.2065 -15.7736 0.736046 -15.426 -15.2951 0.569447 
-14.9997 -15.7329 0.429595 -18.1041 -16.2424 0.852198 -18.3793 -16.021 0.169829 
-18.6153 -16.7246 0.486457 -17.3747 -16.4958 1.15712 -16.6351 -16.3181 0.452835 
-15.978 -16.1833 0.50024 -15.5194 -16.6044 0.483846 -15.4661 -16.3377 0.707473 
-15.0254 -16.3053 0.544622 -35.1873 -17.5849 0.785432 -35.4966 -17.2482 0.201079 
-35.9354 -17.8206 0.374457 -34.7315 -17.4361 0.40453 -18.1005 -17.3697 1.11118 
-18.7431 -17.5739 0.421778 -16.63 -17.3905 0.560484 -15.2372 -16.68 0.489754 
-36.2469 -18.0714 0.751011 -36.5922 -18.425 0.741099 -34.465 -17.7658 0.809848 
-33.4027 -17.8893 0.515358 -32.1399 -18.8672 0.878095 -32.4482 -18.1762 0.521364 
-31.7005 -18.4423 0.28333 -18.3811 -18.656 0.950758 -19.009 -18.4981 0.471827 
-17.291 -18.5575 1.08423 -16.653 -18.5474 0.478062 -36.4302 -18.9587 0.798819 
-35.9044 -19.5202 0.276869 -32.0779 -19.5572 1.20075 -31.4436 -18.9408 0.506987 
-31.5743 -19.4011 0.877085 -30.9513 -19.4647 0.524322 -19.1067 -19.3166 0.784841 
-19.4031 -18.979 0.35501 -19.5714 -19.5344 0.256185 -18.5108 -19.5794 0.922113 
-17.5769 -19.4582 0.913256 -16.4034 -19.2018 0.616455 -16.5512 -19.5041 0.746682 
-16.1134 -19.6026 0.512863 -35.3625 -20.191 0.509431 -34.9982 -20.5724 1.03055 
-34.6934 -20.1513 0.334001 -34.238 -20.7501 0.910718 -34.0533 -20.3325 0.249415 
-30.1499 -20.6548 0.84994 -30.3227 -20.0727 0.430514 -29.7426 -20.5125 0.24834 
-20.3323 -20.5366 0.643385 -20.2724 -20.3444 0.318479 -20.5461 -20.5189 0.505791 
-19.013 -19.9901 0.557583 -19.9158 -20.688 0.266185 -18.0343 -20.1245 0.569549 
-16.9322 -20.0363 0.409142 -16.2777 -19.8007 0.492818 -33.6478 -21.1926 0.441722 
-33.3475 -21.5404 0.988251 -29.5167 -20.8602 0.694845 -28.3004 -21.5016 0.87709 
-28.6401 -21.099 0.580144 -27.9408 -21.4332 0.497235 -20.4877 -20.9453 0.298149 
-33.1547 -21.8194 0.362239 -32.7385 -22.3572 0.505067 -26.9546 -22.6946 1.05956 
-27.4161 -21.9741 0.730184 -26.2825 -22.7775 0.748869 -26.6234 -22.0678 0.495014 
-26.0169 -22.3055 0.243207 -32.2306 -22.9721 0.484083 -31.7138 -23.5272 0.339569 
-26.3989 -23.6407 1.00058 -25.931 -23.2314 0.365751 -31.1885 -23.8695 0.485565 
-30.3083 -24.1291 0.575438 -29.6948 -24.5707 0.54167 -26.2911 -24.4369 0.930146 
-25.8734 -24.2084 0.348219 -29.4185 -25.0953 0.619494 -29.2614 -25.9277 0.962447 
-28.9124 -25.3759 0.124099 -27.452 -25.6483 1.06367 -26.7847 -25.5911 0.520042 
-26.1917 -24.9399 0.593762 -29.3746 -26.5765 1.26858 -28.4588 -26.0126 0.632716 
-27.5518 -26.115 0.35544 -17.3257 -15.1404 -0.537837 -17.9501 -15.4302 -0.180503 
-16.2758 -15.6188 0.0445377 -16.7494 -15.5524 -0.707421 -15.4736 -15.4482 0.244706 
-18.3968 -15.8686 -0.417722 -18.8231 -16.6201 -0.379578 -16.3918 -16.1508 -0.416278 
-16.2766 -16.8691 -0.03493 -16.0101 -16.5048 -0.740299 -15.3747 -16.219 0.28581 
-36.2392 -17.4517 -0.0411205 -36.271 -17.0189 -0.448186 -36.6444 -17.4344 -0.77555 
-35.5442 -16.8567 -0.434247 -33.9758 -17.5241 0.0912218 -34.6011 -17.0226 -0.295143 
-33.2042 -17.6193 -0.224654 -33.3962 -17.0442 -0.724077 -32.7213 -17.4671 -0.726054 
-19.0638 -17.7319 -0.236258 -16.2504 -17.8634 0.0429211 -15.8948 -17.3119 -0.638858 
-36.2831 -18.5463 0.253561 -36.3362 -17.8741 -0.395351 -36.0725 -18.5845 -0.510814 
-32.5103 -17.8202 -0.291898 -30.9593 -18.6784 0.00618874 -31.5701 -17.988 -0.370399 
-30.3045 -18.74 -0.302134 -30.6179 -18.0806 -0.547558 -29.9902 -18.4242 -0.622277 
-19.2805 -18.4151 -0.0650356 -19.3981 -17.9743 -0.671481 -19.6517 -18.6989 -0.459554 
-16.2855 -18.5275 -0.0667881 -16.0411 -18.2721 -0.542736 -35.6676 -19.3149 -0.799502 
-34.2723 -19.6725 -0.0719087 -34.6928 -19.4639 -0.410643 -34.0913 -19.057 -0.717365 
-33.8176 -19.645 -0.474997 -30.4241 -19.3124 0.0216279 -29.822 -19.2988 -0.434767 
-19.9127 -19.4828 -0.48953 -16.4133 -19.6517 0.189318 -16.6269 -19.3945 -0.570216 
-16.3984 -18.8318 -0.502824 -35.285 -19.8163 -0.225811 -33.6556 -20.4577 -0.361934 
-29.0144 -20.5586 -0.0284313 -29.4445 -20.0572 -0.331045 -28.0171 -20.717 -0.080328 
-28.5661 -20.0485 -0.565383 -27.0755 -20.7833 -0.207062 -27.4297 -20.0379 -0.708625 
-26.7399 -20.4498 -0.639744 -20.2111 -20.0234 -0.290378 -20.8023 -20.5095 -0.173807 
-19.5807 -20.2299 0.0664897 -18.4088 -20.6768 0.0416546 -17.3841 -20.728 0.00819095 
-16.7838 -20.3214 -0.516289 -33.2603 -21.034 -0.625465 -33.3631 -21.5481 -0.0593217 
-32.8862 -21.5791 -0.546156 -27.238 -21.3798 0.18047 -26.2573 -20.9003 -0.625909 
-26.445 -21.4929 0.0123392 -25.827 -21.6319 -0.470656 -21.1438 -21.3428 -0.183071 
[...]
CELL_DATA 6660
SCALARS scalars float
LOOKUP_TABLE default
2016 2016 2016 2016 2016 2016 2016 2016 2016 
2016 2016 2016 2016 2016 2016 2016 2016 2016 
2016 2016 2016 2016 2016 2016 2016 2016 2016 
2016 2016 2016 2016 2016 2016 2016 2016 2016 
2016 2016 2016 2016 2016 2016 2016 2016 2016 
2016 2016 2016 2016 2016 2016 2016 2016 2016 
2016 2016 2016 2016 2016 2016 2016 2016 2016 
2016 2016 2016 2016 2016 2016 2016 2016 2016 
2016 2016 2016 2016 2016 2016 2016 2016 2016 
2016 2016 2016 2016 2016 2016 2016 2016 2016 
2016 2016 2016 2016 2016 2016 2016 2016 2016 
2016 2016 2016 2016 2016 2016 2016 2016 2016 
2016 2016 2016 2016 2016 2016 2016 2016 2016 
2016 2016 2016 2016 2016 2016 2016 2016 2016 
2016 2016 2016 2016 2016 2016 2016 2016 2016 
2016 2016 2016 2016 2016 2016 2016 2016 2016 
2016 2016 2016 2016 2016 2016 2016 2016 2016 
2016 2016 2016 2016 2016 2016 2016 2016 2016 
2016 2016 2016 2016 2016 2016 2016 2016 2016 
2016 2016 2016 2016 2016 2016 2016 2016 2016 
2016 2016 2016 2016 2016 2016 2016 2016 2016 
2016 2016 2016 2016 2016 2016 2016 2016 2016 
2016 2016 2016 2016 2016 2016 2016 2016 2016 
2016 2016 2016 2016 2016 2016 2016 2016 2016 
2016 2016 2016 2016 2016 2016 2016 2016 2016 
2016 2016 2016 2016 2016 2016 2016 2016 2016 
2016 2016 2016 2016 2016 2016 2016 2016 2016 
2016 2016 2016 2016 2016 2016 2016 2016 2016 
2016 2016 2016 2016 2016 2016 2016 2016 2016 
2016 2016 2016 2016 2016 2016 2016 2016 2016 
2016 2016 2016 2016 2016 2016 2016 2016 2016 
2016 2016 2016 2016 2016 2016 2016 2016 2016 
2016 2016 2016 2016 2016 2016 2016 2016 2016 
2016 2016 2016 2016 2016 2016 2016 2016 2016 
2016 2016 2016 2016 2016 2016 2016 2016 2016 
2016 2016 2016 2016 2016 2016 2016 2016 2016 
2016 2016 2016 2016 2016 2016 2016 2016 2016 
2016 2016 2016 2016 2016 2016 2016 2016 2016 
2016 2016 2016 2016 2016 2016 2016 2016 2016 
2016 2016 2016 2016 2016 2016 2016 2016 2016 
2016 2016 2016 2016 2016 2016 2016 2016 2016 
2016 2016 2016 2016 2016 2016 2016 2016 2016 
2016 2016 2016 2016 2016 2016 2016 2016 2016 
2016 2016 2016 2016 2016 2016 2016 2016 2016 
2016 2016 2016 2016 2016 2016 2016 2016 2016 
2016 2016 2016 2016 2016 2016 2016 2016 2016 
2016 2016 2016 2016 2016 2016 2016 2016 2016 
2016 2016 2016 2016 2016 2016 2016 2016 2016 
2016 2016 2016 2016 2016 2016 2016 2016 2016 
2016 2016 2016 2016 2016 2016 2016 2016 2016 
2016 2016 2016 2016 2016 2016 2016 2016 2016 
2016 2016 2016 2016 2016 2016 2016 2016 2016 
2016 2016 2016 2016 2016 2016 2016 2016 2016 
2016 2016 2016 2016 2016 2016 2016 2016 2016 
2016 2016 2016 2016 2016 2016 2016 2016 2016 
2016 2016 2016 2016 2016 2016 2016 2016 2016 
2016 2016 2016 2016 2016 2016 2016 2016 2016 
2016 2016 2016 2016 2016 2016 2016 2016 2016 
2016 2016 2016 2016 2016 2016 2016 2016 2016 
2016 2016 2016 2016 2016 2016 2016 2016 2016 
2016 2016 2016 2016 2016 2016 2016 2016 2016 
2016 2016 2016 2016 2016 2016 2016 2016 2016 
2016 2016 2016 2016 2016 2016 2016 2016 2016 
2016 2016 2016 2016 2016 2016 2016 2016 2016 
2016 2016 2016 2016 2016 2016 2016 2016 2016 
2016 2016 2016 2016 2016 2016 2016 2016 2016 
2016 2016 2016 2016 2016 2016 2016 2016 2016 
2016 2016 2016 2016 2016 2016 2016 2016 2016 
2016 2016 2016 2016 2016 2016 2016 2016 2016 
2016 2016 2016 2016 2016 2016 2016 2016 2016 
2016 2016 2016 2016 2016 2016 2016 2016 2016 
2016 2016 2016 2016 2016 2016 2016 2016 2016 
2016 2016 2016 2016 2016 2016 2016 2016 2016 
2016 2016 2016 2016 2016 2016 2016 2016 2016 
2016 2016 2016 2016 2016 2016 2016 2016 2016 
2016 2016 2016 2016 2016 2016 2016 2016 2016 
2016 2016 2016 2016 2016 2016 2016 2016 2016 
2016 2016 2016 2016 2016 2016 2016 2016 2016 
2016 2016 2016 2016 2016 2016 2016 2016 2016 
2016 2016 2016 2016 2016 2016 2016 2016 2016 
2016 2016 2016 2016 2016 2016 2016 2016 2016 
2016 2016 2016 2016 2016 2016 2016 2016 2016 
2016 2016 2016 2016 2016 2016 2016 2016 2016 
2016 2016 2016 2016 2016 2016 2016 2016 2016 
2016 2016 2016 2016 2016 2016 2016 2016 2016 
2016 2016 2016 2016 2016 2016 2016 2016 2016 
2016 2016 2016 2016 2016 2016 2016 2016 2016 
2016 2016 2016 2016 2016 2016 2016 2016 2016 
2016 2016 2016 2016 2016 2016 2016 2016 2016 
2016 2016 2016 2016 2016 2016 2016 2016 2016 
2016 2016 2016 2016 2016 2016 2016 2016 2016 
2016 2016 2016 2016 2016 2016 2016 2016 2016 
2016 2016 2016 2016 2016 2016 2016 2016 2016 
2016 2016 2016 2016 2016 2016 2016 2016 2016 
2016 2016 2016 2016 2016 2016 2016 2016 2016 
2016 2016 2016 2016 2016 2016 2016 2016 2016 
2016 2016 2016 2016 2016 2016 2016 2016 2016 
2016 2016 2016 2016 2016 2016 2016 2016 2016 
2016 2016 2016 2016 2016 2016 2016 2016 2016 
2016 2016 2016 2016 2016 2016 2016 2016 2016 
2016 2016 2016 2016 2016 2016 2016 2016 2016 
2016 2016 2016 2016 2016 2016 2016 2016 2016 
2016 2016 2016 2016 2016 2016 2016 2016 2016 
2016 2016 2016 2016 2016 2016 2016 2016 2016 
2016 2016 2016 2016 2016 2016 2016 2016 2016 
2016 2016 2016 2016 2016 2016 2016 2016 2016 
2016 2016 2016 2016 2016 2016 2016 2016 2016 
2016 2016 2016 2016 2016 2016 2016 2016 2016 
2016 2016 2016 2016 2016 2016 2016 2016 2016 
2016 2016 2016 2016 2016 2016 2016 2016 2016 
2016 2016 2016 2016 2016 2016 2016 2016 2016 
2016 2016 2016 2016 2016 2016 2016 2016 2016 
2016 2016 2016 2016 2016 2016 2016 2016 2016 
2016 2016 2016 2016 2016 2016 2016 2016 2016 
2016 2016 2016 2016 2016 2016 2016 2016 2016 
2016 2016 2016 2016 2016 2016 2016 2016 2016 
2016 2016 2016 2016 2016 2016 2016 2016 2016 
2016 2016 2016 2016 2016 2016 2016 2016 2016 
2016 2016 2016 2016 2016 2016 2016 2016 2016 
2016 2016 2016 2016 2016 2016 2016 2016 2016 
2016 2016 2016 2016 2016 2016 2016 2016 2016 
2016 2016 2016 2016 2016 2016 2016 2016 2016 
2016 2016 2016 2016 2016 2016 2016 2016 2016 
2016 2016 2016 2016 2016 2016 2016 2016 2016 
2016 2016 2016 2016 2016 2016 2016 2016 2016 
2016 2016 2016 2016 2016 2016 2016 2016 2016 
2016 2016 2016 2016 2016 2016 2016 2016 2016 
2016 2016 2016 2016 2016 2016 2016 2016 2016 
2016 2016 2016 2016 2016 2016 2016 2016 2016 
2016 2016 2016 2016 2016 2016 2016 2016 2016 
2016 2016 2016 2016 2016 2016 2016 2016 2016 
2016 2016 2016 2016 2016 2016 2016 2016 2016 
2016 2016 2016 2016 2016 2016 2016 2016 2016 
2016 2016 2016 2016 2016 2016 2016 2016 2016 
2016 2016 2016 2016 2016 2016 2016 2016 2016 
2016 2016 2016 2016 2016 2016 2016 2016 2016 
2016 2016 2016 2016 2016 2016 2016 2016 2016 
2016 2016 2016 2016 2016 2016 2016 2016 2016 
2016 2016 2016 2016 2016 2016 2016 2016 2016 
2016 2016 2016 2016 2016 2016 2016 2016 2016 
2016 2016 2016 2016 2016 2016 2016 2016 2016 
2016 2016 2016 2016 2016 2016 2016 2016 2016 
2016 2016 2016 2016 2016 2016 2016 2016 2016 
2016 2016 2016 2016 2016 2016 2016 2016 2016 
2016 2016 2016 2016 2016 2016 2016 2016 2016 
2016 2016 2016 2016 2016 2016 2016 2016 2016 
2016 2016 2016 2016 2016 2016 2016 2016 2016 
2016 2016 2016 2016 2016 2016 2016 2016 2016 
2016 2016 2016 2016 2016 2016 2016 2016 2016 
2016 2016 2016 2016 2016 2016 2016 2016 2016 
2016 2016 2016 2016 2016 2016 2016 2016 2016 
2016 2016 2016 2016 2016 2016 2016 2016 2016 
2016 2016 2016 2016 2016 2016 2016 2016 2016 
2016 2016 2016 2016 2016 2016 2016 2016 2016 
2016 2016 2016 2016 2016 2016 2016 2016 2016 
2016 2016 2016 2016 2016 2016 2016 2016 2016 
2016 2016 2016 2016 2016 2016 2016 2016 2016 
2016 2016 2016 2016 2016 2016 2016 2016 2016 
2016 2016 2016 2016 2016 2016 2016 2016 2016 
2016 2016 2016 2016 2016 2016 2016 2016 2016 
2016 2016 2016 2016 2016 2016 2016 2016 2016 
2016 2016 2016 2016 2016 2016 2016 2016 2016 
2016 2016 2016 2016 2016 2016 2016 2016 2016 
2016 2016 2016 2016 2016 2016 2016 2016 2016 
2016 2016 2016 2016 2016 2016 2016 2016 2016 
2016 2016 2016 2016 2016 2016 2016 2016 2016 
2016 2016 2016 2016 2016 2016 2016 2016 2016 
2016 2016 2016 2016 2016 2016 2016 2016 2016 
2016 2016 2016 2016 2016 2016 2016 2016 2016 
2016 2016 2016 2016 2016 2016 2016 2016 2016 
2016 2016 2016 2016 2016 2016 2016 2016 2016 
2016 2016 2016 2016 2016 2016 2016 2016 2016 
2016 2016 2016 2016 2016 2016 2016 2016 2016 
2016 2016 2016 2016 2016 2016 2016 2016 2016 
2016 2016 2016 2016 2016 2016 2016 2016 2016 
2016 2016 2016 2016 2016 2016 2016 2016 2016 
2016 2016 2016 2016 2016 2016 2016 2016 2016 
2016 2016 2016 2016 2016 2016 2016 2016 2016 
2016 2016 2016 2016 2016 2016 2016 2016 2016 
2016 2016 2016 2016 2016 2016 2016 2016 2016 
2016 2016 2016 2016 2016 2016 2016 2016 2016 
2016 2016 2016 2016 2016 2016 2016 2016 2016 
2016 2016 2016 2016 2016 2016 2016 2016 2016 
2016 2016 2016 2016 2016 2016 2016 2016 2016 
2016 2016 2016 2016 2016 2016 2016 2016 2016 
2016 2016 2016 2016 2016 2016 2016 2016 2016 
2016 2016 2016 2016 2016 2016 2016 2016 2016 
2016 2016 2016 2016 2016 2016 2016 2016 2016 
2016 2016 2016 2016 2016 2016 2016 2016 2016 
2016 2016 2016 2016 2016 2016 2016 2016 2016 
2016 2016 2016 2016 2016 2016 2016 2016 2016 
2016 2016 2016 2016 2016 2016 2016 2016 2016 
2016 2016 2016 2016 2016 2016 2016 2016 2016 
2016 2016 2016 2016 2016 2016 2016 2016 2016 
2016 2016 2016 2016 2016 2016 2016 2016 2016 
2016 2016 2016 2016 2016 2016 2016 2016 2016 
2016 2016 2016 2016 2016 2016 2016 2016 2016 
2016 2016 2016 2016 2016 2016 2016 2016 2016 
2016 2016 2016 2016 2016 2016 2016 2016 2016 
2016 2016 2016 2016 2016 2016 2016 2016 2016 
2016 2016 2016 2016 2016 2016 2016 2016 2016 
2016 2016 2016 2016 2016 2016 2016 2016 2016 
2016 2016 2016 2016 2016 2016 2016 2016 2016 
2016 2016 2016 2016 2016 2016 2016 2016 2016 
2016 2016 2016 2016 2016 2016 2016 2016 2016 
2016 2016 2016 2016 2016 2016 2016 2016 2016 
2016 2016 2016 2016 2016 2016 2016 2016 2016 
2016 2016 2016 2016 2016 2016 2016 2016 2016 
2016 2016 2016 2016 2016 2016 2016 2016 2016 
2016 2016 2016 2016 2016 2016 2016 2016 2016 
2016 2016 2016 2016 2016 2016 2016 2016 2016 
2016 2016 2016 2016 2016 2016 2016 2016 2016 
2016 2016 2016 2016 2016 2016 2016 2016 2016 
2016 2016 2016 2016 2016 2016 2016 2016 2016 
2016 2016 2016 2016 2016 2016 2016 2016 2016 
2016 2016 2016 2016 2016 2016 2016 2016 2016 
2016 2016 2016 2016 2016 2016 2016 2016 2016 
2016 2016 2016 2016 2016 2016 2016 2016 2016 
2016 2016 2016 2016 2016 2016 2016 2016 2016 
2016 2016 2016 2016 2016 2016 2016 2016 2016 
2016 2016 2016 2016 2016 2016 2016 2016 2016 
2016 2016 2016 2016 2016 2016 2016 2016 2016 
2016 2016 2016 2016 2016 2016 2016 2016 2016 
2016 2016 2016 2016 2016 2016 2016 2016 2016 
2016 2016 2016 2016 2016 2016 2016 2016 2016 
2016 2016 2016 2016 2016 2016 2016 2016 2016 
2016 2016 2016 2016 2016 2016 2016 2016 2016 
2016 2016 2016 2016 2016 2016 2016 2016 2016 
2016 2016 2016 2016 2016 2016 2016 2016 2016 
2016 2016 2016 2016 2016 2016 2016 2016 2016 
2016 2016 2016 2016 2016 2016 2016 2016 2016 
2016 2016 2016 2016 2016 2016 2016 2016 2016 
2016 2016 2016 2016 2016 2016 2016 2016 2016 
2016 2016 2016 2016 2016 2016 2016 2016 2016 
2016 2016 2016 2016 2016 2016 2016 2016 2016 
2016 2016 2016 2016 2016 2016 2016 2016 2016 
2016 2016 2016 2016 2016 2016 2016 2016 2016 
2016 2016 2016 2016 2016 2016 2016 2016 2016 
2016 2016 2016 2016 2016 2016 2016 2016 2016 
2016 2016 2016 2016 2016 2016 2016 2016 2016 
2016 2016 2016 2016 2016 2016 2016 2016 2016 
2016 2016 2016 2016 2016 2016 2016 2016 2016 
2016 2016 2016 2016 2016 2016 2016 2016 2016 
2016 2016 2016 2016 2016 2016 2016 2016 2016 
2016 2016 2016 2016 2016 2016 2016 2016 2016 
2016 2016 2016 2016 2016 2016 2016 2016 2016 
2016 2016 2016 2016 2016 2016 2016 2016 2016 
2016 2016 2016 2016 2016 2016 2016 2016 2016 
2016 2016 2016 2016 2016 2016 2016 2016 2016 
2016 2016 2016 2016 2016 2016 2016 2016 2016 
2016 2016 2016 2016 2016 2016 2016 2016 2016 
2016 2016 2016 2016 2016 2016 2016 2016 2016 
2016 2016 2016 2016 2016 2016 2016 2016 2016 
2016 2016 2016 2016 2016 2016 2016 2016 2016 
2016 2016 2016 2016 2016 2016 2016 2016 2016 
2016 2016 2016 2016 2016 2016 2016 2016 2016 
2016 2016 2016 2016 2016 2016 2016 2016 2016 
2016 2016 2016 2016 2016 2016 2016 2016 2016 
2016 2016 2016 2016 2016 2016 2016 2016 2016 
2016 2016 2016 2016 2016 2016 2016 2016 2016 
2016 2016 2016 2016 2016 2016 2016 2016 2016 
2016 2016 2016 2016 2016 2016 2016 2016 2016 
2016 2016 2016 2016 2016 2016 2016 2016 2016 
2016 2016 2016 2016 2016 2016 2016 2016 2016 
2016 2016 2016 2016 2016 2016 2016 2016 2016 
2016 2016 2016 2016 2016 2016 2016 2016 2016 
2016 2016 2016 2016 2016 2016 2016 2016 2016 
2016 2016 2016 2016 2016 2016 2016 2016 2016 
2016 2016 2016 2016 2016 2016 2016 2016 2016 
2016 2016 2016 2016 2016 2016 2016 2016 2016 
2016 2016 2016 2016 2016 2016 2016 2016 2016 
2016 2016 2016 2016 2016 2016 2016 2016 2016 
2016 2016 2016 2016 2016 2016 2016 2016 2016 
2016 2016 2016 2016 2016 2016 2016 2016 2016 
2016 2016 2016 2016 2016 2016 2016 2016 2016 
2016 2016 2016 2016 2016 2016 2016 2016 2016 
2016 2016 2016 2016 2016 2016 2016 2016 2016 
2016 2016 2016 2016 2016 2016 2016 2016 2016 
2016 2016 2016 2016 2016 2016 2016 2016 2016 
2016 2016 2016 2016 2016 2016 2016 2016 2016 
2016 2016 2016 2016 2016 2016 2016 2016 2016 
2016 2016 2016 2016 2016 2016 2016 2016 2016 
2016 2016 2016 2016 2016 2016 2016 2016 2016 
2016 2016 2016 2016 2016 2016 2016 2016 2016 
2016 2016 2016 2016 2016 2016 2016 2016 2016 
2016 2016 2016 2016 2016 2016 2016 2016 2016 
2016 2016 2016 2016 2016 2016 2016 2016 2016 
2016 2016 2016 2016 2016 2016 2016 2016 2016 
2016 2016 2016 2016 2016 2016 2016 2016 2016 
2016 2016 2016 2016 2016 2016 2016 2016 2016 
2016 2016 2016 2016 2016 2016 2016 2016 2016 
2016 2016 2016 2016 2016 2016 2016 2016 2016 
2016 2016 2016 2016 2016 2016 2016 2016 2016 
2016 2016 2016 2016 2016 2016 2016 2016 2016 
2016 2016 2016 2016 2016 2016 2016 2016 2016 
2016 2016 2016 2016 2016 2016 2016 2016 2016 
2016 2016 2016 2016 2016 2016 2016 2016 2016 
2016 2016 2016 2016 2016 2016 2016 2016 2016 
2016 2016 2016 2016 2016 2016 2016 2016 2016 
2016 2016 2016 2016 2016 2016 2016 2016 2016 
2016 2016 2016 2016 2016 2016 2016 2016 2016 
2016 2016 2016 2016 2016 2016 2016 2016 2016 
2016 2016 2016 2016 2016 2016 2016 2016 2016 
2016 2016 2016 2016 2016 2016 2016 2016 2016 
2016 2016 2016 2016 2016 2016 2016 2016 2016 
2016 2016 2016 2016 2016 2016 2016 2016 2016 
2016 2016 2016 2016 2016 2016 2016 2016 2016 
2016 2016 2016 2016 2016 2016 2016 2016 2016 
2016 2016 2016 2016 2016 2016 2016 2016 2016 
2016 2016 2016 2016 2016 2016 2016 2016 2016 
2016 2016 2016 2016 2016 2016 2016 2016 2016 
2016 2016 2016 2016 2016 2016 2016 2016 2016 
2016 2016 2016 2016 2016 2016 2016 2016 2016 
2016 2016 2016 2016 2016 2016 2016 2016 2016 
2016 2016 2016 2016 2016 2016 2016 2016 2016 
2016 2016 2016 2016 2016 2016 2016 2016 2016 
2016 2016 2016 2016 2016 2016 2016 2016 2016 
2016 2016 2016 2016 2016 2016 2016 2016 2016 
2016 2016 2016 2016 2016 2016 2016 2016 2016 
2016 2016 2016 2016 2016 2016 2016 2016 2016 
2016 2016 2016 2016 2016 2016 2016 2016 2016 
2016 2016 2016 2016 2016 2016 2016 2016 2016 
2016 2016 2016 2016 2016 2016 2016 2016 2016 
2016 2016 2016 2016 2016 2016 2016 2016 2016 
2016 2016 2016 2016 2016 2016 2016 2016 2016 
2016 2016 2016 2016 2016 2016 2016 2016 2016 
2016 2016 2016 2016 2016 2016 2016 2016 2016 
2016 2016 2016 2016 2016 2016 2016 2016 2016 
2016 2016 2016 2016 2016 2016 2016 2016 2016 
2016 2016 2016 2016 2016 2016 2016 2016 2016 
2016 2016 2016 2016 2016 2016 2016 2016 2016 
2016 2016 2016 2016 2016 2016 2016 2016 2016 
2016 2016 2016 2016 2016 2016 2016 2016 2016 
2016 2016 2016 2016 2016 2016 2016 2016 2016 
2016 2016 2016 2016 2016 2016 2016 2016 2016 
2016 2016 2016 2016 2016 2016 2016 2016 2016 
2016 2016 2016 2016 2016 2016 2016 2016 2016 
2016 2016 2016 2016 2016 2016 2016 2016 2016 
2016 2016 2016 2016 2016 2016 2016 2016 2016 
2016 2016 2016 2016 2016 2016 2016 2016 2016 
2016 2016 2016 2016 2016 2016 2016 2016 2016 
2016 2016 2016 2016 2016 2016 2016 2016 2016 
2016 2016 2016 2016 2016 2016 2016 2016 2016 
2016 2016 2016 2016 2016 2016 2016 2016 2016 
2016 2016 2016 2016 2016 2016 2016 2016 2016 
2016 2016 2016 2016 2016 2016 2016 2016 2016 
2016 2016 2016 2016 2016 2016 2016 2016 2016 
2016 2016 2016 2016 2016 2016 2016 2016 2016 
2016 2016 2016 2016 2016 2016 2016 2016 2016 
2016 2016 2016 2016 2016 2016 2016 2016 2016 
2016 2016 2016 2016 2016 2016 2016 2016 2016 
2016 2016 2016 2016 2016 2016 2016 2016 2016 
2016 2016 2016 2016 2016 2016 2016 2016 2016 
2016 2016 2016 2016 2016 2016 2016 2016 2016 
2016 2016 2016 2016 2016 2016 2016 2016 2016 
2016 2016 2016 2016 2016 2016 2016 2016 2016 
2016 2016 2016 2016 2016 2016 2016 2016 2016 
2016 2016 2016 2016 2016 2016 2016 2016 2016 
2016 2016 2016 2016 2016 2016 2016 2016 2016 
2016 2016 2016 2016 2016 2016 2016 2016 2016 
2016 2016 2016 2016 2016 2016 2016 2016 2016 
2016 2016 2016 2016 2016 2016 2016 2016 2016 
2016 2016 2016 2016 2016 2016 2016 2016 2016 
2016 2016 2016 2016 2016 2016 2016 2016 2016 
2016 2016 2016 2016 2016 2016 2016 2016 2016 
2016 2016 2016 2016 2016 2016 2016 2016 2016 
2016 2016 2016 2016 2016 2016 2016 2016 2016 
2016 2016 2016 2016 2016 2016 2016 2016 2016 
2016 2016 2016 2016 2016 2016 2016 2016 2016 
2016 2016 2016 2016 2016 2016 2016 2016 2016 
2016 2016 2016 2016 2016 2016 2016 2016 2016 
2016 2016 2016 2016 2016 2016 2016 2016 2016 
2016 2016 2016 2016 2016 2016 2016 2016 2016 
2016 2016 2016 2016 2016 2016 2016 2016 2016 
2016 2016 2016 2016 2016 2016 2016 2016 2016 
2016 2016 2016 2016 2016 2016 2016 2016 2016 
2016 2016 2016 2016 2016 2016 2016 2016 2016 
2016 2016 2016 2016 2016 2016 2016 2016 2016 
2016 2016 2016 2016 2016 2016 2016 2016 2016 
2016 2016 2016 2016 2016 2016 2016 2016 2016 
2016 2016 2016 2016 2016 2016 2016 2016 2016 
2016 2016 2016 2016 2016 2016 2016 2016 2016 
2016 2016 2016 2016 2016 2016 2016 2016 2016 
2016 2016 2016 2016 2016 2016 2016 2016 2016 
2016 2016 2016 2016 2016 2016 2016 2016 2016 
2016 2016 2016 2016 2016 2016 2016 2016 2016 
2016 2016 2016 2016 2016 2016 2016 2016 2016 
2016 2016 2016 2016 2016 2016 2016 2016 2016 
2016 2016 2016 2016 2016 2016 2016 2016 2016 
2016 2016 2016 2016 2016 2016 2016 2016 2016 
2016 2016 2016 2016 2016 2016 2016 2016 2016 
2016 2016 2016 2016 2016 2016 2016 2016 2016 
2016 2016 2016 2016 2016 2016 2016 2016 2016 
2016 2016 2016 2016 2016 2016 2016 2016 2016 
2016 2016 2016 2016 2016 2016 2016 2016 2016 
2016 2016 2016 2016 2016 2016 2016 2016 2016 
2016 2016 2016 2016 2016 2016 2016 2016 2016 
2016 2016 2016 2016 2016 2016 2016 2016 2016 
2016 2016 2016 2016 2016 2016 2016 2016 2016 
2016 2016 2016 2016 2016 2016 2016 2016 2016 
2016 2016 2016 2016 2016 2016 2016 2016 2016 
2016 2016 2016 2016 2016 2016 2016 2016 2016 
2016 2016 2016 2016 2016 2016 2016 2016 2016 
2016 2016 2016 2016 2016 2016 2016 2016 2016 
2016 2016 2016 2016 2016 2016 2016 2016 2016 
2016 2016 2016 2016 2016 2016 2016 2016 2016 
2016 2016 2016 2016 2016 2016 2016 2016 2016 
2016 2016 2016 2016 2016 2016 2016 2016 2016 
2016 2016 2016 2016 2016 2016 2016 2016 2016 
2016 2016 2016 2016 2016 2016 2016 2016 2016 
2016 2016 2016 2016 2016 2016 2016 2016 2016 
2016 2016 2016 2016 2016 2016 2016 2016 2016 
2016 2016 2016 2016 2016 2016 2016 2016 2016 
2016 2016 2016 2016 2016 2016 2016 2016 2016 
2016 2016 2016 2016 2016 2016 2016 2016 2016 
2016 2016 2016 2016 2016 2016 2016 2016 2016 
2016 2016 2016 2016 2016 2016 2016 2016 2016 
2016 2016 2016 2016 2016 2016 2016 2016 2016 
2016 2016 2016 2016 2016 2016 2016 2016 2016 
2016 2016 2016 2016 2016 2016 2016 2016 2016 
2016 2016 2016 2016 2016 2016 2016 2016 2016 
2016 2016 2016 2016 2016 2016 2016 2016 2016 
2016 2016 2016 2016 2016 2016 2016 2016 2016 
2016 2016 2016 2016 2016 2016 2016 2016 2016 
2016 2016 2016 2016 2016 2016 2016 2016 2016 
2016 2016 2016 2016 2016 2016 2016 2016 2016 
2016 2016 2016 2016 2016 2016 2016 2016 2016 
2016 2016 2016 2016 2016 2016 2016 2016 2016 
2016 2016 2016 2016 2016 2016 2016 2016 2016 
2016 2016 2016 2016 2016 2016 2016 2016 2016 
2016 2016 2016 2016 2016 2016 2016 2016 2016 
2016 2016 2016 2016 2016 2016 2016 2016 2016 
2016 2016 2016 2016 2016 2016 2016 2016 2016 