# vtk DataFile Version 4.2
vtk output
ASCII
DATASET POLYDATA
POINTS 4894 float
5.03966 -4.69466 7.08987 4.96228 -4.41506 6.93697 5.20034 -4.58569 6.93272 
4.8562 -4.55297 6.86527 6.14782 -5.04833 7.07147 6.1267 -4.9264 6.82755 
6.354 -5.12365 6.95444 5.60487 -4.99719 7.12269 5.68395 -4.78575 6.92104 
5.13066 -5.10776 7.11274 4.80334 -4.92755 6.92098 6.06638 -5.25355 6.92596 
5.43468 -5.35223 6.88179 4.84441 -5.31095 6.80067 2.48909 -4.00486 6.57742 
2.50373 -3.70122 6.15633 2.86817 -3.96075 6.36882 1.81692 -3.94962 6.62031 
2.05466 -3.65624 6.36782 1.34795 -4.03386 6.53117 1.43735 -3.56125 6.15785 
1.03599 -3.98001 6.16743 5.64255 -4.60897 6.51514 5.62066 -4.38325 6.16353 
5.76858 -4.52562 6.2556 4.95148 -4.44998 6.77858 5.30623 -4.50234 6.10185 
4.3191 -4.53093 6.49159 4.21115 -4.36876 6.16107 4.5263 -4.49507 6.34116 
3.82657 -4.58756 6.50981 3.78882 -4.27849 6.23271 3.16759 -4.36719 6.52895 
3.27885 -4.16242 6.28212 2.70322 -4.46385 6.56368 2.13504 -4.40318 6.59745 
1.55988 -4.41705 6.56933 1.16063 -4.49872 6.27008 7.43811 -5.11071 6.45027 
7.4024 -4.98436 6.17057 7.54246 -5.15311 6.26166 7.16558 -5.1869 6.21555 
6.17517 -5.1614 6.70561 5.91273 -4.98209 6.32605 4.89937 -4.66273 6.47863 
4.43921 -4.9933 6.61876 4.01295 -5.14603 6.24344 3.59511 -4.83319 6.35353 
3.04853 -4.78727 6.35981 2.45108 -4.80745 6.35399 1.82494 -4.80392 6.35487 
1.42284 -4.74055 6.36439 7.43762 -5.22158 6.35486 5.65527 -5.43783 6.4477 
4.95427 -5.55934 6.41027 4.43194 -5.45058 6.33595 1.35451 -3.25332 5.87086 
1.34999 -3.19074 5.69053 1.50062 -3.31135 5.71256 1.2487 -3.32576 5.70767 
2.69823 -3.66401 5.57475 2.91435 -3.8768 5.92256 2.04093 -3.47911 5.69226 
0.780157 -3.98744 5.8569 0.957944 -3.72045 5.71084 0.695984 -3.92806 5.70252 
5.60698 -4.301 5.77866 5.89868 -4.57383 5.91702 5.26655 -4.42634 5.52404 
4.47333 -4.54733 6.0703 4.2354 -4.47889 5.7764 3.94484 -4.27543 5.65879 
3.39196 -4.07957 5.67898 0.865695 -4.27734 5.69598 0.725171 -4.07581 5.70135 
7.45457 -4.76981 5.7179 7.60408 -5.05285 5.70096 6.60556 -5.22047 5.982 
6.99339 -4.82205 5.84542 6.10137 -5.16339 5.96516 6.37144 -4.76191 5.72747 
4.97236 -4.71991 5.79265 4.593 -4.69623 5.64298 3.72251 -5.11344 6.09171 
3.23177 -5.22581 6.0049 2.71458 -5.1156 6.12874 2.15258 -5.21351 6.01463 
1.38856 -5.03513 6.03345 0.881644 -4.81617 5.85811 0.897052 -5.15792 5.82098 
0.577441 -5.05263 5.50818 7.32716 -5.389 5.8712 6.885 -5.58376 5.96514 
6.98732 -5.70667 5.63999 6.33146 -5.67638 5.92213 5.75503 -5.64891 5.99607 
5.12901 -5.77914 6.00063 4.56469 -5.76198 5.96356 4.18223 -5.61371 5.87047 
3.7892 -5.3933 5.65176 3.26192 -5.43525 5.67302 2.62611 -5.51276 5.88699 
2.88575 -5.74032 5.56757 2.2647 -5.6192 5.72935 1.78856 -5.46088 5.6953 
1.17402 -5.40295 5.69853 0.72572 -5.40156 5.60593 6.6238 -5.89541 5.67007 
6.04409 -5.98068 5.62859 5.47031 -5.97018 5.67934 4.99064 -5.91843 5.5772 
4.48537 -5.84207 5.64544 2.50365 -5.86516 5.64554 1.24944 -6.44912 5.94954 
1.42717 -6.05125 5.6663 1.73281 -6.35473 5.76106 0.724649 -6.453 5.8897 
0.936108 -6.03078 5.70667 0.536499 -6.17773 5.57434 1.80639 -6.87863 5.97307 
2.13575 -6.59791 5.61715 2.19876 -7.06999 5.74119 1.37343 -6.92781 6.09603 
0.958163 -6.97146 5.98296 0.580847 -6.73222 5.70373 2.00306 -7.38231 5.93194 
2.19374 -7.453 5.54935 1.49898 -7.39297 5.99371 1.07935 -7.40678 5.69447 
0.788004 -7.10294 5.67935 1.80913 -7.71932 5.68431 1.38375 -7.72153 5.63406 
6.12469 -3.47298 5.27883 6.24036 -3.16329 4.9694 6.50819 -3.37117 5.12496 
5.84145 -3.34457 4.89781 1.90893 -3.32432 5.23914 2.06787 -3.13121 4.87657 
2.24996 -3.3336 5.19469 1.36724 -3.25645 5.53608 1.63374 -3.24555 4.98614 
0.786832 -3.2707 5.17276 0.907526 -3.15278 4.96769 0.94368 -3.28184 5.13572 
0.632693 -3.3606 4.89256 7.21642 -3.98159 5.2834 7.36655 -3.60577 4.96091 
7.63044 -3.95478 5.05762 6.61379 -3.83529 5.34327 6.90941 -3.58047 5.05034 
6.16582 -3.84771 5.41187 5.69485 -3.65225 5.17533 5.71875 -3.94651 5.42505 
5.42858 -4.05668 5.19666 3.08217 -3.86257 5.43379 3.1358 -3.68813 5.10707 
3.42893 -3.9373 5.16766 2.6388 -3.47163 5.18129 1.4274 -3.43271 5.3448 
0.791281 -3.99355 5.54511 0.983121 -3.86629 5.21735 0.853363 -3.42799 5.08382 
7.36354 -4.43216 5.44829 7.69664 -4.53618 5.17982 6.80604 -4.39741 5.49966 
6.14903 -4.25693 5.52869 5.21411 -4.39255 4.99467 4.29356 -4.49341 5.41611 
4.22804 -4.28756 5.15993 4.58873 -4.51875 5.10192 3.83414 -4.08151 5.15397 
0.734775 -4.20656 5.10554 0.696121 -4.62277 5.46962 0.514014 -4.56623 5.05662 
7.63289 -4.96436 5.01966 4.93189 -4.68914 5.26219 0.428467 -5.02606 5.00407 
7.37483 -5.31048 5.18816 6.90787 -5.55233 5.13879 6.73996 -5.80488 5.34306 
6.48064 -5.70989 4.96946 4.74932 -5.75021 5.3404 5.22881 -5.78842 5.17051 
5.02836 -5.54388 4.87917 4.37864 -5.51609 5.17184 4.29621 -5.68193 5.51376 
3.90884 -5.32736 5.00392 3.30859 -5.40711 5.2558 2.93795 -5.57845 5.01645 
2.10384 -5.85192 5.51768 1.43941 -5.74964 5.53767 0.806561 -5.71811 5.53525 
0.481247 -5.62922 5.20511 6.32019 -5.93013 5.24494 5.68 -5.94283 5.2339 
2.46209 -6.28857 5.40632 2.79364 -6.2857 4.99237 1.90577 -6.11523 5.52128 
0.537387 -6.35021 5.18698 2.61533 -6.64523 5.1284 2.40979 -7.01569 5.17705 
0.690445 -6.84849 5.39866 0.954538 -7.02727 5.17648 0.791455 -6.59994 5.0217 
2.26294 -7.46589 5.12052 1.14355 -7.55788 5.07977 1.98971 -7.84883 5.1221 
1.45448 -7.90667 5.20092 5.64337 -2.84401 4.67999 5.55465 -2.58895 4.54618 
5.71608 -2.66138 4.52774 5.45035 -2.71822 4.53526 7.33857 -3.33668 4.66427 
7.35251 -2.97971 4.32047 7.6469 -3.35219 4.56718 7.06392 -3.25715 4.42258 
6.09906 -2.98897 4.43875 6.56188 -3.26898 4.74006 5.60319 -3.20763 4.75423 
5.3678 -3.0706 4.45161 3.76469 -3.36712 4.65144 3.84463 -3.06584 4.45523 
4.15402 -3.39043 4.51498 3.13511 -3.34888 4.79395 3.34773 -2.98255 4.49782 
2.55862 -3.25021 4.90811 2.65921 -2.98619 4.57046 1.98351 -2.91324 4.41122 
1.16195 -3.39493 4.97852 1.34039 -3.04457 4.58601 0.747189 -3.06828 4.58862 
0.50452 -3.26455 4.37836 7.78049 -3.89892 4.5403 6.99158 -3.43096 4.68294 
5.55416 -3.96155 4.82255 5.71266 -3.84164 4.5848 5.55309 -3.52397 4.55305 
4.31516 -3.9569 4.75272 4.50259 -3.66441 4.42163 4.78161 -4.04925 4.48569 
3.66118 -3.74999 4.87803 0.802652 -3.73387 4.92546 0.501627 -3.86408 4.57067 
7.65917 -4.44857 4.49508 5.57838 -4.08616 4.4767 5.22691 -4.19101 4.51778 
4.8865 -4.41257 4.79279 0.511038 -4.58143 4.50986 7.36739 -4.81622 4.45262 
7.3493 -5.17037 4.76927 7.06953 -5.09273 4.40613 3.57224 -5.09323 4.77882 
3.98413 -5.03745 4.54432 3.68921 -4.83746 4.50668 3.32764 -4.80049 4.5093 
3.15691 -5.1663 4.83306 2.93889 -5.02841 4.46214 0.524359 -5.27529 4.59944 
6.87232 -5.3399 4.57086 6.25322 -5.50082 4.5084 6.00871 -5.72831 4.81727 
5.59989 -5.5097 4.53024 5.54199 -5.6935 4.87511 5.12916 -5.34683 4.3548 
4.50572 -5.30714 4.622 2.86599 -5.70142 4.52685 0.577533 -5.84831 4.66626 
2.89357 -6.24317 4.42675 0.728449 -6.24066 4.73993 0.987515 -6.39608 4.53196 
0.82858 -5.96304 4.39183 2.66351 -6.8445 4.85675 2.79154 -6.78182 4.39939 
1.09821 -6.94258 4.52071 3.74807 -7.68915 4.74741 3.98214 -7.30115 4.40362 
4.18882 -7.52945 4.62714 3.52751 -7.46539 4.35876 2.56922 -7.14256 4.57025 
2.37746 -7.52773 4.61387 1.09715 -7.42264 4.4141 4.22351 -8.00526 4.74642 
4.47986 -7.68841 4.48363 4.61475 -8.16931 4.34947 3.80319 -8.08087 4.88601 
3.13055 -7.76807 4.48042 3.2054 -8.18641 4.76015 2.40553 -8.12349 4.82053 
2.64009 -7.82007 4.45415 1.86722 -8.30321 4.91265 1.44766 -8.2418 4.85924 
1.13667 -7.97312 4.56069 4.32926 -8.45952 4.62431 4.1498 -8.72989 4.57771 
3.88182 -8.50212 4.72951 3.43078 -8.7576 4.4409 3.09067 -8.55965 4.59794 
2.93699 -8.75575 4.44988 2.70087 -8.55097 4.73224 2.10936 -8.65305 4.78223 
1.54085 -8.69013 4.73503 1.16519 -8.55 4.44302 3.9325 -8.98035 4.35985 
2.47905 -8.92748 4.38779 1.7748 -8.99946 4.46308 1.3228 -8.92918 4.38318 
7.44007 -2.6399 4.09216 7.48466 -2.52988 3.77492 7.62612 -2.79397 4.06205 
7.18292 -2.70128 3.79579 5.52828 -2.78946 4.3232 4.33402 -2.78064 4.07448 
4.4886 -2.51968 3.73347 4.7241 -2.81675 3.92512 3.71482 -2.73509 4.21224 
3.9509 -2.39017 3.79483 3.03441 -2.67543 4.23078 3.3271 -2.37859 3.91184 
2.4339 -2.69572 4.21425 2.73823 -2.38814 3.92361 1.94516 -2.73593 4.10191 
2.17997 -2.44471 3.91715 1.7327 -2.59136 3.86335 7.76954 -3.25921 3.94059 
6.70512 -3.24302 4.39007 6.79271 -3.04107 4.0744 6.22244 -2.96439 3.7426 
5.68035 -2.97812 3.94592 5.185 -2.95428 3.87911 4.97889 -3.30547 4.19901 
4.3402 -3.21823 4.29596 1.40408 -2.8656 3.97186 0.801443 -3.03926 4.05414 
0.505737 -3.36495 3.87949 7.6865 -3.88527 3.83048 5.42271 -3.90736 4.34125 
4.89964 -3.78344 4.28914 0.551587 -3.92781 3.95535 7.38438 -4.29817 3.86667 
7.43183 -4.51494 4.23053 7.11298 -4.51609 3.90929 3.69405 -4.57517 4.19618 
4.12558 -4.54861 3.93883 3.87329 -4.24845 3.73984 3.31977 -4.28372 3.85459 
3.1358 -4.53109 4.20847 2.9719 -4.61769 3.95799 0.731882 -4.45276 4.1111 
0.977161 -4.53957 3.82308 0.816458 -4.14168 3.80111 6.79492 -4.81555 3.88293 
6.71414 -5.16535 4.12973 6.43429 -5.0926 3.77802 4.80653 -5.10586 4.15006 
5.20853 -5.08481 3.91267 4.93641 -4.89917 3.88289 4.58492 -4.75739 3.896 
4.30054 -4.9266 4.21271 2.92468 -5.22403 4.0132 0.773895 -4.9541 4.20356 
1.02821 -5.09521 3.82434 6.31514 -5.31295 4.02963 5.70225 -5.31955 4.01019 
2.97015 -5.8858 3.90289 0.79075 -5.52041 4.23654 1.04766 -5.74006 3.92752 
2.91065 -6.41748 3.98287 1.12195 -6.30752 3.91019 2.76732 -6.76895 3.76779 
1.10863 -6.88826 3.90244 4.35296 -7.37492 4.32771 4.27376 -7.24711 3.84894 
4.63021 -7.62222 4.07215 3.73049 -7.22272 3.94027 3.37156 -7.42485 3.91148 
2.57092 -7.18048 4.08464 2.39434 -7.43668 3.86554 1.07089 -7.50267 3.90361 
4.83062 -8.13127 3.7568 3.07001 -7.67241 3.99057 2.62527 -7.73308 3.93326 
1.04429 -8.13847 3.90476 4.3932 -8.71426 4.33657 4.63193 -8.64199 3.88845 
3.1746 -8.73568 4.3591 1.10983 -8.69345 3.90075 4.22668 -9.06172 3.9031 
3.91453 -9.32029 4.03939 3.95892 -9.33384 3.78133 3.63497 -9.23524 4.06436 
3.22952 -9.00227 3.97512 2.63605 -8.9436 3.75071 1.96182 -9.05988 3.93317 
[...]
CELL_DATA 9804
SCALARS scalars float
LOOKUP_TABLE default
2023 2023 2023 2023 2023 2023 2023 2023 2023 
2023 2023 2023 2023 2023 2023 2023 2023 2023 
2023 2023 2023 2023 2023 2023 2023 2023 2023 
2023 2023 2023 2023 2023 2023 2023 2023 2023 
2023 2023 2023 2023 2023 2023 2023 2023 2023 
2023 2023 2023 2023 2023 2023 2023 2023 2023 
2023 2023 2023 2023 2023 2023 2023 2023 2023 
2023 2023 2023 2023 2023 2023 2023 2023 2023 
2023 2023 2023 2023 2023 2023 2023 2023 2023 
2023 2023 2023 2023 2023 2023 2023 2023 2023 
2023 2023 2023 2023 2023 2023 2023 2023 2023 
2023 2023 2023 2023 2023 2023 2023 2023 2023 
2023 2023 2023 2023 2023 2023 2023 2023 2023 
2023 2023 2023 2023 2023 2023 2023 2023 2023 
2023 2023 2023 2023 2023 2023 2023 2023 2023 
2023 2023 2023 2023 2023 2023 2023 2023 2023 
2023 2023 2023 2023 2023 2023 2023 2023 2023 
2023 2023 2023 2023 2023 2023 2023 2023 2023 
2023 2023 2023 2023 2023 2023 2023 2023 2023 
2023 2023 2023 2023 2023 2023 2023 2023 2023 
2023 2023 2023 2023 2023 2023 2023 2023 2023 
2023 2023 2023 2023 2023 2023 2023 2023 2023 
2023 2023 2023 2023 2023 2023 2023 2023 2023 
2023 2023 2023 2023 2023 2023 2023 2023 2023 
2023 2023 2023 2023 2023 2023 2023 2023 2023 
2023 2023 2023 2023 2023 2023 2023 2023 2023 
2023 2023 2023 2023 2023 2023 2023 2023 2023 
2023 2023 2023 2023 2023 2023 2023 2023 2023 
2023 2023 2023 2023 2023 2023 2023 2023 2023 
2023 2023 2023 2023 2023 2023 2023 2023 2023 
2023 2023 2023 2023 2023 2023 2023 2023 2023 
2023 2023 2023 2023 2023 2023 2023 2023 2023 
2023 2023 2023 2023 2023 2023 2023 2023 2023 
2023 2023 2023 2023 2023 2023 2023 2023 2023 
2023 2023 2023 2023 2023 2023 2023 2023 2023 
2023 2023 2023 2023 2023 2023 2023 2023 2023 
2023 2023 2023 2023 2023 2023 2023 2023 2023 
2023 2023 2023 2023 2023 2023 2023 2023 2023 
2023 2023 2023 2023 2023 2023 2023 2023 2023 
2023 2023 2023 2023 2023 2023 2023 2023 2023 
2023 2023 2023 2023 2023 2023 2023 2023 2023 
2023 2023 2023 2023 2023 2023 2023 2023 2023 
2023 2023 2023 2023 2023 2023 2023 2023 2023 
2023 2023 2023 2023 2023 2023 2023 2023 2023 
2023 2023 2023 2023 2023 2023 2023 2023 2023 
2023 2023 2023 2023 2023 2023 2023 2023 2023 
2023 2023 2023 2023 2023 2023 2023 2023 2023 
2023 2023 2023 2023 2023 2023 2023 2023 2023 
2023 2023 2023 2023 2023 2023 2023 2023 2023 
2023 2023 2023 2023 2023 2023 2023 2023 2023 
2023 2023 2023 2023 2023 2023 2023 2023 2023 
2023 2023 2023 2023 2023 2023 2023 2023 2023 
2023 2023 2023 2023 2023 2023 2023 2023 2023 
2023 2023 2023 2023 2023 2023 2023 2023 2023 
2023 2023 2023 2023 2023 2023 2023 2023 2023 
2023 2023 2023 2023 2023 2023 2023 2023 2023 
2023 2023 2023 2023 2023 2023 2023 2023 2023 
2023 2023 2023 2023 2023 2023 2023 2023 2023 
2023 2023 2023 2023 2023 2023 2023 2023 2023 
2023 2023 2023 2023 2023 2023 2023 2023 2023 
2023 2023 2023 2023 2023 2023 2023 2023 2023 
2023 2023 2023 2023 2023 2023 2023 2023 2023 
2023 2023 2023 2023 2023 2023 2023 2023 2023 
2023 2023 2023 2023 2023 2023 2023 2023 2023 
2023 2023 2023 2023 2023 2023 2023 2023 2023 
2023 2023 2023 2023 2023 2023 2023 2023 2023 
2023 2023 2023 2023 2023 2023 2023 2023 2023 
2023 2023 2023 2023 2023 2023 2023 2023 2023 
2023 2023 2023 2023 2023 2023 2023 2023 2023 
2023 2023 2023 2023 2023 2023 2023 2023 2023 
2023 2023 2023 2023 2023 2023 2023 2023 2023 
2023 2023 2023 2023 2023 2023 2023 2023 2023 
2023 2023 2023 2023 2023 2023 2023 2023 2023 
2023 2023 2023 2023 2023 2023 2023 2023 2023 
2023 2023 2023 2023 2023 2023 2023 2023 2023 
2023 2023 2023 2023 2023 2023 2023 2023 2023 
2023 2023 2023 2023 2023 2023 2023 2023 2023 
2023 2023 2023 2023 2023 2023 2023 2023 2023 
2023 2023 2023 2023 2023 2023 2023 2023 2023 
2023 2023 2023 2023 2023 2023 2023 2023 2023 
2023 2023 2023 2023 2023 2023 2023 2023 2023 
2023 2023 2023 2023 2023 2023 2023 2023 2023 
2023 2023 2023 2023 2023 2023 2023 2023 2023 
2023 2023 2023 2023 2023 2023 2023 2023 2023 
2023 2023 2023 2023 2023 2023 2023 2023 2023 
2023 2023 2023 2023 2023 2023 2023 2023 2023 
2023 2023 2023 2023 2023 2023 2023 2023 2023 
2023 2023 2023 2023 2023 2023 2023 2023 2023 
2023 2023 2023 2023 2023 2023 2023 2023 2023 
2023 2023 2023 2023 2023 2023 2023 2023 2023 
2023 2023 2023 2023 2023 2023 2023 2023 2023 
2023 2023 2023 2023 2023 2023 2023 2023 2023 
2023 2023 2023 2023 2023 2023 2023 2023 2023 
2023 2023 2023 2023 2023 2023 2023 2023 2023 
2023 2023 2023 2023 2023 2023 2023 2023 2023 
2023 2023 2023 2023 2023 2023 2023 2023 2023 
2023 2023 2023 2023 2023 2023 2023 2023 2023 
2023 2023 2023 2023 2023 2023 2023 2023 2023 
2023 2023 2023 2023 2023 2023 2023 2023 2023 
2023 2023 2023 2023 2023 2023 2023 2023 2023 
2023 2023 2023 2023 2023 2023 2023 2023 2023 
2023 2023 2023 2023 2023 2023 2023 2023 2023 
2023 2023 2023 2023 2023 2023 2023 2023 2023 
2023 2023 2023 2023 2023 2023 2023 2023 2023 
2023 2023 2023 2023 2023 2023 2023 2023 2023 
2023 2023 2023 2023 2023 2023 2023 2023 2023 
2023 2023 2023 2023 2023 2023 2023 2023 2023 
2023 2023 2023 2023 2023 2023 2023 2023 2023 
2023 2023 2023 2023 2023 2023 2023 2023 2023 
2023 2023 2023 2023 2023 2023 2023 2023 2023 
2023 2023 2023 2023 2023 2023 2023 2023 2023 
2023 2023 2023 2023 2023 2023 2023 2023 2023 
2023 2023 2023 2023 2023 2023 2023 2023 2023 
2023 2023 2023 2023 2023 2023 2023 2023 2023 
2023 2023 2023 2023 2023 2023 2023 2023 2023 
2023 2023 2023 2023 2023 2023 2023 2023 2023 
2023 2023 2023 2023 2023 2023 2023 2023 2023 
2023 2023 2023 2023 2023 2023 2023 2023 2023 
2023 2023 2023 2023 2023 2023 2023 2023 2023 
2023 2023 2023 2023 2023 2023 2023 2023 2023 
2023 2023 2023 2023 2023 2023 2023 2023 2023 
2023 2023 2023 2023 2023 2023 2023 2023 2023 
2023 2023 2023 2023 2023 2023 2023 2023 2023 
2023 2023 2023 2023 2023 2023 2023 2023 2023 
2023 2023 2023 2023 2023 2023 2023 2023 2023 
2023 2023 2023 2023 2023 2023 2023 2023 2023 
2023 2023 2023 2023 2023 2023 2023 2023 2023 
2023 2023 2023 2023 2023 2023 2023 2023 2023 
2023 2023 2023 2023 2023 2023 2023 2023 2023 
2023 2023 2023 2023 2023 2023 2023 2023 2023 
2023 2023 2023 2023 2023 2023 2023 2023 2023 
2023 2023 2023 2023 2023 2023 2023 2023 2023 
2023 2023 2023 2023 2023 2023 2023 2023 2023 
2023 2023 2023 2023 2023 2023 2023 2023 2023 
2023 2023 2023 2023 2023 2023 2023 2023 2023 
2023 2023 2023 2023 2023 2023 2023 2023 2023 
2023 2023 2023 2023 2023 2023 2023 2023 2023 
2023 2023 2023 2023 2023 2023 2023 2023 2023 
2023 2023 2023 2023 2023 2023 2023 2023 2023 
2023 2023 2023 2023 2023 2023 2023 2023 2023 
2023 2023 2023 2023 2023 2023 2023 2023 2023 
2023 2023 2023 2023 2023 2023 2023 2023 2023 
2023 2023 2023 2023 2023 2023 2023 2023 2023 
2023 2023 2023 2023 2023 2023 2023 2023 2023 
2023 2023 2023 2023 2023 2023 2023 2023 2023 
2023 2023 2023 2023 2023 2023 2023 2023 2023 
2023 2023 2023 2023 2023 2023 2023 2023 2023 
2023 2023 2023 2023 2023 2023 2023 2023 2023 
2023 2023 2023 2023 2023 2023 2023 2023 2023 
2023 2023 2023 2023 2023 2023 2023 2023 2023 
2023 2023 2023 2023 2023 2023 2023 2023 2023 
2023 2023 2023 2023 2023 2023 2023 2023 2023 
2023 2023 2023 2023 2023 2023 2023 2023 2023 
2023 2023 2023 2023 2023 2023 2023 2023 2023 
2023 2023 2023 2023 2023 2023 2023 2023 2023 
2023 2023 2023 2023 2023 2023 2023 2023 2023 
2023 2023 2023 2023 2023 2023 2023 2023 2023 
2023 2023 2023 2023 2023 2023 2023 2023 2023 
2023 2023 2023 2023 2023 2023 2023 2023 2023 
2023 2023 2023 2023 2023 2023 2023 2023 2023 
2023 2023 2023 2023 2023 2023 2023 2023 2023 
2023 2023 2023 2023 2023 2023 2023 2023 2023 
2023 2023 2023 2023 2023 2023 2023 2023 2023 
2023 2023 2023 2023 2023 2023 2023 2023 2023 
2023 2023 2023 2023 2023 2023 2023 2023 2023 
2023 2023 2023 2023 2023 2023 2023 2023 2023 
2023 2023 2023 2023 2023 2023 2023 2023 2023 
2023 2023 2023 2023 2023 2023 2023 2023 2023 
2023 2023 2023 2023 2023 2023 2023 2023 2023 
2023 2023 2023 2023 2023 2023 2023 2023 2023 
2023 2023 2023 2023 2023 2023 2023 2023 2023 
2023 2023 2023 2023 2023 2023 2023 2023 2023 
2023 2023 2023 2023 2023 2023 2023 2023 2023 
2023 2023 2023 2023 2023 2023 2023 2023 2023 
2023 2023 2023 2023 2023 2023 2023 2023 2023 
2023 2023 2023 2023 2023 2023 2023 2023 2023 
2023 2023 2023 2023 2023 2023 2023 2023 2023 
2023 2023 2023 2023 2023 2023 2023 2023 2023 
2023 2023 2023 2023 2023 2023 2023 2023 2023 
2023 2023 2023 2023 2023 2023 2023 2023 2023 
2023 2023 2023 2023 2023 2023 2023 2023 2023 
2023 2023 2023 2023 2023 2023 2023 2023 2023 
2023 2023 2023 2023 2023 2023 2023 2023 2023 
2023 2023 2023 2023 2023 2023 2023 2023 2023 
2023 2023 2023 2023 2023 2023 2023 2023 2023 
2023 2023 2023 2023 2023 2023 2023 2023 2023 
2023 2023 2023 2023 2023 2023 2023 2023 2023 
2023 2023 2023 2023 2023 2023 2023 2023 2023 
2023 2023 2023 2023 2023 2023 2023 2023 2023 
2023 2023 2023 2023 2023 2023 2023 2023 2023 
2023 2023 2023 2023 2023 2023 2023 2023 2023 
2023 2023 2023 2023 2023 2023 2023 2023 2023 
2023 2023 2023 2023 2023 2023 2023 2023 2023 
2023 2023 2023 2023 2023 2023 2023 2023 2023 
2023 2023 2023 2023 2023 2023 2023 2023 2023 
2023 2023 2023 2023 2023 2023 2023 2023 2023 
2023 2023 2023 2023 2023 2023 2023 2023 2023 
2023 2023 2023 2023 2023 2023 2023 2023 2023 
2023 2023 2023 2023 2023 2023 2023 2023 2023 
2023 2023 2023 2023 2023 2023 2023 2023 2023 
2023 2023 2023 2023 2023 2023 2023 2023 2023 
2023 2023 2023 2023 2023 2023 2023 2023 2023 
2023 2023 2023 2023 2023 2023 2023 2023 2023 
2023 2023 2023 2023 2023 2023 2023 2023 2023 
2023 2023 2023 2023 2023 2023 2023 2023 2023 
2023 2023 2023 2023 2023 2023 2023 2023 2023 
2023 2023 2023 2023 2023 2023 2023 2023 2023 
2023 2023 2023 2023 2023 2023 2023 2023 2023 
2023 2023 2023 2023 2023 2023 2023 2023 2023 
2023 2023 2023 2023 2023 2023 2023 2023 2023 
2023 2023 2023 2023 2023 2023 2023 2023 2023 
2023 2023 2023 2023 2023 2023 2023 2023 2023 
2023 2023 2023 2023 2023 2023 2023 2023 2023 
2023 2023 2023 2023 2023 2023 2023 2023 2023 
2023 2023 2023 2023 2023 2023 2023 2023 2023 
2023 2023 2023 2023 2023 2023 2023 2023 2023 
2023 2023 2023 2023 2023 2023 2023 2023 2023 
2023 2023 2023 2023 2023 2023 2023 2023 2023 
2023 2023 2023 2023 2023 2023 2023 2023 2023 
2023 2023 2023 2023 2023 2023 2023 2023 2023 
2023 2023 2023 2023 2023 2023 2023 2023 2023 
2023 2023 2023 2023 2023 2023 2023 2023 2023 
2023 2023 2023 2023 2023 2023 2023 2023 2023 
2023 2023 2023 2023 2023 2023 2023 2023 2023 
2023 2023 2023 2023 2023 2023 2023 2023 2023 
2023 2023 2023 2023 2023 2023 2023 2023 2023 
2023 2023 2023 2023 2023 2023 2023 2023 2023 
2023 2023 2023 2023 2023 2023 2023 2023 2023 
2023 2023 2023 2023 2023 2023 2023 2023 2023 
2023 2023 2023 2023 2023 2023 2023 2023 2023 
2023 2023 2023 2023 2023 2023 2023 2023 2023 
2023 2023 2023 2023 2023 2023 2023 2023 2023 
2023 2023 2023 2023 2023 2023 2023 2023 2023 
2023 2023 2023 2023 2023 2023 2023 2023 2023 
2023 2023 2023 2023 2023 2023 2023 2023 2023 
2023 2023 2023 2023 2023 2023 2023 2023 2023 
2023 2023 2023 2023 2023 2023 2023 2023 2023 
2023 2023 2023 2023 2023 2023 2023 2023 2023 
2023 2023 2023 2023 2023 2023 2023 2023 2023 
2023 2023 2023 2023 2023 2023 2023 2023 2023 
2023 2023 2023 2023 2023 2023 2023 2023 2023 
2023 2023 2023 2023 2023 2023 2023 2023 2023 
2023 2023 2023 2023 2023 2023 2023 2023 2023 
2023 2023 2023 2023 2023 2023 2023 2023 2023 
2023 2023 2023 2023 2023 2023 2023 2023 2023 
2023 2023 2023 2023 2023 2023 2023 2023 2023 
2023 2023 2023 2023 2023 2023 2023 2023 2023 
2023 2023 2023 2023 2023 2023 2023 2023 2023 
2023 2023 2023 2023 2023 2023 2023 2023 2023 
2023 2023 2023 2023 2023 2023 2023 2023 2023 
2023 2023 2023 2023 2023 2023 2023 2023 2023 
2023 2023 2023 2023 2023 2023 2023 2023 2023 
2023 2023 2023 2023 2023 2023 2023 2023 2023 
2023 2023 2023 2023 2023 2023 2023 2023 2023 
2023 2023 2023 2023 2023 2023 2023 2023 2023 
2023 2023 2023 2023 2023 2023 2023 2023 2023 
2023 2023 2023 2023 2023 2023 2023 2023 2023 
2023 2023 2023 2023 2023 2023 2023 2023 2023 
2023 2023 2023 2023 2023 2023 2023 2023 2023 
2023 2023 2023 2023 2023 2023 2023 2023 2023 
2023 2023 2023 2023 2023 2023 2023 2023 2023 
2023 2023 2023 2023 2023 2023 2023 2023 2023 
2023 2023 2023 2023 2023 2023 2023 2023 2023 
2023 2023 2023 2023 2023 2023 2023 2023 2023 
2023 2023 2023 2023 2023 2023 2023 2023 2023 
2023 2023 2023 2023 2023 2023 2023 2023 2023 
2023 2023 2023 2023 2023 2023 2023 2023 2023 
2023 2023 2023 2023 2023 2023 2023 2023 2023 
2023 2023 2023 2023 2023 2023 2023 2023 2023 
2023 2023 2023 2023 2023 2023 2023 2023 2023 
2023 2023 2023 2023 2023 2023 2023 2023 2023 
2023 2023 2023 2023 2023 2023 2023 2023 2023 
2023 2023 2023 2023 2023 2023 2023 2023 2023 
2023 2023 2023 2023 2023 2023 2023 2023 2023 
2023 2023 2023 2023 2023 2023 2023 2023 2023 
2023 2023 2023 2023 2023 2023 2023 2023 2023 
2023 2023 2023 2023 2023 2023 2023 2023 2023 
2023 2023 2023 2023 2023 2023 2023 2023 2023 
2023 2023 2023 2023 2023 2023 2023 2023 2023 
2023 2023 2023 2023 2023 2023 2023 2023 2023 
2023 2023 2023 2023 2023 2023 2023 2023 2023 
2023 2023 2023 2023 2023 2023 2023 2023 2023 
2023 2023 2023 2023 2023 2023 2023 2023 2023 
2023 2023 2023 2023 2023 2023 2023 2023 2023 
2023 2023 2023 2023 2023 2023 2023 2023 2023 
2023 2023 2023 2023 2023 2023 2023 2023 2023 
2023 2023 2023 2023 2023 2023 2023 2023 2023 
2023 2023 2023 2023 2023 2023 2023 2023 2023 
2023 2023 2023 2023 2023 2023 2023 2023 2023 
2023 2023 2023 2023 2023 2023 2023 2023 2023 
2023 2023 2023 2023 2023 2023 2023 2023 2023 
2023 2023 2023 2023 2023 2023 2023 2023 2023 
2023 2023 2023 2023 2023 2023 2023 2023 2023 
2023 2023 2023 2023 2023 2023 2023 2023 2023 
2023 2023 2023 2023 2023 2023 2023 2023 2023 
2023 2023 2023 2023 2023 2023 2023 2023 2023 
2023 2023 2023 2023 2023 2023 2023 2023 2023 
2023 2023 2023 2023 2023 2023 2023 2023 2023 
2023 2023 2023 2023 2023 2023 2023 2023 2023 
2023 2023 2023 2023 2023 2023 2023 2023 2023 
2023 2023 2023 2023 2023 2023 2023 2023 2023 
2023 2023 2023 2023 2023 2023 2023 2023 2023 
2023 2023 2023 2023 2023 2023 2023 2023 2023 
2023 2023 2023 2023 2023 2023 2023 2023 2023 
2023 2023 2023 2023 2023 2023 2023 2023 2023 
2023 2023 2023 2023 2023 2023 2023 2023 2023 
2023 2023 2023 2023 2023 2023 2023 2023 2023 
2023 2023 2023 2023 2023 2023 2023 2023 2023 
2023 2023 2023 2023 2023 2023 2023 2023 2023 
2023 2023 2023 2023 2023 2023 2023 2023 2023 
2023 2023 2023 2023 2023 2023 2023 2023 2023 
2023 2023 2023 2023 2023 2023 2023 2023 2023 
2023 2023 2023 2023 2023 2023 2023 2023 2023 
2023 2023 2023 2023 2023 2023 2023 2023 2023 
2023 2023 2023 2023 2023 2023 2023 2023 2023 
2023 2023 2023 2023 2023 2023 2023 2023 2023 
2023 2023 2023 2023 2023 2023 2023 2023 2023 
2023 2023 2023 2023 2023 2023 2023 2023 2023 
2023 2023 2023 2023 2023 2023 2023 2023 2023 
2023 2023 2023 2023 2023 2023 2023 2023 2023 
2023 2023 2023 2023 2023 2023 2023 2023 2023 
2023 2023 2023 2023 2023 2023 2023 2023 2023 
2023 2023 2023 2023 2023 2023 2023 2023 2023 
2023 2023 2023 2023 2023 2023 2023 2023 2023 
2023 2023 2023 2023 2023 2023 2023 2023 2023 
2023 2023 2023 2023 2023 2023 2023 2023 2023 
2023 2023 2023 2023 2023 2023 2023 2023 2023 
2023 2023 2023 2023 2023 2023 2023 2023 2023 
2023 2023 2023 2023 2023 2023 2023 2023 2023 
2023 2023 2023 2023 2023 2023 2023 2023 2023 
2023 2023 2023 2023 2023 2023 2023 2023 2023 
2023 2023 2023 2023 2023 2023 2023 2023 2023 
2023 2023 2023 2023 2023 2023 2023 2023 2023 
2023 2023 2023 2023 2023 2023 2023 2023 2023 
2023 2023 2023 2023 2023 2023 2023 2023 2023 
2023 2023 2023 2023 2023 2023 2023 2023 2023 
2023 2023 2023 2023 2023 2023 2023 2023 2023 
2023 2023 2023 2023 2023 2023 2023 2023 2023 
2023 2023 2023 2023 2023 2023 2023 2023 2023 
2023 2023 2023 2023 2023 2023 2023 2023 2023 
2023 2023 2023 2023 2023 2023 2023 2023 2023 
2023 2023 2023 2023 2023 2023 2023 2023 2023 
2023 2023 2023 2023 2023 2023 2023 2023 2023 
2023 2023 2023 2023 2023 2023 2023 2023 2023 
2023 2023 2023 2023 2023 2023 2023 2023 2023 
2023 2023 2023 2023 2023 2023 2023 2023 2023 
2023 2023 2023 2023 2023 2023 2023 2023 2023 
2023 2023 2023 2023 2023 2023 2023 2023 2023 
2023 2023 2023 2023 2023 2023 2023 2023 2023 
2023 2023 2023 2023 2023 2023 2023 2023 2023 
2023 2023 2023 2023 2023 2023 2023 2023 2023 
2023 2023 2023 2023 2023 2023 2023 2023 2023 
2023 2023 2023 2023 2023 2023 2023 2023 2023 
2023 2023 2023 2023 2023 2023 2023 2023 2023 
2023 2023 2023 2023 2023 2023 2023 2023 2023 
2023 2023 2023 2023 2023 2023 2023 2023 2023 
2023 2023 2023 2023 2023 2023 2023 2023 2023 
2023 2023 2023 2023 2023 2023 2023 2023 2023 
2023 2023 2023 2023 2023 2023 2023 2023 2023 
2023 2023 2023 2023 2023 2023 2023 2023 2023 
2023 2023 2023 2023 2023 2023 2023 2023 2023 
2023 2023 2023 2023 2023 2023 2023 2023 2023 
2023 2023 2023 2023 2023 2023 2023 2023 2023 
2023 2023 2023 2023 2023 2023 2023 2023 2023 
2023 2023 2023 2023 2023 2023 2023 2023 2023 
2023 2023 2023 2023 2023 2023 2023 2023 2023 
2023 2023 2023 2023 2023 2023 2023 2023 2023 
2023 2023 2023 2023 2023 2023 2023 2023 2023 
2023 2023 2023 2023 2023 2023 2023 2023 2023 
2023 2023 2023 2023 2023 2023 2023 2023 2023 
2023 2023 2023 2023 2023 2023 2023 2023 2023 
2023 2023 2023 2023 2023 2023 2023 2023 2023 
2023 2023 2023 2023 2023 2023 2023 2023 2023 
2023 2023 2023 2023 2023 2023 2023 2023 2023 
2023 2023 2023 2023 2023 2023 2023 2023 2023 
2023 2023 2023 2023 2023 2023 2023 2023 2023 
2023 2023 2023 2023 2023 2023 2023 2023 2023 
2023 2023 2023 2023 2023 2023 2023 2023 2023 
2023 2023 2023 2023 2023 2023 2023 2023 2023 
2023 2023 2023 2023 2023 2023 2023 2023 2023 
2023 2023 2023 2023 2023 2023 2023 2023 2023 
2023 2023 2023 2023 2023 2023 2023 2023 2023 
2023 2023 2023 2023 2023 2023 2023 2023 2023 
2023 2023 2023 2023 2023 2023 2023 2023 2023 
2023 2023 2023 2023 2023 2023 2023 2023 2023 
2023 2023 2023 2023 2023 2023 2023 2023 2023 
2023 2023 2023 2023 2023 2023 2023 2023 2023 
2023 2023 2023 2023 2023 2023 2023 2023 2023 
2023 2023 2023 2023 2023 2023 2023 2023 2023 
2023 2023 2023 2023 2023 2023 2023 2023 2023 
2023 2023 2023 2023 2023 2023 2023 2023 2023 
2023 2023 2023 2023 2023 2023 2023 2023 2023 
2023 2023 2023 2023 2023 2023 2023 2023 2023 
2023 2023 2023 2023 2023 2023 2023 2023 2023 
2023 2023 2023 2023 2023 2023 2023 2023 2023 
2023 2023 2023 2023 2023 2023 2023 2023 2023 
2023 2023 2023 2023 2023 2023 2023 2023 2023 
2023 2023 2023 2023 2023 2023 2023 2023 2023 
2023 2023 2023 2023 2023 2023 2023 2023 2023 
2023 2023 2023 2023 2023 2023 2023 2023 2023 
2023 2023 2023 2023 2023 2023 2023 2023 2023 
2023 2023 2023 2023 2023 2023 2023 2023 2023 
2023 2023 2023 2023 2023 2023 2023 2023 2023 
2023 2023 2023 2023 2023 2023 2023 2023 2023 
2023 2023 2023 2023 2023 2023 2023 2023 2023 
2023 2023 2023 2023 2023 2023 2023 2023 2023 
2023 2023 2023 2023 2023 2023 2023 2023 2023 
2023 2023 2023 2023 2023 2023 2023 2023 2023 
2023 2023 2023 2023 2023 2023 2023 2023 2023 
2023 2023 2023 2023 2023 2023 2023 2023 2023 
2023 2023 2023 2023 2023 2023 2023 2023 2023 
2023 2023 2023 2023 2023 2023 2023 2023 2023 
2023 2023 2023 2023 2023 2023 2023 2023 2023 
2023 2023 2023 2023 2023 2023 2023 2023 2023 
2023 2023 2023 2023 2023 2023 2023 2023 2023 
2023 2023 2023 2023 2023 2023 2023 2023 2023 
2023 2023 2023 2023 2023 2023 2023 2023 2023 
2023 2023 2023 2023 2023 2023 2023 2023 2023 
2023 2023 2023 2023 2023 2023 2023 2023 2023 
2023 2023 2023 2023 2023 2023 2023 2023 2023 
2023 2023 2023 2023 2023 2023 2023 2023 2023 
2023 2023 2023 2023 2023 2023 2023 2023 2023 
2023 2023 2023 2023 2023 2023 2023 2023 2023 
2023 2023 2023 2023 2023 2023 2023 2023 2023 
2023 2023 2023 2023 2023 2023 2023 2023 2023 
2023 2023 2023 2023 2023 2023 2023 2023 2023 
2023 2023 2023 2023 2023 2023 2023 2023 2023 
2023 2023 2023 2023 2023 2023 2023 2023 2023 
2023 2023 2023 2023 2023 2023 2023 2023 2023 
2023 2023 2023 2023 2023 2023 2023 2023 2023 
2023 2023 2023 2023 2023 2023 2023 2023 2023 
2023 2023 2023 2023 2023 2023 2023 2023 2023 
2023 2023 2023 2023 2023 2023 2023 2023 2023 