# vtk DataFile Version 4.2
vtk output
ASCII
DATASET POLYDATA
POINTS 14328 float
-2.6238 -12.3137 52.5529 -2.7557 -12.7639 52.7187 -2.42913 -12.5057 52.4921 
-3.06993 -12.5948 52.6197 -2.5887 -12.6187 52.1967 -3.72394 -12.3605 50.4062 
-3.53927 -12.5183 50.6721 -3.26425 -12.607 50.3382 -3.95879 -12.5121 50.5636 
-3.68801 -12.7145 50.1898 -4.84376 -12.6782 49.8402 -4.48338 -12.684 49.4425 
-4.68256 -12.3337 49.3917 -5.07742 -12.5776 49.4567 -4.93539 -12.6982 49.1359 
-2.87368 -13.5759 52.7084 -2.30651 -13.2712 52.315 -3.76694 -12.9288 52.2583 
-3.62681 -13.4468 52.9137 -4.73832 -13.2451 52.2982 -4.50833 -13.45 52.7764 
-5.00051 -13.718 52.5498 -1.94905 -13.1416 51.5379 -1.70338 -13.7219 52.0349 
-1.34387 -13.8047 51.3316 -2.81401 -12.8431 51.5827 -3.72823 -12.7971 51.1639 
-4.59072 -13.0952 51.4958 -5.24527 -13.6782 51.8406 -1.9467 -13.6964 50.7998 
-2.29041 -13.4445 50.4414 -2.63644 -12.9854 50.7663 -4.32576 -12.902 50.3077 
-5.23054 -13.3374 50.7059 -2.89745 -13.1852 50.2042 -3.75478 -13.614 50.1022 
-4.34515 -13.4518 49.5753 -5.52835 -13.04 49.3126 -5.52036 -13.1783 49.849 
-5.99617 -13.5729 49.5334 -4.82066 -13.3853 49.0721 -5.74601 -13.6093 49.0555 
-2.9675 -14.343 53.4367 -2.83104 -14.7973 53.8167 -2.50773 -14.667 53.3451 
-3.71404 -14.1669 53.3509 -3.43591 -14.4757 53.802 -4.12509 -14.786 53.5427 
-1.82864 -14.2521 52.3916 -1.76025 -14.7871 52.6317 -1.33347 -14.3 52.1769 
-2.68047 -14.505 53.0213 -2.68157 -13.977 52.4676 -2.14854 -14.5432 52.4951 
-2.98994 -14.2098 52.8125 -4.68274 -14.3251 53.0248 -5.35327 -14.4311 52.4666 
-0.993681 -14.7355 51.433 -2.35356 -14.2113 52.3507 -5.86139 -14.4837 52.0174 
-5.97508 -13.9774 51.26 -6.68525 -14.2282 51.2534 -6.45785 -14.4745 51.7443 
-6.95638 -14.7039 51.5276 -1.54379 -14.0531 50.6211 -1.25934 -14.4104 50.7058 
-2.01482 -14.3512 50.5436 -2.76941 -14.6582 50.7887 -2.80165 -13.8994 50.4967 
-3.6108 -14.7048 50.8328 -3.55556 -14.1331 50.4901 -4.19602 -14.5374 50.514 
-6.01752 -13.7766 50.2455 -6.62693 -14.136 50.4586 -7.22486 -14.6592 50.7888 
-1.57222 -14.6841 50.1517 -2.89291 -14.7594 49.9432 -2.28028 -14.5249 49.265 
-2.78252 -14.3071 49.2682 -3.23426 -14.6262 49.4914 -4.7155 -14.5312 49.9644 
-4.82074 -14.0675 49.3129 -5.27861 -14.6842 49.475 -6.47271 -14.0358 49.5448 
-7.1806 -14.611 49.5424 -2.34467 -14.5045 48.3584 -2.61455 -14.2536 48.6934 
-3.14202 -14.4247 48.7723 -5.64409 -14.3818 49.0435 -6.46592 -14.4092 49.0571 
-2.85177 -14.48 48.1807 -0.697075 -14.2741 42.4935 -0.3891 -14.6613 42.7382 
-0.320128 -14.5936 42.251 -1.08974 -14.5875 42.7223 -4.74744 -14.3518 42.4516 
-4.72071 -14.7594 42.9148 -4.5062 -14.5203 42.4282 -5.13889 -14.5807 42.4844 
-1.00432 -14.6306 42.2356 -4.66882 -14.6174 42.0871 -10.7437 -15.2502 70.2927 
-10.5827 -15.6187 70.9604 -10.3467 -15.5794 70.433 -11.012 -15.5114 70.6027 
-10.6002 -15.1393 69.3737 -10.0933 -15.5783 69.5667 -11.2182 -15.4167 69.7144 
-10.0191 -15.155 68.5814 -9.68867 -15.8032 68.9261 -9.47827 -15.5187 68.491 
-10.7177 -15.0591 68.2704 -11.255 -15.5096 68.5053 -9.6268 -15.5305 67.9084 
-10.1092 -15.432 67.0792 -10.5405 -15.1453 67.4667 -11.0818 -15.3882 67.5542 
-10.689 -15.2797 66.6056 -10.3292 -15.6609 66.2704 -11.0653 -15.5673 66.7339 
-10.8612 -15.7431 66.193 -8.93679 -15.2667 64.544 -8.68447 -15.6021 64.9654 
-8.42859 -15.8138 64.3593 -9.4741 -15.2553 64.362 -9.34738 -15.4265 64.9086 
-9.9992 -15.7958 64.5451 -9.08282 -15.4496 64.031 -9.74082 -15.5922 63.9362 
-9.05424 -15.1359 62.3206 -8.67945 -15.6259 63.0133 -8.3888 -15.5931 62.4193 
-9.75168 -15.1723 62.1988 -9.37537 -15.4629 62.9017 -10.0501 -15.7093 62.6475 
-8.82225 -15.031 61.4813 -8.29098 -15.5871 61.4711 -9.60579 -15.0154 61.4117 
-10.1565 -15.5753 61.6843 -8.68085 -15.1532 60.7297 -8.33955 -15.7853 60.3938 
-9.3581 -15.0693 60.5556 -10.0663 -15.6477 60.5863 -9.017 -15.4059 60.0017 
-9.7014 -15.5467 59.8954 2.20387 -15.2208 56.1968 2.52337 -15.5651 56.7705 
2.96204 -15.3954 56.3753 1.89318 -15.5827 56.6938 -9.70331 -15.3373 56.4216 
-9.56345 -15.4844 56.6745 -9.40871 -15.4442 56.4174 -9.95328 -15.5118 56.5821 
2.99505 -15.1386 55.5649 3.38773 -15.4426 56.0443 3.7635 -15.5053 55.3398 
2.09846 -14.953 55.3466 1.38644 -15.4147 56.2164 1.15467 -15.0793 55.472 
0.256734 -15.2305 55.2411 0.615367 -15.4887 55.9433 -0.0738987 -15.5715 55.5424 
-9.60181 -15.6401 56.1905 3.1888 -15.0611 54.4593 3.8859 -15.4324 54.1473 
2.30718 -14.916 54.498 1.29869 -14.912 54.4751 0.374636 -15.0936 54.473 
-0.269245 -15.4683 54.6945 3.21623 -15.0498 53.4082 3.87173 -15.6243 53.0986 
2.49429 -14.9111 53.6209 1.58343 -15.034 53.391 0.595206 -15.1413 53.5698 
-0.236932 -15.6909 53.5372 -2.95528 -15.6955 53.807 -2.40006 -15.2594 53.4365 
-3.53457 -15.2166 53.8867 -4.22125 -15.7795 53.5073 3.31763 -15.1704 52.6394 
3.58775 -15.6654 52.3835 2.49889 -15.1108 52.6577 1.66269 -15.6303 52.3797 
0.951965 -15.4639 52.8678 0.288989 -15.6596 52.9373 -1.92928 -15.7678 52.9488 
-1.15073 -15.4137 52.2352 -2.36667 -14.8012 52.8045 -4.87475 -15.5377 53.1343 
-5.90226 -15.1067 52.4309 -5.63244 -15.4684 52.8026 -6.3253 -15.7104 52.5761 
3.08408 -15.4207 52.1511 2.47091 -15.7092 51.9221 -0.69663 -15.2918 51.6669 
-0.728083 -15.7074 51.7498 -0.548108 -15.56 51.4936 -6.73057 -15.4291 52.1054 
-7.34864 -15.4 51.4892 -0.700116 -15.3622 51.236 -1.02214 -15.4308 50.6038 
-2.36924 -14.7809 50.2275 -3.2156 -15.2873 50.5779 -3.85244 -15.6468 50.9067 
-4.4831 -15.3787 50.8743 -4.74369 -15.0461 50.5471 -5.11038 -15.7093 50.4838 
-7.81851 -15.6068 51.0213 -7.89674 -14.9948 50.1467 -8.27249 -15.6025 50.6083 
-1.02158 -15.1032 49.4169 -0.726712 -15.8828 49.8338 -0.426698 -15.4852 49.1598 
-1.73479 -14.8033 49.5204 -3.70538 -15.0359 49.1569 -3.54172 -15.2698 49.9958 
-4.0271 -15.8168 49.7175 -5.52939 -15.3675 49.842 -5.88084 -15.1065 49.3463 
-6.16748 -15.8417 49.456 -7.97108 -14.8591 49.252 -8.53331 -15.3762 50.0955 
-8.56442 -15.139 49.3725 -9.05315 -15.741 49.5994 -0.773426 -15.1547 48.488 
-0.227054 -15.6225 48.6626 -1.67659 -14.8263 48.5416 -3.56491 -14.9275 48.1443 
-4.10229 -15.6609 48.7344 -6.66544 -15.2048 48.9612 -7.60778 -15.0893 48.6656 
-7.24435 -15.819 48.2405 -8.39759 -15.1339 48.5462 -9.06363 -15.758 48.498 
-10.7905 -15.2434 48.2482 -10.6603 -15.6239 48.9156 -10.4366 -15.5737 48.3695 
-11.0809 -15.7056 48.6235 -0.538623 -15.595 47.9355 -1.16889 -15.5018 47.4338 
-1.45571 -15.166 47.7051 -2.66804 -14.9514 47.5451 -3.71306 -15.1124 47.2734 
-4.25061 -15.6393 47.7293 -8.03059 -15.4673 47.9409 -8.63103 -15.4556 47.975 
-10.6042 -15.1171 47.3317 -10.0857 -15.5141 47.4947 -11.2294 -15.59 47.7205 
-0.71956 -15.2998 46.2935 -0.635259 -15.4779 46.6594 -0.411273 -15.5556 46.2059 
-1.77346 -15.6476 47.0611 -0.824436 -15.6359 46.405 -2.81584 -15.4057 46.802 
-3.17173 -15.4752 46.1364 -3.56574 -15.1957 46.5051 -4.23543 -15.4594 46.6973 
-9.95716 -15.1738 46.6713 -9.50605 -15.6632 46.9035 -9.52025 -15.6511 46.3332 
-10.469 -15.1114 46.4068 -11.2376 -15.597 46.4718 -0.56512 -15.3231 45.7091 
-0.356779 -15.7165 45.4723 -0.994156 -15.6953 45.5176 -3.89385 -15.2081 45.3878 
-3.23326 -15.478 45.1774 -4.28208 -15.4588 45.7749 -9.95405 -15.3984 46.1259 
-10.5698 -15.6443 45.8697 -0.593703 -15.5899 45.2331 -3.84616 -15.0926 44.4433 
-3.2634 -15.6853 44.1341 -4.7704 -15.6448 45.0696 -4.5766 -15.1611 44.4189 
-5.22248 -15.633 44.4184 -1.79351 -15.2038 43.1733 -1.7242 -15.5449 43.6719 
-1.46895 -15.7651 43.3636 -2.0119 -15.6674 43.4931 -3.89778 -15.1505 43.4506 
-3.49653 -15.6889 43.3423 -4.46068 -14.9529 43.7407 -5.22968 -15.3329 43.6722 
0.217516 -14.8964 42.4351 0.436184 -15.561 42.8304 0.710801 -15.3736 42.217 
-0.685307 -15.5928 42.9243 -1.68184 -14.8263 42.4995 -2.65838 -15.7103 42.9411 
-2.47632 -15.254 42.5078 -3.71542 -15.469 42.9379 -3.07981 -15.5371 42.4485 
-4.05382 -15.1003 42.425 -5.53889 -14.9565 42.0786 -5.55802 -15.164 42.8686 
-6.06891 -15.7013 42.6607 0.249404 -15.17 41.7306 0.672149 -15.7001 41.6769 
-0.635311 -15.3421 41.9403 -0.0638593 -15.5867 41.5062 -1.7655 -15.4394 41.986 
-2.82801 -15.5652 42.0821 -3.68993 -15.4611 41.8969 -3.43814 -15.5956 41.5518 
-3.97922 -15.1606 41.6146 -4.74252 -14.9865 41.4595 -5.51949 -15.1221 41.408 
-6.06116 -15.5782 41.7524 0.351254 -15.5332 41.2863 -3.77761 -15.7542 40.9885 
-4.97684 -15.5688 41.0384 -5.75718 -15.6729 41.1581 -10.6731 -16.3215 76.548 
-10.7175 -16.7462 76.8224 -10.4039 -16.6852 76.2644 -11.1996 -16.7297 76.4556 
-10.7671 -16.5546 76.0779 -11.5848 -16.1754 73.2114 -11.5981 -16.6622 73.709 
-11.1747 -16.5709 73.3037 -11.9548 -16.6697 73.5494 -10.9996 -16.0992 72.5956 
-10.7367 -16.6116 72.8316 -10.4871 -16.3774 72.3163 -11.6882 -16.083 72.3868 
-12.2155 -16.5874 72.7956 -10.8277 -15.9437 71.4928 -10.3726 -16.4167 71.3664 
-11.5559 -16.0723 71.498 -12.2357 -16.5476 71.5568 -10.1825 -16.2839 70.3606 
-11.5886 -15.9449 70.3503 -12.0652 -16.46 70.6011 -10.0508 -16.519 69.6135 
-11.7614 -15.9716 69.1551 -12.1406 -16.6244 69.6697 -9.7035 -16.8029 68.9501 
-9.23788 -16.2306 68.371 -11.7133 -16.1556 68.2917 -12.0767 -16.6996 68.74 
-8.994 -16.1274 67.5168 -8.66947 -16.8662 67.9176 -8.40761 -16.5823 67.2484 
-9.54701 -15.7462 67.3826 -11.3906 -16.1821 67.4231 -11.7879 -16.8615 67.9713 
-8.83193 -16.1409 66.5285 -8.17052 -16.6233 66.389 -9.56977 -15.8261 66.7292 
-11.1316 -16.472 66.486 -8.7992 -15.9395 65.6051 -8.16347 -16.3365 65.2197 
-9.76367 -15.9032 65.6415 -10.6207 -16.5654 65.8807 -10.2803 -16.431 65.1935 
-8.00268 -16.5185 64.3352 -10.2993 -16.6794 64.6221 -8.81426 -15.7567 63.5605 
-8.1567 -16.269 63.3674 -9.59928 -15.7215 63.4109 -10.1757 -16.3651 63.6166 
-8.01849 -16.3467 62.2281 -10.3008 -16.4953 62.4539 -8.01147 -16.3451 61.1904 
-10.3122 -16.4955 61.4362 -7.97496 -16.475 60.2817 -10.2919 -16.6674 60.6109 
-8.83455 -15.8818 59.3935 -8.14121 -16.5193 59.3078 -9.59731 -15.916 59.298 
-10.1351 -16.4165 59.7081 -8.79896 -16.0897 58.4745 -8.26933 -16.495 58.3075 
-9.78453 -16.0623 58.4071 -10.235 -16.7201 58.5257 3.12556 -16.2155 57.499 
3.34098 -16.6476 57.9967 3.64302 -16.5991 57.4634 2.19175 -16.0033 57.265 
[...]
CELL_DATA 28708
SCALARS scalars float
LOOKUP_TABLE default
1025 1025 1025 1025 1025 1025 1025 1025 1025 
1025 1025 1025 1025 1025 1025 1025 1025 1025 
1025 1025 1025 1025 1025 1025 1025 1025 1025 
1025 1025 1025 1025 1025 1025 1025 1025 1025 
1025 1025 1025 1025 1025 1025 1025 1025 1025 
1025 1025 1025 1025 1025 1025 1025 1025 1025 
1025 1025 1025 1025 1025 1025 1025 1025 1025 
1025 1025 1025 1025 1025 1025 1025 1025 1025 
1025 1025 1025 1025 1025 1025 1025 1025 1025 
1025 1025 1025 1025 1025 1025 1025 1025 1025 
1025 1025 1025 1025 1025 1025 1025 1025 1025 
1025 1025 1025 1025 1025 1025 1025 1025 1025 
1025 1025 1025 1025 1025 1025 1025 1025 1025 
1025 1025 1025 1025 1025 1025 1025 1025 1025 
1025 1025 1025 1025 1025 1025 1025 1025 1025 
1025 1025 1025 1025 1025 1025 1025 1025 1025 
1025 1025 1025 1025 1025 1025 1025 1025 1025 
1025 1025 1025 1025 1025 1025 1025 1025 1025 
1025 1025 1025 1025 1025 1025 1025 1025 1025 
1025 1025 1025 1025 1025 1025 1025 1025 1025 
1025 1025 1025 1025 1025 1025 1025 1025 1025 
1025 1025 1025 1025 1025 1025 1025 1025 1025 
1025 1025 1025 1025 1025 1025 1025 1025 1025 
1025 1025 1025 1025 1025 1025 1025 1025 1025 
1025 1025 1025 1025 1025 1025 1025 1025 1025 
1025 1025 1025 1025 1025 1025 1025 1025 1025 
1025 1025 1025 1025 1025 1025 1025 1025 1025 
1025 1025 1025 1025 1025 1025 1025 1025 1025 
1025 1025 1025 1025 1025 1025 1025 1025 1025 
1025 1025 1025 1025 1025 1025 1025 1025 1025 
1025 1025 1025 1025 1025 1025 1025 1025 1025 
1025 1025 1025 1025 1025 1025 1025 1025 1025 
1025 1025 1025 1025 1025 1025 1025 1025 1025 
1025 1025 1025 1025 1025 1025 1025 1025 1025 
1025 1025 1025 1025 1025 1025 1025 1025 1025 
1025 1025 1025 1025 1025 1025 1025 1025 1025 
1025 1025 1025 1025 1025 1025 1025 1025 1025 
1025 1025 1025 1025 1025 1025 1025 1025 1025 
1025 1025 1025 1025 1025 1025 1025 1025 1025 
1025 1025 1025 1025 1025 1025 1025 1025 1025 
1025 1025 1025 1025 1025 1025 1025 1025 1025 
1025 1025 1025 1025 1025 1025 1025 1025 1025 
1025 1025 1025 1025 1025 1025 1025 1025 1025 
1025 1025 1025 1025 1025 1025 1025 1025 1025 
1025 1025 1025 1025 1025 1025 1025 1025 1025 
1025 1025 1025 1025 1025 1025 1025 1025 1025 
1025 1025 1025 1025 1025 1025 1025 1025 1025 
1025 1025 1025 1025 1025 1025 1025 1025 1025 
1025 1025 1025 1025 1025 1025 1025 1025 1025 
1025 1025 1025 1025 1025 1025 1025 1025 1025 
1025 1025 1025 1025 1025 1025 1025 1025 1025 
1025 1025 1025 1025 1025 1025 1025 1025 1025 
1025 1025 1025 1025 1025 1025 1025 1025 1025 
1025 1025 1025 1025 1025 1025 1025 1025 1025 
1025 1025 1025 1025 1025 1025 1025 1025 1025 
1025 1025 1025 1025 1025 1025 1025 1025 1025 
1025 1025 1025 1025 1025 1025 1025 1025 1025 
1025 1025 1025 1025 1025 1025 1025 1025 1025 
1025 1025 1025 1025 1025 1025 1025 1025 1025 
1025 1025 1025 1025 1025 1025 1025 1025 1025 
1025 1025 1025 1025 1025 1025 1025 1025 1025 
1025 1025 1025 1025 1025 1025 1025 1025 1025 
1025 1025 1025 1025 1025 1025 1025 1025 1025 
1025 1025 1025 1025 1025 1025 1025 1025 1025 
1025 1025 1025 1025 1025 1025 1025 1025 1025 
1025 1025 1025 1025 1025 1025 1025 1025 1025 
1025 1025 1025 1025 1025 1025 1025 1025 1025 
1025 1025 1025 1025 1025 1025 1025 1025 1025 
1025 1025 1025 1025 1025 1025 1025 1025 1025 
1025 1025 1025 1025 1025 1025 1025 1025 1025 
1025 1025 1025 1025 1025 1025 1025 1025 1025 
1025 1025 1025 1025 1025 1025 1025 1025 1025 
1025 1025 1025 1025 1025 1025 1025 1025 1025 
1025 1025 1025 1025 1025 1025 1025 1025 1025 
1025 1025 1025 1025 1025 1025 1025 1025 1025 
1025 1025 1025 1025 1025 1025 1025 1025 1025 
1025 1025 1025 1025 1025 1025 1025 1025 1025 
1025 1025 1025 1025 1025 1025 1025 1025 1025 
1025 1025 1025 1025 1025 1025 1025 1025 1025 
1025 1025 1025 1025 1025 1025 1025 1025 1025 
1025 1025 1025 1025 1025 1025 1025 1025 1025 
1025 1025 1025 1025 1025 1025 1025 1025 1025 
1025 1025 1025 1025 1025 1025 1025 1025 1025 
1025 1025 1025 1025 1025 1025 1025 1025 1025 
1025 1025 1025 1025 1025 1025 1025 1025 1025 
1025 1025 1025 1025 1025 1025 1025 1025 1025 
1025 1025 1025 1025 1025 1025 1025 1025 1025 
1025 1025 1025 1025 1025 1025 1025 1025 1025 
1025 1025 1025 1025 1025 1025 1025 1025 1025 
1025 1025 1025 1025 1025 1025 1025 1025 1025 
1025 1025 1025 1025 1025 1025 1025 1025 1025 
1025 1025 1025 1025 1025 1025 1025 1025 1025 
1025 1025 1025 1025 1025 1025 1025 1025 1025 
1025 1025 1025 1025 1025 1025 1025 1025 1025 
1025 1025 1025 1025 1025 1025 1025 1025 1025 
1025 1025 1025 1025 1025 1025 1025 1025 1025 
1025 1025 1025 1025 1025 1025 1025 1025 1025 
1025 1025 1025 1025 1025 1025 1025 1025 1025 
1025 1025 1025 1025 1025 1025 1025 1025 1025 
1025 1025 1025 1025 1025 1025 1025 1025 1025 
1025 1025 1025 1025 1025 1025 1025 1025 1025 
1025 1025 1025 1025 1025 1025 1025 1025 1025 
1025 1025 1025 1025 1025 1025 1025 1025 1025 
1025 1025 1025 1025 1025 1025 1025 1025 1025 
1025 1025 1025 1025 1025 1025 1025 1025 1025 
1025 1025 1025 1025 1025 1025 1025 1025 1025 
1025 1025 1025 1025 1025 1025 1025 1025 1025 
1025 1025 1025 1025 1025 1025 1025 1025 1025 
1025 1025 1025 1025 1025 1025 1025 1025 1025 
1025 1025 1025 1025 1025 1025 1025 1025 1025 
1025 1025 1025 1025 1025 1025 1025 1025 1025 
1025 1025 1025 1025 1025 1025 1025 1025 1025 
1025 1025 1025 1025 1025 1025 1025 1025 1025 
1025 1025 1025 1025 1025 1025 1025 1025 1025 
1025 1025 1025 1025 1025 1025 1025 1025 1025 
1025 1025 1025 1025 1025 1025 1025 1025 1025 
1025 1025 1025 1025 1025 1025 1025 1025 1025 
1025 1025 1025 1025 1025 1025 1025 1025 1025 
1025 1025 1025 1025 1025 1025 1025 1025 1025 
1025 1025 1025 1025 1025 1025 1025 1025 1025 
1025 1025 1025 1025 1025 1025 1025 1025 1025 
1025 1025 1025 1025 1025 1025 1025 1025 1025 
1025 1025 1025 1025 1025 1025 1025 1025 1025 
1025 1025 1025 1025 1025 1025 1025 1025 1025 
1025 1025 1025 1025 1025 1025 1025 1025 1025 
1025 1025 1025 1025 1025 1025 1025 1025 1025 
1025 1025 1025 1025 1025 1025 1025 1025 1025 
1025 1025 1025 1025 1025 1025 1025 1025 1025 
1025 1025 1025 1025 1025 1025 1025 1025 1025 
1025 1025 1025 1025 1025 1025 1025 1025 1025 
1025 1025 1025 1025 1025 1025 1025 1025 1025 
1025 1025 1025 1025 1025 1025 1025 1025 1025 
1025 1025 1025 1025 1025 1025 1025 1025 1025 
1025 1025 1025 1025 1025 1025 1025 1025 1025 
1025 1025 1025 1025 1025 1025 1025 1025 1025 
1025 1025 1025 1025 1025 1025 1025 1025 1025 
1025 1025 1025 1025 1025 1025 1025 1025 1025 
1025 1025 1025 1025 1025 1025 1025 1025 1025 
1025 1025 1025 1025 1025 1025 1025 1025 1025 
1025 1025 1025 1025 1025 1025 1025 1025 1025 
1025 1025 1025 1025 1025 1025 1025 1025 1025 
1025 1025 1025 1025 1025 1025 1025 1025 1025 
1025 1025 1025 1025 1025 1025 1025 1025 1025 
1025 1025 1025 1025 1025 1025 1025 1025 1025 
1025 1025 1025 1025 1025 1025 1025 1025 1025 
1025 1025 1025 1025 1025 1025 1025 1025 1025 
1025 1025 1025 1025 1025 1025 1025 1025 1025 
1025 1025 1025 1025 1025 1025 1025 1025 1025 
1025 1025 1025 1025 1025 1025 1025 1025 1025 
1025 1025 1025 1025 1025 1025 1025 1025 1025 
1025 1025 1025 1025 1025 1025 1025 1025 1025 
1025 1025 1025 1025 1025 1025 1025 1025 1025 
1025 1025 1025 1025 1025 1025 1025 1025 1025 
1025 1025 1025 1025 1025 1025 1025 1025 1025 
1025 1025 1025 1025 1025 1025 1025 1025 1025 
1025 1025 1025 1025 1025 1025 1025 1025 1025 
1025 1025 1025 1025 1025 1025 1025 1025 1025 
1025 1025 1025 1025 1025 1025 1025 1025 1025 
1025 1025 1025 1025 1025 1025 1025 1025 1025 
1025 1025 1025 1025 1025 1025 1025 1025 1025 
1025 1025 1025 1025 1025 1025 1025 1025 1025 
1025 1025 1025 1025 1025 1025 1025 1025 1025 
1025 1025 1025 1025 1025 1025 1025 1025 1025 
1025 1025 1025 1025 1025 1025 1025 1025 1025 
1025 1025 1025 1025 1025 1025 1025 1025 1025 
1025 1025 1025 1025 1025 1025 1025 1025 1025 
1025 1025 1025 1025 1025 1025 1025 1025 1025 
1025 1025 1025 1025 1025 1025 1025 1025 1025 
1025 1025 1025 1025 1025 1025 1025 1025 1025 
1025 1025 1025 1025 1025 1025 1025 1025 1025 
1025 1025 1025 1025 1025 1025 1025 1025 1025 
1025 1025 1025 1025 1025 1025 1025 1025 1025 
1025 1025 1025 1025 1025 1025 1025 1025 1025 
1025 1025 1025 1025 1025 1025 1025 1025 1025 
1025 1025 1025 1025 1025 1025 1025 1025 1025 
1025 1025 1025 1025 1025 1025 1025 1025 1025 
1025 1025 1025 1025 1025 1025 1025 1025 1025 
1025 1025 1025 1025 1025 1025 1025 1025 1025 
1025 1025 1025 1025 1025 1025 1025 1025 1025 
1025 1025 1025 1025 1025 1025 1025 1025 1025 
1025 1025 1025 1025 1025 1025 1025 1025 1025 
1025 1025 1025 1025 1025 1025 1025 1025 1025 
1025 1025 1025 1025 1025 1025 1025 1025 1025 
1025 1025 1025 1025 1025 1025 1025 1025 1025 
1025 1025 1025 1025 1025 1025 1025 1025 1025 
1025 1025 1025 1025 1025 1025 1025 1025 1025 
1025 1025 1025 1025 1025 1025 1025 1025 1025 
1025 1025 1025 1025 1025 1025 1025 1025 1025 
1025 1025 1025 1025 1025 1025 1025 1025 1025 
1025 1025 1025 1025 1025 1025 1025 1025 1025 
1025 1025 1025 1025 1025 1025 1025 1025 1025 
1025 1025 1025 1025 1025 1025 1025 1025 1025 
1025 1025 1025 1025 1025 1025 1025 1025 1025 
1025 1025 1025 1025 1025 1025 1025 1025 1025 
1025 1025 1025 1025 1025 1025 1025 1025 1025 
1025 1025 1025 1025 1025 1025 1025 1025 1025 
1025 1025 1025 1025 1025 1025 1025 1025 1025 
1025 1025 1025 1025 1025 1025 1025 1025 1025 
1025 1025 1025 1025 1025 1025 1025 1025 1025 
1025 1025 1025 1025 1025 1025 1025 1025 1025 
1025 1025 1025 1025 1025 1025 1025 1025 1025 
1025 1025 1025 1025 1025 1025 1025 1025 1025 
1025 1025 1025 1025 1025 1025 1025 1025 1025 
1025 1025 1025 1025 1025 1025 1025 1025 1025 
1025 1025 1025 1025 1025 1025 1025 1025 1025 
1025 1025 1025 1025 1025 1025 1025 1025 1025 
1025 1025 1025 1025 1025 1025 1025 1025 1025 
1025 1025 1025 1025 1025 1025 1025 1025 1025 
1025 1025 1025 1025 1025 1025 1025 1025 1025 
1025 1025 1025 1025 1025 1025 1025 1025 1025 
1025 1025 1025 1025 1025 1025 1025 1025 1025 
1025 1025 1025 1025 1025 1025 1025 1025 1025 
1025 1025 1025 1025 1025 1025 1025 1025 1025 
1025 1025 1025 1025 1025 1025 1025 1025 1025 
1025 1025 1025 1025 1025 1025 1025 1025 1025 
1025 1025 1025 1025 1025 1025 1025 1025 1025 
1025 1025 1025 1025 1025 1025 1025 1025 1025 
1025 1025 1025 1025 1025 1025 1025 1025 1025 
1025 1025 1025 1025 1025 1025 1025 1025 1025 
1025 1025 1025 1025 1025 1025 1025 1025 1025 
1025 1025 1025 1025 1025 1025 1025 1025 1025 
1025 1025 1025 1025 1025 1025 1025 1025 1025 
1025 1025 1025 1025 1025 1025 1025 1025 1025 
1025 1025 1025 1025 1025 1025 1025 1025 1025 
1025 1025 1025 1025 1025 1025 1025 1025 1025 
1025 1025 1025 1025 1025 1025 1025 1025 1025 
1025 1025 1025 1025 1025 1025 1025 1025 1025 
1025 1025 1025 1025 1025 1025 1025 1025 1025 
1025 1025 1025 1025 1025 1025 1025 1025 1025 
1025 1025 1025 1025 1025 1025 1025 1025 1025 
1025 1025 1025 1025 1025 1025 1025 1025 1025 
1025 1025 1025 1025 1025 1025 1025 1025 1025 
1025 1025 1025 1025 1025 1025 1025 1025 1025 
1025 1025 1025 1025 1025 1025 1025 1025 1025 
1025 1025 1025 1025 1025 1025 1025 1025 1025 
1025 1025 1025 1025 1025 1025 1025 1025 1025 
1025 1025 1025 1025 1025 1025 1025 1025 1025 
1025 1025 1025 1025 1025 1025 1025 1025 1025 
1025 1025 1025 1025 1025 1025 1025 1025 1025 
1025 1025 1025 1025 1025 1025 1025 1025 1025 
1025 1025 1025 1025 1025 1025 1025 1025 1025 
1025 1025 1025 1025 1025 1025 1025 1025 1025 
1025 1025 1025 1025 1025 1025 1025 1025 1025 
1025 1025 1025 1025 1025 1025 1025 1025 1025 
1025 1025 1025 1025 1025 1025 1025 1025 1025 
1025 1025 1025 1025 1025 1025 1025 1025 1025 
1025 1025 1025 1025 1025 1025 1025 1025 1025 
1025 1025 1025 1025 1025 1025 1025 1025 1025 
1025 1025 1025 1025 1025 1025 1025 1025 1025 
1025 1025 1025 1025 1025 1025 1025 1025 1025 
1025 1025 1025 1025 1025 1025 1025 1025 1025 
1025 1025 1025 1025 1025 1025 1025 1025 1025 
1025 1025 1025 1025 1025 1025 1025 1025 1025 
1025 1025 1025 1025 1025 1025 1025 1025 1025 
1025 1025 1025 1025 1025 1025 1025 1025 1025 
1025 1025 1025 1025 1025 1025 1025 1025 1025 
1025 1025 1025 1025 1025 1025 1025 1025 1025 
1025 1025 1025 1025 1025 1025 1025 1025 1025 
1025 1025 1025 1025 1025 1025 1025 1025 1025 
1025 1025 1025 1025 1025 1025 1025 1025 1025 
1025 1025 1025 1025 1025 1025 1025 1025 1025 
1025 1025 1025 1025 1025 1025 1025 1025 1025 
1025 1025 1025 1025 1025 1025 1025 1025 1025 
1025 1025 1025 1025 1025 1025 1025 1025 1025 
1025 1025 1025 1025 1025 1025 1025 1025 1025 
1025 1025 1025 1025 1025 1025 1025 1025 1025 
1025 1025 1025 1025 1025 1025 1025 1025 1025 
1025 1025 1025 1025 1025 1025 1025 1025 1025 
1025 1025 1025 1025 1025 1025 1025 1025 1025 
1025 1025 1025 1025 1025 1025 1025 1025 1025 
1025 1025 1025 1025 1025 1025 1025 1025 1025 
1025 1025 1025 1025 1025 1025 1025 1025 1025 
1025 1025 1025 1025 1025 1025 1025 1025 1025 
1025 1025 1025 1025 1025 1025 1025 1025 1025 
1025 1025 1025 1025 1025 1025 1025 1025 1025 
1025 1025 1025 1025 1025 1025 1025 1025 1025 
1025 1025 1025 1025 1025 1025 1025 1025 1025 
1025 1025 1025 1025 1025 1025 1025 1025 1025 
1025 1025 1025 1025 1025 1025 1025 1025 1025 
1025 1025 1025 1025 1025 1025 1025 1025 1025 
1025 1025 1025 1025 1025 1025 1025 1025 1025 
1025 1025 1025 1025 1025 1025 1025 1025 1025 
1025 1025 1025 1025 1025 1025 1025 1025 1025 
1025 1025 1025 1025 1025 1025 1025 1025 1025 
1025 1025 1025 1025 1025 1025 1025 1025 1025 
1025 1025 1025 1025 1025 1025 1025 1025 1025 
1025 1025 1025 1025 1025 1025 1025 1025 1025 
1025 1025 1025 1025 1025 1025 1025 1025 1025 
1025 1025 1025 1025 1025 1025 1025 1025 1025 
1025 1025 1025 1025 1025 1025 1025 1025 1025 
1025 1025 1025 1025 1025 1025 1025 1025 1025 
1025 1025 1025 1025 1025 1025 1025 1025 1025 
1025 1025 1025 1025 1025 1025 1025 1025 1025 
1025 1025 1025 1025 1025 1025 1025 1025 1025 
1025 1025 1025 1025 1025 1025 1025 1025 1025 
1025 1025 1025 1025 1025 1025 1025 1025 1025 
1025 1025 1025 1025 1025 1025 1025 1025 1025 
1025 1025 1025 1025 1025 1025 1025 1025 1025 
1025 1025 1025 1025 1025 1025 1025 1025 1025 
1025 1025 1025 1025 1025 1025 1025 1025 1025 
1025 1025 1025 1025 1025 1025 1025 1025 1025 
1025 1025 1025 1025 1025 1025 1025 1025 1025 
1025 1025 1025 1025 1025 1025 1025 1025 1025 
1025 1025 1025 1025 1025 1025 1025 1025 1025 
1025 1025 1025 1025 1025 1025 1025 1025 1025 
1025 1025 1025 1025 1025 1025 1025 1025 1025 
1025 1025 1025 1025 1025 1025 1025 1025 1025 
1025 1025 1025 1025 1025 1025 1025 1025 1025 
1025 1025 1025 1025 1025 1025 1025 1025 1025 
1025 1025 1025 1025 1025 1025 1025 1025 1025 
1025 1025 1025 1025 1025 1025 1025 1025 1025 
1025 1025 1025 1025 1025 1025 1025 1025 1025 
1025 1025 1025 1025 1025 1025 1025 1025 1025 
1025 1025 1025 1025 1025 1025 1025 1025 1025 
1025 1025 1025 1025 1025 1025 1025 1025 1025 
1025 1025 1025 1025 1025 1025 1025 1025 1025 
1025 1025 1025 1025 1025 1025 1025 1025 1025 
1025 1025 1025 1025 1025 1025 1025 1025 1025 
1025 1025 1025 1025 1025 1025 1025 1025 1025 
1025 1025 1025 1025 1025 1025 1025 1025 1025 
1025 1025 1025 1025 1025 1025 1025 1025 1025 
1025 1025 1025 1025 1025 1025 1025 1025 1025 
1025 1025 1025 1025 1025 1025 1025 1025 1025 
1025 1025 1025 1025 1025 1025 1025 1025 1025 
1025 1025 1025 1025 1025 1025 1025 1025 1025 
1025 1025 1025 1025 1025 1025 1025 1025 1025 
1025 1025 1025 1025 1025 1025 1025 1025 1025 
1025 1025 1025 1025 1025 1025 1025 1025 1025 
1025 1025 1025 1025 1025 1025 1025 1025 1025 
1025 1025 1025 1025 1025 1025 1025 1025 1025 
1025 1025 1025 1025 1025 1025 1025 1025 1025 
1025 1025 1025 1025 1025 1025 1025 1025 1025 
1025 1025 1025 1025 1025 1025 1025 1025 1025 
1025 1025 1025 1025 1025 1025 1025 1025 1025 
1025 1025 1025 1025 1025 1025 1025 1025 1025 
1025 1025 1025 1025 1025 1025 1025 1025 1025 
1025 1025 1025 1025 1025 1025 1025 1025 1025 
1025 1025 1025 1025 1025 1025 1025 1025 1025 
1025 1025 1025 1025 1025 1025 1025 1025 1025 
1025 1025 1025 1025 1025 1025 1025 1025 1025 
1025 1025 1025 1025 1025 1025 1025 1025 1025 
1025 1025 1025 1025 1025 1025 1025 1025 1025 
1025 1025 1025 1025 1025 1025 1025 1025 1025 
1025 1025 1025 1025 1025 1025 1025 1025 1025 
1025 1025 1025 1025 1025 1025 1025 1025 1025 
1025 1025 1025 1025 1025 1025 1025 1025 1025 
1025 1025 1025 1025 1025 1025 1025 1025 1025 
1025 1025 1025 1025 1025 1025 1025 1025 1025 
1025 1025 1025 1025 1025 1025 1025 1025 1025 
1025 1025 1025 1025 1025 1025 1025 1025 1025 
1025 1025 1025 1025 1025 1025 1025 1025 1025 
1025 1025 1025 1025 1025 1025 1025 1025 1025 
1025 1025 1025 1025 1025 1025 1025 1025 1025 
1025 1025 1025 1025 1025 1025 1025 1025 1025 
1025 1025 1025 1025 1025 1025 1025 1025 1025 
1025 1025 1025 1025 1025 1025 1025 1025 1025 
1025 1025 1025 1025 1025 1025 1025 1025 1025 
1025 1025 1025 1025 1025 1025 1025 1025 1025 
1025 1025 1025 1025 1025 1025 1025 1025 1025 
1025 1025 1025 1025 1025 1025 1025 1025 1025 
1025 1025 1025 1025 1025 1025 1025 1025 1025 
1025 1025 1025 1025 1025 1025 1025 1025 1025 
1025 1025 1025 1025 1025 1025 1025 1025 1025 
1025 1025 1025 1025 1025 1025 1025 1025 1025 
1025 1025 1025 1025 1025 1025 1025 1025 1025 
1025 1025 1025 1025 1025 1025 1025 1025 1025 
1025 1025 1025 1025 1025 1025 1025 1025 1025 
1025 1025 1025 1025 1025 1025 1025 1025 1025 
1025 1025 1025 1025 1025 1025 1025 1025 1025 
1025 1025 1025 1025 1025 1025 1025 1025 1025 
1025 1025 1025 1025 1025 1025 1025 1025 1025 
1025 1025 1025 1025 1025 1025 1025 1025 1025 
1025 1025 1025 1025 1025 1025 1025 1025 1025 
1025 1025 1025 1025 1025 1025 1025 1025 1025 
1025 1025 1025 1025 1025 1025 1025 1025 1025 
1025 1025 1025 1025 1025 1025 1025 1025 1025 
1025 1025 1025 1025 1025 1025 1025 1025 1025 
1025 1025 1025 1025 1025 1025 1025 1025 1025 
1025 1025 1025 1025 1025 1025 1025 1025 1025 
1025 1025 1025 1025 1025 1025 1025 1025 1025 
1025 1025 1025 1025 1025 1025 1025 1025 1025 
1025 1025 1025 1025 1025 1025 1025 1025 1025 
1025 1025 1025 1025 1025 1025 1025 1025 1025 
1025 1025 1025 1025 1025 1025 1025 1025 1025 
1025 1025 1025 1025 1025 1025 1025 1025 1025 
1025 1025 1025 1025 1025 1025 1025 1025 1025 
1025 1025 1025 1025 1025 1025 1025 1025 1025 
1025 1025 1025 1025 1025 1025 1025 1025 1025 
1025 1025 1025 1025 1025 1025 1025 1025 1025 
1025 1025 1025 1025 1025 1025 1025 1025 1025 
1025 1025 1025 1025 1025 1025 1025 1025 1025 
1025 1025 1025 1025 1025 1025 1025 1025 1025 
1025 1025 1025 1025 1025 1025 1025 1025 1025 
1025 1025 1025 1025 1025 1025 1025 1025 1025 
1025 1025 1025 1025 1025 1025 1025 1025 1025 
1025 1025 1025 1025 1025 1025 1025 1025 1025 
1025 1025 1025 1025 1025 1025 1025 1025 1025 
1025 1025 1025 1025 1025 1025 1025 1025 1025 
1025 1025 1025 1025 1025 1025 1025 1025 1025 
1025 1025 1025 1025 1025 1025 1025 1025 1025 
1025 1025 1025 1025 1025 1025 1025 1025 1025 
1025 1025 1025 1025 1025 1025 1025 1025 1025 
1025 1025 1025 1025 1025 1025 1025 1025 1025 
1025 1025 1025 1025 1025 1025 1025 1025 1025 
1025 1025 1025 1025 1025 1025 1025 1025 1025 
1025 1025 1025 1025 1025 1025 1025 1025 1025 
1025 1025 1025 1025 1025 1025 1025 1025 1025 
1025 1025 1025 1025 1025 1025 1025 1025 1025 
1025 1025 1025 1025 1025 1025 1025 1025 1025 
1025 1025 1025 1025 1025 1025 1025 1025 1025 
1025 1025 1025 1025 1025 1025 1025 1025 1025 
1025 1025 1025 1025 1025 1025 1025 1025 1025 
1025 1025 1025 1025 1025 1025 1025 1025 1025 
1025 1025 1025 1025 1025 1025 1025 1025 1025 
1025 1025 1025 1025 1025 1025 1025 1025 1025 
1025 1025 1025 1025 1025 1025 1025 1025 1025 
1025 1025 1025 1025 1025 1025 1025 1025 1025 
1025 1025 1025 1025 1025 1025 1025 1025 1025 
1025 1025 1025 1025 1025 1025 1025 1025 1025 
1025 1025 1025 1025 1025 1025 1025 1025 1025 
1025 1025 1025 1025 1025 1025 1025 1025 1025 
1025 1025 1025 1025 1025 1025 1025 1025 1025 
1025 1025 1025 1025 1025 1025 1025 1025 1025 
1025 1025 1025 1025 1025 1025 1025 1025 1025 
1025 1025 1025 1025 1025 1025 1025 1025 1025 
1025 1025 1025 1025 1025 1025 1025 1025 1025 
1025 1025 1025 1025 1025 1025 1025 1025 1025 
1025 1025 1025 1025 1025 1025 1025 1025 1025 
1025 1025 1025 1025 1025 1025 1025 1025 1025 
1025 1025 1025 1025 1025 1025 1025 1025 1025 
1025 1025 1025 1025 1025 1025 1025 1025 1025 
1025 1025 1025 1025 1025 1025 1025 1025 1025 
1025 1025 1025 1025 1025 1025 1025 1025 1025 