# vtk DataFile Version 4.2
vtk output
ASCII
DATASET POLYDATA
POINTS 13994 float
-13.232 71.4491 -6.32064 -13.4281 71.7318 -6.47414 -13.5261 71.2864 -6.44555 
-12.9104 71.4814 -6.76575 -13.1444 71.0273 -6.54868 -14.16 73.3458 -7.12087 
-14.3417 74.1324 -7.64197 -14.8816 73.4509 -7.73484 -12.9921 73.2758 -7.18122 
-13.591 73.8732 -7.58924 -12.768 73.3527 -7.55819 -15.0289 72.6328 -7.19725 
-15.3523 72.7458 -7.64151 -15.4992 72.4747 -7.48705 -14.3252 72.5427 -6.88658 
-13.3044 72.4059 -6.86707 -12.2886 72.9395 -7.43627 -12.3695 72.6587 -7.21775 
-12.0649 72.5004 -7.4817 -15.2023 72.121 -7.51339 -14.9206 71.2616 -7.72338 
-14.2426 71.6411 -6.88802 -12.4879 72.0032 -7.37574 -12.7892 71.1176 -7.6465 
-14.1885 70.5138 -7.11812 -14.5657 70.4328 -7.68791 -13.4433 70.49 -6.86995 
-12.8741 70.5752 -7.22288 -14.1138 69.9657 -7.43239 -13.6965 69.2409 -7.77737 
-13.5354 69.6793 -7.20179 -12.9297 69.5702 -7.64062 -13.1551 68.9785 -7.61404 
-14.1219 74.4692 -8.14731 -14.3034 74.7578 -8.58307 -14.5742 74.3164 -8.42388 
-14.0669 74.3924 -8.86696 -14.848 73.5889 -8.51866 -13.6772 73.6229 -8.38521 
-13.0976 73.2998 -7.9111 -15.4373 72.4584 -7.7568 -15.1191 72.5425 -8.29981 
-13.2155 72.655 -8.18246 -13.6212 72.4899 -8.69845 -12.5228 72.5907 -7.7671 
-15.392 71.9032 -8.92593 -15.579 71.3719 -8.74402 -15.3346 71.5916 -8.27267 
-13.0561 71.7602 -8.0892 -13.5002 71.675 -8.79352 -15.3179 71.0868 -8.41543 
-14.8675 70.4117 -8.64687 -13.1363 71.0912 -8.33069 -12.8424 70.5117 -8.39804 
-14.2953 69.8813 -8.14049 -14.0256 69.2102 -8.48414 -12.7474 69.5535 -8.64082 
-13.2014 68.3236 -8.00652 -13.7675 68.2973 -8.36092 -12.8345 68.6801 -8.40961 
-13.3616 67.2809 -8.13537 -13.9423 67.3601 -8.3518 -12.8519 67.6804 -8.57878 
-14.0281 66.5951 -8.101 -14.3789 67.0389 -8.58464 -14.5956 66.3825 -8.54387 
-13.513 66.1956 -8.09303 -12.9505 66.7279 -8.57393 -14.1838 65.534 -8.08358 
-14.6694 65.4378 -8.51799 -13.7111 65.4512 -8.38251 -13.2791 65.9799 -8.74549 
-14.375 64.6579 -8.20259 -14.6074 64.3692 -8.72494 -13.9749 64.6003 -8.61801 
-14.2194 63.9592 -8.54267 -14.3627 74.4975 -9.03398 -14.2229 74.039 -9.50475 
-14.6284 73.6686 -9.2514 -13.977 73.3535 -9.37466 -14.8583 72.6425 -9.49108 
-13.8255 72.3628 -9.34273 -15.1864 71.9578 -9.61073 -15.5511 71.4984 -9.31524 
-13.6076 71.9397 -9.71791 -13.2081 71.2539 -8.91063 -12.9453 71.5524 -9.61797 
-15.3796 71.0135 -9.16839 -14.9455 70.5824 -9.76026 -12.7376 70.464 -9.5096 
-14.4032 69.5565 -8.85146 -14.7168 69.5909 -9.59001 -12.7641 69.416 -9.51348 
-14.2891 68.7449 -9.03454 -14.6721 68.505 -9.69233 -12.7667 68.4256 -9.5156 
-14.3043 67.79 -8.91576 -14.7203 67.4096 -9.42726 -12.7609 67.438 -9.50027 
-14.928 66.3201 -9.56881 -12.971 66.5972 -9.43095 -14.7898 65.2862 -9.29002 
-13.6709 65.4393 -9.3551 -13.3502 66.1299 -9.5507 -14.7838 64.6016 -9.58868 
-13.8224 64.5994 -9.65319 -14.3981 63.2243 -8.94686 -14.9126 63.6386 -9.36712 
-13.9191 63.6756 -9.39326 -15.0422 62.6976 -9.16584 -15.407 63.0688 -9.59336 
-15.6156 62.3701 -9.7693 -14.4908 62.4029 -9.12877 -13.9625 62.5846 -9.68141 
-14.9644 61.9848 -9.39161 -14.29 61.9211 -9.56632 -14.363 73.3215 -9.81787 
-14.3801 72.3669 -9.85051 -13.2234 72.4088 -10.1494 -13.3347 72.7884 -10.7876 
-13.5539 72.4172 -10.4685 -12.9711 72.4847 -10.6289 -15.0191 71.4109 -9.89111 
-14.2753 71.6585 -10.1723 -13.8984 71.812 -10.6315 -12.6552 71.5855 -10.5815 
-14.4932 71.0424 -10.6812 -14.781 70.2504 -10.4065 -12.6435 70.3625 -10.5027 
-14.8116 69.4931 -10.5561 -12.7939 69.3128 -10.3773 -14.8304 68.5004 -10.5338 
-12.7889 68.4745 -10.5395 -14.9717 67.4608 -10.4465 -12.8977 67.3561 -10.6055 
-15.2719 66.6615 -10.241 -15.3503 66.9323 -10.853 -15.5761 66.2517 -10.7769 
-13.2211 66.6414 -10.108 -13.5262 66.2109 -10.2596 -13.2354 66.7568 -10.6973 
-15.2745 66.0478 -10.3501 -14.9757 65.2653 -10.4275 -13.6961 65.3494 -10.5264 
-14.94 64.2927 -10.3031 -13.803 64.308 -10.3581 -15.2629 63.6419 -10.0227 
-15.2891 63.9121 -10.8296 -15.6456 63.2352 -10.3047 -13.7864 63.4702 -10.499 
-15.8605 62.6492 -10.6262 -13.7696 62.6321 -10.6887 -15.4436 61.366 -9.82751 
-15.9332 61.6648 -10.4839 -14.5984 61.231 -9.96213 -13.9192 61.6495 -10.5417 
-15.9965 60.5724 -10.1658 -16.3324 60.9225 -10.8127 -16.5334 60.4557 -10.5322 
-15.1783 60.4114 -10.0454 -14.6102 60.3049 -10.5028 -14.1839 60.8333 -10.6421 
-16.3859 59.8819 -10.5209 -15.82 59.2164 -10.6621 -15.5569 59.6831 -10.2301 
-14.9843 59.6685 -10.4307 -17.3344 58.456 -10.3089 -17.3976 58.8993 -10.5646 
-17.5969 58.341 -10.7267 -16.927 58.4202 -10.6936 -15.2074 59.2173 -10.6923 
-17.2294 57.9997 -10.5365 -13.2181 72.7794 -11.3044 -13.5846 72.4362 -11.2094 
-12.8786 72.4226 -11.302 -13.7722 71.492 -11.6687 -12.585 71.9924 -11.7239 
-12.2577 71.1615 -11.1098 -11.9526 71.7057 -11.7833 -14.2692 70.842 -11.6154 
-14.6359 70.3469 -11.2024 -12.3298 70.4094 -11.1758 -11.9103 70.6419 -11.7558 
-14.6981 69.4075 -11.5225 -12.626 69.5661 -11.1928 -12.1993 69.931 -11.6658 
-14.8244 68.3745 -11.3535 -12.6679 68.5021 -11.4166 -14.9578 67.5266 -11.655 
-12.6708 67.5237 -11.6609 -15.2907 66.8272 -11.6168 -15.6015 66.4376 -11.2966 
-13.349 66.175 -11.0114 -12.9627 66.7226 -11.356 -15.4099 65.6345 -10.9505 
-15.5654 65.7722 -11.468 -13.4268 65.4368 -11.2706 -13.0026 65.7266 -11.7843 
-15.2474 65.2121 -11.3935 -14.9713 64.5957 -11.6001 -13.6435 64.5302 -11.2162 
-13.2628 64.9556 -11.7379 -15.2204 63.8382 -11.6314 -15.6378 63.2618 -11.3354 
-13.6527 63.4659 -11.3925 -15.8517 62.375 -11.3226 -13.6492 62.3492 -11.5236 
-15.9766 61.6186 -11.5163 -13.7506 61.4737 -11.4806 -16.328 60.9702 -11.7863 
-16.7782 60.3715 -11.1895 -14.2913 60.248 -11.0938 -13.9253 60.774 -11.462 
-16.9949 59.4503 -10.9134 -17.3113 59.9447 -11.7888 -17.6248 59.238 -11.2331 
-16.404 59.3463 -10.724 -14.7336 59.563 -11.1834 -14.269 59.98 -11.8552 
-17.9805 58.457 -11.5164 -16.231 58.7667 -11.0265 -15.3965 58.9029 -11.5285 
-15.8623 58.4299 -11.5811 -17.3735 57.5591 -10.9767 -17.8241 57.5491 -11.4339 
-16.9358 57.5789 -11.2117 -16.332 58.0193 -11.6398 -17.3548 57.1307 -11.7682 
-10.3206 42.4638 -11.3539 -10.4565 42.7203 -11.4812 -10.593 42.4499 -11.3885 
-10.002 42.5284 -11.8025 -11.2967 41.4482 -11.3191 -11.4773 41.7195 -11.4738 
-11.5887 41.3171 -11.4687 -10.3656 42.1229 -11.6157 -10.9179 41.4027 -11.7167 
-11.2048 41.0387 -11.5709 -12.1926 73.3817 -12.3956 -12.3056 73.732 -12.6014 
-12.4326 73.3839 -12.4879 -12.122 73.3652 -12.6509 -13.2374 72.2687 -11.7003 
-12.2507 72.6568 -12.133 -12.5059 72.6442 -12.4828 -11.9444 72.5684 -12.3529 
-13.148 71.6717 -12.097 -12.6951 71.7667 -12.5116 -11.8552 71.4553 -12.376 
-14.3311 70.1971 -11.9674 -13.8642 70.7488 -12.5111 -13.1421 71.1765 -12.8179 
-11.9487 70.4848 -12.6346 -14.3814 69.4279 -12.2078 -14.0117 69.6799 -12.7938 
-12.2794 69.1753 -11.9301 -11.8684 69.6755 -12.3869 -14.2495 68.9231 -12.7172 
-14.643 68.4569 -12.3362 -12.3099 68.2324 -12.0634 -11.7846 68.5652 -12.5919 
-14.8064 67.5665 -12.5311 -12.3711 67.4092 -12.2231 -12.0063 67.5708 -12.6818 
-15.341 66.134 -11.9699 -14.9472 66.7915 -12.5172 -12.6186 66.5609 -12.2116 
-12.2321 66.8796 -12.7028 -15.2384 65.3727 -11.9119 -14.9284 65.5707 -12.5811 
-12.6236 65.6271 -12.5228 -14.7935 64.6362 -12.7187 -13.3013 64.1824 -11.9544 
-12.7956 64.7669 -12.3759 -15.3391 63.3082 -12.0938 -14.9248 63.6772 -12.5984 
-13.3142 63.2172 -12.0481 -12.7868 63.5886 -12.6044 -15.1949 62.8677 -12.676 
-15.6344 62.4055 -12.2918 -13.352 62.3781 -12.2054 -12.9921 62.5821 -12.651 
-15.9361 61.4884 -12.3744 -13.6149 61.3951 -12.3011 -13.2141 61.8919 -12.6901 
-16.3003 60.9661 -12.7916 -16.8157 60.4892 -12.2741 -13.9332 60.4617 -12.3676 
-17.3295 60.0278 -12.7912 -17.8303 59.3346 -12.222 -14.7637 59.4147 -12.266 
-14.288 59.9488 -12.8115 -18.4204 58.416 -12.0655 -18.3021 58.8994 -12.7976 
-18.831 58.3083 -12.4559 -15.7749 58.4016 -12.2793 -15.2922 58.9376 -12.7848 
-19.0968 57.7386 -12.2046 -19.3546 57.8864 -12.7451 -19.5647 57.4747 -12.5259 
-18.4799 57.6016 -11.9259 -16.7818 57.3643 -12.2502 -16.2773 57.9014 -12.8084 
-19.1984 56.9868 -12.6822 -18.0504 57.0316 -12.4621 -17.2896 57.0327 -12.6868 
-9.24016 44.3922 -12.1291 -9.27966 45.0233 -12.6034 -9.77019 44.4961 -12.5978 
-8.57617 44.2532 -12.2212 -8.62992 44.9318 -12.426 -7.92183 44.4422 -12.7511 
-11.2574 43.416 -12.1595 -11.0536 43.7572 -12.7464 -11.8124 43.4141 -12.4001 
-10.1325 43.4669 -11.9772 -10.4141 44.0068 -12.6354 -9.20397 43.7819 -12.0746 
-8.71215 43.6703 -12.3816 -8.20415 43.9007 -12.6592 -12.1354 42.7694 -12.1466 
-12.2816 43.0005 -12.5372 -12.6612 42.2088 -12.5478 -11.0939 42.3704 -11.6982 
-9.34404 43.0581 -12.3594 -9.6684 42.2452 -12.5867 -5.27695 42.5496 -12.2894 
-5.31935 42.7112 -12.6374 -5.46075 42.5435 -12.4909 -5.02704 42.4396 -12.7411 
-12.1353 41.6241 -11.915 -12.7677 41.3019 -12.4763 -10.4703 41.6401 -11.9323 
-10.0221 41.749 -12.3051 -7.25906 41.3749 -12.3285 -7.2229 41.8008 -12.7674 
-7.56997 41.4203 -12.4416 -6.85284 41.4663 -12.6 -5.38407 42.0654 -12.6662 
-12.405 40.6976 -12.1888 -12.8395 40.6881 -12.657 -11.6344 40.6078 -11.9662 
-10.8684 40.474 -12.4001 -10.3514 41.0712 -12.6839 -7.3986 41.1582 -12.6446 
-12.3179 40.0073 -12.6092 -11.2983 39.8676 -12.5817 -12.3621 73.3673 -12.7432 
-12.2048 72.4083 -12.735 -11.1935 72.3818 -13.2889 -11.3014 72.7337 -13.512 
-11.522 72.2613 -13.5171 -11.0401 72.3784 -13.7959 -13.2896 71.5605 -13.3028 
-13.319 71.6713 -13.5588 -13.5079 71.3113 -13.3091 -12.313 71.225 -12.7789 
-13.1785 71.302 -13.5554 -11.259 71.5452 -13.2173 -11.6529 71.3436 -13.4918 
-10.9067 71.7709 -13.5011 -13.6982 70.4209 -13.5543 -12.876 70.5509 -13.5963 
-12.4351 70.5679 -13.0623 -11.3852 70.393 -13.2745 -11.8145 70.7209 -13.7811 
-10.8442 70.7887 -13.6017 -13.8377 69.4983 -13.5746 -12.0878 70.0938 -13.5161 
-11.3665 69.2614 -13.0174 -10.8481 69.7013 -13.6088 -14.3688 68.3232 -13.1131 
-13.9747 68.6835 -13.6197 -11.3233 68.3497 -13.1251 -10.9056 68.6054 -13.6936 
-14.236 67.879 -13.692 -14.6202 67.55 -13.2044 -11.616 67.5378 -13.3786 
-11.1892 67.8566 -13.6439 -14.6853 66.3854 -13.544 -12.283 66.1066 -12.9871 
[...]
CELL_DATA 28056
SCALARS scalars float
LOOKUP_TABLE default
2025 2025 2025 2025 2025 2025 2025 2025 2025 
2025 2025 2025 2025 2025 2025 2025 2025 2025 
2025 2025 2025 2025 2025 2025 2025 2025 2025 
2025 2025 2025 2025 2025 2025 2025 2025 2025 
2025 2025 2025 2025 2025 2025 2025 2025 2025 
2025 2025 2025 2025 2025 2025 2025 2025 2025 
2025 2025 2025 2025 2025 2025 2025 2025 2025 
2025 2025 2025 2025 2025 2025 2025 2025 2025 
2025 2025 2025 2025 2025 2025 2025 2025 2025 
2025 2025 2025 2025 2025 2025 2025 2025 2025 
2025 2025 2025 2025 2025 2025 2025 2025 2025 
2025 2025 2025 2025 2025 2025 2025 2025 2025 
2025 2025 2025 2025 2025 2025 2025 2025 2025 
2025 2025 2025 2025 2025 2025 2025 2025 2025 
2025 2025 2025 2025 2025 2025 2025 2025 2025 
2025 2025 2025 2025 2025 2025 2025 2025 2025 
2025 2025 2025 2025 2025 2025 2025 2025 2025 
2025 2025 2025 2025 2025 2025 2025 2025 2025 
2025 2025 2025 2025 2025 2025 2025 2025 2025 
2025 2025 2025 2025 2025 2025 2025 2025 2025 
2025 2025 2025 2025 2025 2025 2025 2025 2025 
2025 2025 2025 2025 2025 2025 2025 2025 2025 
2025 2025 2025 2025 2025 2025 2025 2025 2025 
2025 2025 2025 2025 2025 2025 2025 2025 2025 
2025 2025 2025 2025 2025 2025 2025 2025 2025 
2025 2025 2025 2025 2025 2025 2025 2025 2025 
2025 2025 2025 2025 2025 2025 2025 2025 2025 
2025 2025 2025 2025 2025 2025 2025 2025 2025 
2025 2025 2025 2025 2025 2025 2025 2025 2025 
2025 2025 2025 2025 2025 2025 2025 2025 2025 
2025 2025 2025 2025 2025 2025 2025 2025 2025 
2025 2025 2025 2025 2025 2025 2025 2025 2025 
2025 2025 2025 2025 2025 2025 2025 2025 2025 
2025 2025 2025 2025 2025 2025 2025 2025 2025 
2025 2025 2025 2025 2025 2025 2025 2025 2025 
2025 2025 2025 2025 2025 2025 2025 2025 2025 
2025 2025 2025 2025 2025 2025 2025 2025 2025 
2025 2025 2025 2025 2025 2025 2025 2025 2025 
2025 2025 2025 2025 2025 2025 2025 2025 2025 
2025 2025 2025 2025 2025 2025 2025 2025 2025 
2025 2025 2025 2025 2025 2025 2025 2025 2025 
2025 2025 2025 2025 2025 2025 2025 2025 2025 
2025 2025 2025 2025 2025 2025 2025 2025 2025 
2025 2025 2025 2025 2025 2025 2025 2025 2025 
2025 2025 2025 2025 2025 2025 2025 2025 2025 
2025 2025 2025 2025 2025 2025 2025 2025 2025 
2025 2025 2025 2025 2025 2025 2025 2025 2025 
2025 2025 2025 2025 2025 2025 2025 2025 2025 
2025 2025 2025 2025 2025 2025 2025 2025 2025 
2025 2025 2025 2025 2025 2025 2025 2025 2025 
2025 2025 2025 2025 2025 2025 2025 2025 2025 
2025 2025 2025 2025 2025 2025 2025 2025 2025 
2025 2025 2025 2025 2025 2025 2025 2025 2025 
2025 2025 2025 2025 2025 2025 2025 2025 2025 
2025 2025 2025 2025 2025 2025 2025 2025 2025 
2025 2025 2025 2025 2025 2025 2025 2025 2025 
2025 2025 2025 2025 2025 2025 2025 2025 2025 
2025 2025 2025 2025 2025 2025 2025 2025 2025 
2025 2025 2025 2025 2025 2025 2025 2025 2025 
2025 2025 2025 2025 2025 2025 2025 2025 2025 
2025 2025 2025 2025 2025 2025 2025 2025 2025 
2025 2025 2025 2025 2025 2025 2025 2025 2025 
2025 2025 2025 2025 2025 2025 2025 2025 2025 
2025 2025 2025 2025 2025 2025 2025 2025 2025 
2025 2025 2025 2025 2025 2025 2025 2025 2025 
2025 2025 2025 2025 2025 2025 2025 2025 2025 
2025 2025 2025 2025 2025 2025 2025 2025 2025 
2025 2025 2025 2025 2025 2025 2025 2025 2025 
2025 2025 2025 2025 2025 2025 2025 2025 2025 
2025 2025 2025 2025 2025 2025 2025 2025 2025 
2025 2025 2025 2025 2025 2025 2025 2025 2025 
2025 2025 2025 2025 2025 2025 2025 2025 2025 
2025 2025 2025 2025 2025 2025 2025 2025 2025 
2025 2025 2025 2025 2025 2025 2025 2025 2025 
2025 2025 2025 2025 2025 2025 2025 2025 2025 
2025 2025 2025 2025 2025 2025 2025 2025 2025 
2025 2025 2025 2025 2025 2025 2025 2025 2025 
2025 2025 2025 2025 2025 2025 2025 2025 2025 
2025 2025 2025 2025 2025 2025 2025 2025 2025 
2025 2025 2025 2025 2025 2025 2025 2025 2025 
2025 2025 2025 2025 2025 2025 2025 2025 2025 
2025 2025 2025 2025 2025 2025 2025 2025 2025 
2025 2025 2025 2025 2025 2025 2025 2025 2025 
2025 2025 2025 2025 2025 2025 2025 2025 2025 
2025 2025 2025 2025 2025 2025 2025 2025 2025 
2025 2025 2025 2025 2025 2025 2025 2025 2025 
2025 2025 2025 2025 2025 2025 2025 2025 2025 
2025 2025 2025 2025 2025 2025 2025 2025 2025 
2025 2025 2025 2025 2025 2025 2025 2025 2025 
2025 2025 2025 2025 2025 2025 2025 2025 2025 
2025 2025 2025 2025 2025 2025 2025 2025 2025 
2025 2025 2025 2025 2025 2025 2025 2025 2025 
2025 2025 2025 2025 2025 2025 2025 2025 2025 
2025 2025 2025 2025 2025 2025 2025 2025 2025 
2025 2025 2025 2025 2025 2025 2025 2025 2025 
2025 2025 2025 2025 2025 2025 2025 2025 2025 
2025 2025 2025 2025 2025 2025 2025 2025 2025 
2025 2025 2025 2025 2025 2025 2025 2025 2025 
2025 2025 2025 2025 2025 2025 2025 2025 2025 
2025 2025 2025 2025 2025 2025 2025 2025 2025 
2025 2025 2025 2025 2025 2025 2025 2025 2025 
2025 2025 2025 2025 2025 2025 2025 2025 2025 
2025 2025 2025 2025 2025 2025 2025 2025 2025 
2025 2025 2025 2025 2025 2025 2025 2025 2025 
2025 2025 2025 2025 2025 2025 2025 2025 2025 
2025 2025 2025 2025 2025 2025 2025 2025 2025 
2025 2025 2025 2025 2025 2025 2025 2025 2025 
2025 2025 2025 2025 2025 2025 2025 2025 2025 
2025 2025 2025 2025 2025 2025 2025 2025 2025 
2025 2025 2025 2025 2025 2025 2025 2025 2025 
2025 2025 2025 2025 2025 2025 2025 2025 2025 
2025 2025 2025 2025 2025 2025 2025 2025 2025 
2025 2025 2025 2025 2025 2025 2025 2025 2025 
2025 2025 2025 2025 2025 2025 2025 2025 2025 
2025 2025 2025 2025 2025 2025 2025 2025 2025 
2025 2025 2025 2025 2025 2025 2025 2025 2025 
2025 2025 2025 2025 2025 2025 2025 2025 2025 
2025 2025 2025 2025 2025 2025 2025 2025 2025 
2025 2025 2025 2025 2025 2025 2025 2025 2025 
2025 2025 2025 2025 2025 2025 2025 2025 2025 
2025 2025 2025 2025 2025 2025 2025 2025 2025 
2025 2025 2025 2025 2025 2025 2025 2025 2025 
2025 2025 2025 2025 2025 2025 2025 2025 2025 
2025 2025 2025 2025 2025 2025 2025 2025 2025 
2025 2025 2025 2025 2025 2025 2025 2025 2025 
2025 2025 2025 2025 2025 2025 2025 2025 2025 
2025 2025 2025 2025 2025 2025 2025 2025 2025 
2025 2025 2025 2025 2025 2025 2025 2025 2025 
2025 2025 2025 2025 2025 2025 2025 2025 2025 
2025 2025 2025 2025 2025 2025 2025 2025 2025 
2025 2025 2025 2025 2025 2025 2025 2025 2025 
2025 2025 2025 2025 2025 2025 2025 2025 2025 
2025 2025 2025 2025 2025 2025 2025 2025 2025 
2025 2025 2025 2025 2025 2025 2025 2025 2025 
2025 2025 2025 2025 2025 2025 2025 2025 2025 
2025 2025 2025 2025 2025 2025 2025 2025 2025 
2025 2025 2025 2025 2025 2025 2025 2025 2025 
2025 2025 2025 2025 2025 2025 2025 2025 2025 
2025 2025 2025 2025 2025 2025 2025 2025 2025 
2025 2025 2025 2025 2025 2025 2025 2025 2025 
2025 2025 2025 2025 2025 2025 2025 2025 2025 
2025 2025 2025 2025 2025 2025 2025 2025 2025 
2025 2025 2025 2025 2025 2025 2025 2025 2025 
2025 2025 2025 2025 2025 2025 2025 2025 2025 
2025 2025 2025 2025 2025 2025 2025 2025 2025 
2025 2025 2025 2025 2025 2025 2025 2025 2025 
2025 2025 2025 2025 2025 2025 2025 2025 2025 
2025 2025 2025 2025 2025 2025 2025 2025 2025 
2025 2025 2025 2025 2025 2025 2025 2025 2025 
2025 2025 2025 2025 2025 2025 2025 2025 2025 
2025 2025 2025 2025 2025 2025 2025 2025 2025 
2025 2025 2025 2025 2025 2025 2025 2025 2025 
2025 2025 2025 2025 2025 2025 2025 2025 2025 
2025 2025 2025 2025 2025 2025 2025 2025 2025 
2025 2025 2025 2025 2025 2025 2025 2025 2025 
2025 2025 2025 2025 2025 2025 2025 2025 2025 
2025 2025 2025 2025 2025 2025 2025 2025 2025 
2025 2025 2025 2025 2025 2025 2025 2025 2025 
2025 2025 2025 2025 2025 2025 2025 2025 2025 
2025 2025 2025 2025 2025 2025 2025 2025 2025 
2025 2025 2025 2025 2025 2025 2025 2025 2025 
2025 2025 2025 2025 2025 2025 2025 2025 2025 
2025 2025 2025 2025 2025 2025 2025 2025 2025 
2025 2025 2025 2025 2025 2025 2025 2025 2025 
2025 2025 2025 2025 2025 2025 2025 2025 2025 
2025 2025 2025 2025 2025 2025 2025 2025 2025 
2025 2025 2025 2025 2025 2025 2025 2025 2025 
2025 2025 2025 2025 2025 2025 2025 2025 2025 
2025 2025 2025 2025 2025 2025 2025 2025 2025 
2025 2025 2025 2025 2025 2025 2025 2025 2025 
2025 2025 2025 2025 2025 2025 2025 2025 2025 
2025 2025 2025 2025 2025 2025 2025 2025 2025 
2025 2025 2025 2025 2025 2025 2025 2025 2025 
2025 2025 2025 2025 2025 2025 2025 2025 2025 
2025 2025 2025 2025 2025 2025 2025 2025 2025 
2025 2025 2025 2025 2025 2025 2025 2025 2025 
2025 2025 2025 2025 2025 2025 2025 2025 2025 
2025 2025 2025 2025 2025 2025 2025 2025 2025 
2025 2025 2025 2025 2025 2025 2025 2025 2025 
2025 2025 2025 2025 2025 2025 2025 2025 2025 
2025 2025 2025 2025 2025 2025 2025 2025 2025 
2025 2025 2025 2025 2025 2025 2025 2025 2025 
2025 2025 2025 2025 2025 2025 2025 2025 2025 
2025 2025 2025 2025 2025 2025 2025 2025 2025 
2025 2025 2025 2025 2025 2025 2025 2025 2025 
2025 2025 2025 2025 2025 2025 2025 2025 2025 
2025 2025 2025 2025 2025 2025 2025 2025 2025 
2025 2025 2025 2025 2025 2025 2025 2025 2025 
2025 2025 2025 2025 2025 2025 2025 2025 2025 
2025 2025 2025 2025 2025 2025 2025 2025 2025 
2025 2025 2025 2025 2025 2025 2025 2025 2025 
2025 2025 2025 2025 2025 2025 2025 2025 2025 
2025 2025 2025 2025 2025 2025 2025 2025 2025 
2025 2025 2025 2025 2025 2025 2025 2025 2025 
2025 2025 2025 2025 2025 2025 2025 2025 2025 
2025 2025 2025 2025 2025 2025 2025 2025 2025 
2025 2025 2025 2025 2025 2025 2025 2025 2025 
2025 2025 2025 2025 2025 2025 2025 2025 2025 
2025 2025 2025 2025 2025 2025 2025 2025 2025 
2025 2025 2025 2025 2025 2025 2025 2025 2025 
2025 2025 2025 2025 2025 2025 2025 2025 2025 
2025 2025 2025 2025 2025 2025 2025 2025 2025 
2025 2025 2025 2025 2025 2025 2025 2025 2025 
2025 2025 2025 2025 2025 2025 2025 2025 2025 
2025 2025 2025 2025 2025 2025 2025 2025 2025 
2025 2025 2025 2025 2025 2025 2025 2025 2025 
2025 2025 2025 2025 2025 2025 2025 2025 2025 
2025 2025 2025 2025 2025 2025 2025 2025 2025 
2025 2025 2025 2025 2025 2025 2025 2025 2025 
2025 2025 2025 2025 2025 2025 2025 2025 2025 
2025 2025 2025 2025 2025 2025 2025 2025 2025 
2025 2025 2025 2025 2025 2025 2025 2025 2025 
2025 2025 2025 2025 2025 2025 2025 2025 2025 
2025 2025 2025 2025 2025 2025 2025 2025 2025 
2025 2025 2025 2025 2025 2025 2025 2025 2025 
2025 2025 2025 2025 2025 2025 2025 2025 2025 
2025 2025 2025 2025 2025 2025 2025 2025 2025 
2025 2025 2025 2025 2025 2025 2025 2025 2025 
2025 2025 2025 2025 2025 2025 2025 2025 2025 
2025 2025 2025 2025 2025 2025 2025 2025 2025 
2025 2025 2025 2025 2025 2025 2025 2025 2025 
2025 2025 2025 2025 2025 2025 2025 2025 2025 
2025 2025 2025 2025 2025 2025 2025 2025 2025 
2025 2025 2025 2025 2025 2025 2025 2025 2025 
2025 2025 2025 2025 2025 2025 2025 2025 2025 
2025 2025 2025 2025 2025 2025 2025 2025 2025 
2025 2025 2025 2025 2025 2025 2025 2025 2025 
2025 2025 2025 2025 2025 2025 2025 2025 2025 
2025 2025 2025 2025 2025 2025 2025 2025 2025 
2025 2025 2025 2025 2025 2025 2025 2025 2025 
2025 2025 2025 2025 2025 2025 2025 2025 2025 
2025 2025 2025 2025 2025 2025 2025 2025 2025 
2025 2025 2025 2025 2025 2025 2025 2025 2025 
2025 2025 2025 2025 2025 2025 2025 2025 2025 
2025 2025 2025 2025 2025 2025 2025 2025 2025 
2025 2025 2025 2025 2025 2025 2025 2025 2025 
2025 2025 2025 2025 2025 2025 2025 2025 2025 
2025 2025 2025 2025 2025 2025 2025 2025 2025 
2025 2025 2025 2025 2025 2025 2025 2025 2025 
2025 2025 2025 2025 2025 2025 2025 2025 2025 
2025 2025 2025 2025 2025 2025 2025 2025 2025 
2025 2025 2025 2025 2025 2025 2025 2025 2025 
2025 2025 2025 2025 2025 2025 2025 2025 2025 
2025 2025 2025 2025 2025 2025 2025 2025 2025 
2025 2025 2025 2025 2025 2025 2025 2025 2025 
2025 2025 2025 2025 2025 2025 2025 2025 2025 
2025 2025 2025 2025 2025 2025 2025 2025 2025 
2025 2025 2025 2025 2025 2025 2025 2025 2025 
2025 2025 2025 2025 2025 2025 2025 2025 2025 
2025 2025 2025 2025 2025 2025 2025 2025 2025 
2025 2025 2025 2025 2025 2025 2025 2025 2025 
2025 2025 2025 2025 2025 2025 2025 2025 2025 
2025 2025 2025 2025 2025 2025 2025 2025 2025 
2025 2025 2025 2025 2025 2025 2025 2025 2025 
2025 2025 2025 2025 2025 2025 2025 2025 2025 
2025 2025 2025 2025 2025 2025 2025 2025 2025 
2025 2025 2025 2025 2025 2025 2025 2025 2025 
2025 2025 2025 2025 2025 2025 2025 2025 2025 
2025 2025 2025 2025 2025 2025 2025 2025 2025 
2025 2025 2025 2025 2025 2025 2025 2025 2025 
2025 2025 2025 2025 2025 2025 2025 2025 2025 
2025 2025 2025 2025 2025 2025 2025 2025 2025 
2025 2025 2025 2025 2025 2025 2025 2025 2025 
2025 2025 2025 2025 2025 2025 2025 2025 2025 
2025 2025 2025 2025 2025 2025 2025 2025 2025 
2025 2025 2025 2025 2025 2025 2025 2025 2025 
2025 2025 2025 2025 2025 2025 2025 2025 2025 
2025 2025 2025 2025 2025 2025 2025 2025 2025 
2025 2025 2025 2025 2025 2025 2025 2025 2025 
2025 2025 2025 2025 2025 2025 2025 2025 2025 
2025 2025 2025 2025 2025 2025 2025 2025 2025 
2025 2025 2025 2025 2025 2025 2025 2025 2025 
2025 2025 2025 2025 2025 2025 2025 2025 2025 
2025 2025 2025 2025 2025 2025 2025 2025 2025 
2025 2025 2025 2025 2025 2025 2025 2025 2025 
2025 2025 2025 2025 2025 2025 2025 2025 2025 
2025 2025 2025 2025 2025 2025 2025 2025 2025 
2025 2025 2025 2025 2025 2025 2025 2025 2025 
2025 2025 2025 2025 2025 2025 2025 2025 2025 
2025 2025 2025 2025 2025 2025 2025 2025 2025 
2025 2025 2025 2025 2025 2025 2025 2025 2025 
2025 2025 2025 2025 2025 2025 2025 2025 2025 
2025 2025 2025 2025 2025 2025 2025 2025 2025 
2025 2025 2025 2025 2025 2025 2025 2025 2025 
2025 2025 2025 2025 2025 2025 2025 2025 2025 
2025 2025 2025 2025 2025 2025 2025 2025 2025 
2025 2025 2025 2025 2025 2025 2025 2025 2025 
2025 2025 2025 2025 2025 2025 2025 2025 2025 
2025 2025 2025 2025 2025 2025 2025 2025 2025 
2025 2025 2025 2025 2025 2025 2025 2025 2025 
2025 2025 2025 2025 2025 2025 2025 2025 2025 
2025 2025 2025 2025 2025 2025 2025 2025 2025 
2025 2025 2025 2025 2025 2025 2025 2025 2025 
2025 2025 2025 2025 2025 2025 2025 2025 2025 
2025 2025 2025 2025 2025 2025 2025 2025 2025 
2025 2025 2025 2025 2025 2025 2025 2025 2025 
2025 2025 2025 2025 2025 2025 2025 2025 2025 
2025 2025 2025 2025 2025 2025 2025 2025 2025 
2025 2025 2025 2025 2025 2025 2025 2025 2025 
2025 2025 2025 2025 2025 2025 2025 2025 2025 
2025 2025 2025 2025 2025 2025 2025 2025 2025 
2025 2025 2025 2025 2025 2025 2025 2025 2025 
2025 2025 2025 2025 2025 2025 2025 2025 2025 
2025 2025 2025 2025 2025 2025 2025 2025 2025 
2025 2025 2025 2025 2025 2025 2025 2025 2025 
2025 2025 2025 2025 2025 2025 2025 2025 2025 
2025 2025 2025 2025 2025 2025 2025 2025 2025 
2025 2025 2025 2025 2025 2025 2025 2025 2025 
2025 2025 2025 2025 2025 2025 2025 2025 2025 
2025 2025 2025 2025 2025 2025 2025 2025 2025 
2025 2025 2025 2025 2025 2025 2025 2025 2025 
2025 2025 2025 2025 2025 2025 2025 2025 2025 
2025 2025 2025 2025 2025 2025 2025 2025 2025 
2025 2025 2025 2025 2025 2025 2025 2025 2025 
2025 2025 2025 2025 2025 2025 2025 2025 2025 
2025 2025 2025 2025 2025 2025 2025 2025 2025 
2025 2025 2025 2025 2025 2025 2025 2025 2025 
2025 2025 2025 2025 2025 2025 2025 2025 2025 
2025 2025 2025 2025 2025 2025 2025 2025 2025 
2025 2025 2025 2025 2025 2025 2025 2025 2025 
2025 2025 2025 2025 2025 2025 2025 2025 2025 
2025 2025 2025 2025 2025 2025 2025 2025 2025 
2025 2025 2025 2025 2025 2025 2025 2025 2025 
2025 2025 2025 2025 2025 2025 2025 2025 2025 
2025 2025 2025 2025 2025 2025 2025 2025 2025 
2025 2025 2025 2025 2025 2025 2025 2025 2025 
2025 2025 2025 2025 2025 2025 2025 2025 2025 
2025 2025 2025 2025 2025 2025 2025 2025 2025 
2025 2025 2025 2025 2025 2025 2025 2025 2025 
2025 2025 2025 2025 2025 2025 2025 2025 2025 
2025 2025 2025 2025 2025 2025 2025 2025 2025 
2025 2025 2025 2025 2025 2025 2025 2025 2025 
2025 2025 2025 2025 2025 2025 2025 2025 2025 
2025 2025 2025 2025 2025 2025 2025 2025 2025 
2025 2025 2025 2025 2025 2025 2025 2025 2025 
2025 2025 2025 2025 2025 2025 2025 2025 2025 
2025 2025 2025 2025 2025 2025 2025 2025 2025 
2025 2025 2025 2025 2025 2025 2025 2025 2025 
2025 2025 2025 2025 2025 2025 2025 2025 2025 
2025 2025 2025 2025 2025 2025 2025 2025 2025 
2025 2025 2025 2025 2025 2025 2025 2025 2025 
2025 2025 2025 2025 2025 2025 2025 2025 2025 
2025 2025 2025 2025 2025 2025 2025 2025 2025 
2025 2025 2025 2025 2025 2025 2025 2025 2025 
2025 2025 2025 2025 2025 2025 2025 2025 2025 
2025 2025 2025 2025 2025 2025 2025 2025 2025 
2025 2025 2025 2025 2025 2025 2025 2025 2025 
2025 2025 2025 2025 2025 2025 2025 2025 2025 
2025 2025 2025 2025 2025 2025 2025 2025 2025 
2025 2025 2025 2025 2025 2025 2025 2025 2025 
2025 2025 2025 2025 2025 2025 2025 2025 2025 
2025 2025 2025 2025 2025 2025 2025 2025 2025 
2025 2025 2025 2025 2025 2025 2025 2025 2025 
2025 2025 2025 2025 2025 2025 2025 2025 2025 
2025 2025 2025 2025 2025 2025 2025 2025 2025 
2025 2025 2025 2025 2025 2025 2025 2025 2025 
2025 2025 2025 2025 2025 2025 2025 2025 2025 
2025 2025 2025 2025 2025 2025 2025 2025 2025 
2025 2025 2025 2025 2025 2025 2025 2025 2025 
2025 2025 2025 2025 2025 2025 2025 2025 2025 
2025 2025 2025 2025 2025 2025 2025 2025 2025 
2025 2025 2025 2025 2025 2025 2025 2025 2025 
2025 2025 2025 2025 2025 2025 2025 2025 2025 
2025 2025 2025 2025 2025 2025 2025 2025 2025 
2025 2025 2025 2025 2025 2025 2025 2025 2025 
2025 2025 2025 2025 2025 2025 2025 2025 2025 
2025 2025 2025 2025 2025 2025 2025 2025 2025 
2025 2025 2025 2025 2025 2025 2025 2025 2025 
2025 2025 2025 2025 2025 2025 2025 2025 2025 
2025 2025 2025 2025 2025 2025 2025 2025 2025 
2025 2025 2025 2025 2025 2025 2025 2025 2025 
2025 2025 2025 2025 2025 2025 2025 2025 2025 
2025 2025 2025 2025 2025 2025 2025 2025 2025 
2025 2025 2025 2025 2025 2025 2025 2025 2025 
2025 2025 2025 2025 2025 2025 2025 2025 2025 
2025 2025 2025 2025 2025 2025 2025 2025 2025 
2025 2025 2025 2025 2025 2025 2025 2025 2025 
2025 2025 2025 2025 2025 2025 2025 2025 2025 
2025 2025 2025 2025 2025 2025 2025 2025 2025 
2025 2025 2025 2025 2025 2025 2025 2025 2025 
2025 2025 2025 2025 2025 2025 2025 2025 2025 
2025 2025 2025 2025 2025 2025 2025 2025 2025 
2025 2025 2025 2025 2025 2025 2025 2025 2025 
2025 2025 2025 2025 2025 2025 2025 2025 2025 
2025 2025 2025 2025 2025 2025 2025 2025 2025 
2025 2025 2025 2025 2025 2025 2025 2025 2025 
2025 2025 2025 2025 2025 2025 2025 2025 2025 
2025 2025 2025 2025 2025 2025 2025 2025 2025 
2025 2025 2025 2025 2025 2025 2025 2025 2025 
2025 2025 2025 2025 2025 2025 2025 2025 2025 
2025 2025 2025 2025 2025 2025 2025 2025 2025 
2025 2025 2025 2025 2025 2025 2025 2025 2025 
2025 2025 2025 2025 2025 2025 2025 2025 2025 
2025 2025 2025 2025 2025 2025 2025 2025 2025 
2025 2025 2025 2025 2025 2025 2025 2025 2025 
2025 2025 2025 2025 2025 2025 2025 2025 2025 
2025 2025 2025 2025 2025 2025 2025 2025 2025 
2025 2025 2025 2025 2025 2025 2025 2025 2025 
2025 2025 2025 2025 2025 2025 2025 2025 2025 
2025 2025 2025 2025 2025 2025 2025 2025 2025 
2025 2025 2025 2025 2025 2025 2025 2025 2025 
2025 2025 2025 2025 2025 2025 2025 2025 2025 
2025 2025 2025 2025 2025 2025 2025 2025 2025 
2025 2025 2025 2025 2025 2025 2025 2025 2025 
2025 2025 2025 2025 2025 2025 2025 2025 2025 
2025 2025 2025 2025 2025 2025 2025 2025 2025 
2025 2025 2025 2025 2025 2025 2025 2025 2025 
2025 2025 2025 2025 2025 2025 2025 2025 2025 
2025 2025 2025 2025 2025 2025 2025 2025 2025 
2025 2025 2025 2025 2025 2025 2025 2025 2025 
2025 2025 2025 2025 2025 2025 2025 2025 2025 
2025 2025 2025 2025 2025 2025 2025 2025 2025 
2025 2025 2025 2025 2025 2025 2025 2025 2025 
2025 2025 2025 2025 2025 2025 2025 2025 2025 
2025 2025 2025 2025 2025 2025 2025 2025 2025 
2025 2025 2025 2025 2025 2025 2025 2025 2025 
2025 2025 2025 2025 2025 2025 2025 2025 2025 
2025 2025 2025 2025 2025 2025 2025 2025 2025 
2025 2025 2025 2025 2025 2025 2025 2025 2025 
2025 2025 2025 2025 2025 2025 2025 2025 2025 
2025 2025 2025 2025 2025 2025 2025 2025 2025 
2025 2025 2025 2025 2025 2025 2025 2025 2025 
2025 2025 2025 2025 2025 2025 2025 2025 2025 
2025 2025 2025 2025 2025 2025 2025 2025 2025 
2025 2025 2025 2025 2025 2025 2025 2025 2025 
2025 2025 2025 2025 2025 2025 2025 2025 2025 
2025 2025 2025 2025 2025 2025 2025 2025 2025 
2025 2025 2025 2025 2025 2025 2025 2025 2025 
2025 2025 2025 2025 2025 2025 2025 2025 2025 
2025 2025 2025 2025 2025 2025 2025 2025 2025 
2025 2025 2025 2025 2025 2025 2025 2025 2025 
2025 2025 2025 2025 2025 2025 2025 2025 2025 
2025 2025 2025 2025 2025 2025 2025 2025 2025 