# vtk DataFile Version 4.2
vtk output
ASCII
DATASET POLYDATA
POINTS 24100 float
21.2377 87.8583 8.22098 21.2462 87.2028 8.76168 21.8668 87.5611 8.40898 
20.7351 87.4093 8.62437 22.0382 87.8961 7.61017 22.509 87.1996 8.02231 
22.8314 87.5423 7.2485 21.169 88.0874 7.37238 20.3971 87.6645 8.22469 
20.2178 87.9647 7.49358 19.2698 87.7953 7.26808 19.3822 87.3501 8.03619 
18.7687 87.3729 7.49029 22.2201 87.9109 6.53288 22.8875 87.5347 6.26454 
21.3229 88.0695 6.53824 20.3107 88.0737 6.47272 19.4029 87.9237 6.48405 
18.7466 87.5253 6.72389 22.1963 87.8834 5.4983 22.8562 87.5193 5.22992 
21.2972 88.036 5.50586 20.2744 88.0417 5.44124 19.3837 87.9011 5.45368 
18.7518 87.5287 5.71753 22.1711 87.8914 4.47439 22.8557 87.5322 4.21247 
21.2695 88.0347 4.49152 20.263 88.0242 4.42204 19.3648 87.8744 4.43448 
18.7225 87.5092 4.70205 22.1741 87.9109 3.451 22.8391 87.5247 3.20958 
21.2614 88.0537 3.4582 20.4196 88.0325 3.57055 19.5584 87.8315 3.36203 
18.7912 87.4921 3.75685 22.1769 87.8416 2.52627 22.6565 87.4754 2.37067 
21.3143 88.0508 2.4401 20.2846 87.9396 2.50129 19.5503 87.6075 2.46958 
19.047 87.4405 2.98784 22.1424 87.6287 1.8622 21.7206 87.4948 1.24592 
21.4863 87.8558 1.67335 20.6169 87.8467 1.53151 19.8151 87.5537 1.71737 
20.9434 87.3745 0.928068 20.0695 87.2588 1.08192 17.3608 87.7078 -3.51611 
17.317 87.5829 -3.23604 17.5348 87.4926 -3.51372 17.0565 87.2881 -3.46336 
17.3482 87.5831 -3.80829 16.4082 87.4364 -4.41089 16.5498 87.598 -4.56177 
16.2618 87.6761 -4.54835 16.073 87.2914 -4.47264 17.0586 87.821 -5.77755 
17.4884 87.4907 -5.27582 17.7824 87.4102 -5.86408 16.3163 87.2968 -4.68145 
16.8674 87.3172 -5.47101 17.2533 87.8645 -6.25986 17.6117 87.3363 -6.72448 
16.4417 87.5697 -6.03355 16.5644 87.8491 -6.4309 16.0381 87.2101 -6.60131 
16.9499 87.6271 -6.95218 16.2639 87.4199 -7.06752 15.0905 86.8615 11.4885 
15.2625 86.4255 12.0094 15.5928 86.4026 11.397 14.5445 86.8356 11.1917 
14.6044 86.5868 11.939 13.9941 86.2135 11.589 15.2061 86.8158 10.8222 
15.6011 86.1635 10.3962 14.6836 86.705 10.5777 14.1683 86.4252 10.8185 
15.0988 86.515 10.223 21.1186 86.2133 8.84762 21.8078 86.7716 8.54972 
19.9564 87.1068 8.54243 20.3187 86.5314 8.89101 19.335 86.8773 8.51127 
19.3255 86.3508 8.79889 18.7585 86.4776 8.50964 23.1939 87.0159 7.54917 
22.9562 86.3382 7.78315 23.5516 86.432 7.18672 22.2848 86.3285 8.18191 
18.2843 86.928 7.18704 18.4535 86.7528 7.95187 17.9315 86.3905 7.60071 
15.2008 86.7784 7.23754 15.0527 86.3087 7.89725 15.6453 86.5106 7.32529 
14.748 86.3134 7.32466 23.3831 87.0449 6.80867 23.6975 86.4879 6.37315 
18.2664 86.9808 6.22103 17.7965 86.4329 6.75861 15.3382 86.807 6.67354 
15.5971 86.5109 6.36494 14.9742 86.4656 6.53762 23.3795 87.0081 5.79655 
23.7184 86.348 5.49119 18.2563 86.9801 5.19464 17.7709 86.4452 5.73656 
15.2053 86.4297 6.01737 23.3604 86.9997 4.76682 23.7198 86.3407 4.49219 
18.241 86.9909 4.18947 17.7603 86.4738 4.72202 23.3607 87.0176 3.74386 
23.7164 86.3504 3.49447 18.4099 87.0095 3.1473 17.7558 86.3997 3.5846 
23.224 87.0415 2.5667 23.704 86.3921 2.44217 19.094 87.2364 2.31179 
18.5305 86.8078 2.21757 18.005 86.4776 2.69142 23.2326 86.9539 1.40449 
23.7346 86.4386 1.39094 22.4571 87.2475 1.45968 19.2704 87.031 1.54372 
18.7754 86.5104 1.59014 18.2361 86.167 2.00744 23.3621 86.8539 0.60021 
23.6842 86.2633 0.496809 22.6317 86.9636 0.513181 21.6417 87.0063 0.552968 
20.8446 86.7022 0.448222 20.1497 86.4548 0.712597 19.3875 86.4519 1.11463 
23.0306 86.4654 0.05073 22.0554 86.4152 -0.00536466 21.0987 86.2557 0.095299 
17.1417 87.0167 -2.73949 17.2756 86.3189 -2.17236 17.8429 86.5396 -2.57127 
16.2994 86.7474 -2.4534 16.5219 86.4419 -2.21019 16.0994 86.5294 -2.41039 
18.0741 86.942 -3.42955 18.3985 86.1957 -2.98791 18.6884 86.5249 -3.72735 
16.4606 86.575 -2.79693 16.6863 86.3099 -3.56386 18.3939 86.9032 -4.32297 
18.7672 86.4059 -4.49876 17.1659 87.1678 -4.46772 16.2381 86.5693 -4.17981 
15.8517 86.5477 -4.55489 18.2148 87.009 -5.1753 18.6768 86.1675 -5.56544 
16.2484 86.5651 -4.99423 16.6096 86.6932 -5.37897 18.2858 86.706 -5.94626 
18.0257 86.4967 -6.66141 16.2667 86.8356 -5.97268 15.8103 86.273 -6.44013 
17.3106 87.1868 -7.4896 17.7205 86.6752 -7.55274 16.6009 87.0265 -7.77062 
15.8963 86.4263 -7.39003 17.2511 86.7914 -8.25768 17.5875 86.1791 -8.44127 
16.6911 86.6042 -8.51716 16.2024 86.379 -8.22761 17.0121 86.2714 -8.85706 
19.0341 85.7519 14.2184 19.4659 85.4461 14.7712 19.7549 85.5193 14.16 
18.836 85.465 14.6572 19.2806 85.7739 13.6815 19.6664 85.4537 13.3951 
18.4119 85.6053 14.0732 18.599 85.7487 13.5476 18.0238 85.4405 13.6092 
14.2721 85.7567 13.2031 14.3762 85.1766 13.7889 14.8273 85.5556 13.3642 
13.7271 85.2678 13.3918 18.9681 85.5077 13.0373 18.2035 85.4108 13.0883 
14.9132 85.9951 12.6863 15.4018 85.4249 12.95 15.7184 85.663 12.1626 
14.2423 86.1524 12.4554 13.8564 85.6664 12.5341 15.9342 85.5946 11.1656 
13.7349 85.3735 11.7056 15.9336 85.4261 10.2493 14.4164 86.1494 10.1081 
13.8382 85.5608 10.75 15.1366 86.0972 9.61914 15.7488 85.5778 9.30551 
14.5481 85.8093 9.25347 13.9772 85.3913 9.77772 21.3156 85.4408 8.8736 
21.802 85.7908 8.48555 20.5067 85.5719 9.11069 19.5055 85.5925 9.11511 
17.9147 86.0063 8.31211 18.5134 85.6105 8.97947 17.0389 85.7023 8.17634 
17.5496 85.3995 8.85948 16.817 85.3164 8.56741 15.3641 85.9627 8.50437 
15.9312 85.5529 8.36193 14.6664 85.4614 8.3377 14.302 85.1308 9.04994 
25.2667 85.6452 7.46026 25.4517 85.4796 7.70312 25.5326 85.4765 7.29423 
25.0449 85.4662 7.60436 23.3628 85.8709 7.30845 22.9981 85.5931 7.54344 
22.4979 85.5898 7.9805 17.2443 86.0508 7.38177 16.4005 85.4912 8.16788 
16.2754 85.9223 7.73481 14.3235 85.7636 7.29951 14.4419 85.7979 7.7633 
14.1518 85.4916 7.46277 25.1258 85.4631 7.19547 23.4446 85.3656 7.06289 
23.8151 85.5534 6.39484 17.1434 86.0949 6.23764 16.2762 86.1373 6.57238 
14.6311 85.5712 6.75904 14.313 85.2987 7.23638 23.8467 85.6394 5.32727 
17.1475 86.1009 5.21676 16.4556 85.9854 5.59733 15.6 85.9762 5.4327 
14.9026 85.4956 5.61335 23.8426 85.4699 4.50307 17.2669 86.1469 4.32235 
16.4769 85.8479 4.5004 15.6653 85.5839 4.55297 15.181 85.3934 4.79778 
23.8541 85.4655 3.49179 17.196 85.8673 3.50769 16.7868 85.367 3.44875 
16.0881 85.1767 3.9793 23.8824 85.5116 2.45333 17.6474 85.5582 2.45447 
17.1944 85.3602 2.84547 23.9101 85.5271 1.40278 18.688 85.8108 1.43389 
18.1541 85.4242 1.76907 23.781 85.2879 0.52375 20.4513 86.091 0.319777 
19.9504 85.5753 0.489743 19.2131 85.313 0.937983 23.2535 85.587 -0.0105978 
22.3282 85.5648 -0.155425 21.2669 85.4734 -0.104639 20.4076 85.4179 0.13016 
17.0375 85.458 -2.12335 17.8462 85.7558 -2.38439 16.3776 86.1246 -2.36268 
16.6054 85.5853 -2.63316 18.3484 85.2263 -2.93032 18.7473 85.7748 -3.6168 
16.5662 85.4224 -3.26368 18.8612 85.5471 -4.54912 16.315 85.6625 -3.76739 
15.427 85.849 -4.88443 15.6349 85.6185 -4.08947 14.9187 85.3545 -4.42395 
18.9629 85.2309 -5.60712 15.9158 86.1087 -5.62022 15.3319 85.688 -5.43144 
14.8112 85.4164 -5.1747 18.4006 86.082 -6.36575 18.6043 85.4023 -6.42736 
15.2921 85.5494 -5.97789 15.5726 85.6908 -6.79052 18.2455 85.6003 -6.86758 
17.9459 85.6228 -7.5832 15.5831 85.4838 -7.37808 17.6857 85.2575 -8.66588 
16.4198 86.116 -8.71869 15.985 85.5292 -8.23333 17.1245 85.5383 -9.04972 
16.5561 85.703 -8.89747 20.1821 84.8492 16.2957 20.2285 84.539 16.9568 
20.8283 84.5331 16.5279 19.1488 84.8229 16.2605 19.3937 84.3251 17.0531 
18.7181 84.388 16.6226 21.1654 84.8695 15.4662 21.3758 84.5265 16.0121 
21.8522 84.4974 15.5221 20.3613 85.0209 15.552 19.3745 85.1274 15.3856 
18.3786 84.6154 16.1925 18.1885 84.9281 15.4939 17.0861 84.8078 15.2202 
17.3751 84.3392 16.0159 16.7048 84.4041 15.5694 22.0214 84.8459 14.5279 
22.4104 84.3443 15.0771 22.6555 84.4031 14.3982 21.1997 85.0238 14.3494 
20.3196 85.1455 14.7975 18.1632 85.2096 14.4439 17.2738 85.0009 14.4443 
16.2418 84.3425 15.0849 16.2493 84.8462 14.3667 15.7185 84.3831 14.5647 
22.2374 84.8899 13.4862 22.8416 84.3902 13.384 21.3705 85.0347 13.4536 
20.3661 85.1493 13.5848 17.4023 85.0628 13.2963 16.4551 84.9742 13.6426 
15.2141 84.7112 14.1347 15.4613 85.1036 13.5695 14.2487 84.424 14.1535 
13.2777 84.7832 13.3834 13.5049 84.7129 13.835 12.9766 84.1842 13.4859 
22.347 84.7622 12.7159 22.6583 84.4111 12.4284 21.4624 84.8854 12.4749 
20.3616 85.003 12.4729 19.3624 85.1172 12.5055 18.1455 85.0638 12.4011 
17.0964 84.9004 12.282 16.2259 85.0515 12.7596 13.5338 84.8632 12.5803 
13.1307 84.3387 12.9324 21.9686 84.4998 12.0386 21.1988 84.544 11.7995 
20.7461 84.4338 11.4566 20.3512 84.7593 11.574 19.2947 84.9383 11.4456 
18.2766 84.9251 11.4158 17.2586 84.8812 11.4397 16.4036 85.0549 11.7249 
13.5897 84.6527 11.4595 23.1068 84.7894 10.2615 23.382 84.4038 10.8457 
23.8943 84.5633 10.3694 22.0073 84.8082 10.3401 22.5746 84.4573 11.0047 
21.0048 84.7021 10.1986 21.5996 84.4342 10.9168 20.2522 84.4182 10.9397 
20.8271 84.3417 10.6185 19.9658 84.4921 10.2901 19.3559 84.8051 10.3891 
18.2244 84.9069 10.4097 17.2322 84.8836 10.4265 16.4182 85.0332 10.7194 
13.6459 84.5316 10.3509 25.1534 84.8182 9.26888 25.2792 84.4976 9.88262 
25.8513 84.5112 9.49245 24.0203 84.8454 9.5298 24.6571 84.5009 10.0832 
23.1086 84.949 9.33022 22.4042 84.967 9.62825 21.3328 85.0516 9.46341 
20.3596 84.4787 10.1901 20.0585 84.9257 9.68849 19.0414 85.0919 9.48055 
18.2299 85.0539 9.56393 17.1657 85.0174 9.37655 16.3554 85.0516 9.68384 
13.938 84.6386 9.49753 26.0724 84.83 8.68173 26.3952 84.5335 8.99062 
26.7677 84.4915 8.30145 25.2567 85.1454 8.1738 24.2719 84.9774 8.43581 
23.3964 84.9453 8.63116 22.3197 85.1093 8.65343 16.2954 85.2009 8.73728 
14.6165 84.6001 8.49844 14.3023 84.183 8.99146 26.0861 85.0552 7.57214 
26.8895 84.5607 7.15004 24.5686 85.1431 7.39276 23.3254 85.0984 7.65554 
14.339 85.2393 7.65002 14.5743 84.5714 7.58299 26.3704 84.8121 6.63685 
26.783 84.545 6.46925 25.4326 85.0318 6.68118 24.2183 84.9659 6.62734 
14.5899 84.6236 6.41682 26.3084 84.4177 5.98926 25.0161 84.3437 5.92265 
24.1234 84.4079 6.0773 23.7626 84.6635 5.53933 19.9799 84.9285 5.41984 
20.604 84.5663 5.1844 20.0606 84.4003 5.88903 19.2664 84.4389 6.02765 
[...]
CELL_DATA 48408
SCALARS scalars float
LOOKUP_TABLE default
2027 2027 2027 2027 2027 2027 2027 2027 2027 
2027 2027 2027 2027 2027 2027 2027 2027 2027 
2027 2027 2027 2027 2027 2027 2027 2027 2027 
2027 2027 2027 2027 2027 2027 2027 2027 2027 
2027 2027 2027 2027 2027 2027 2027 2027 2027 
2027 2027 2027 2027 2027 2027 2027 2027 2027 
2027 2027 2027 2027 2027 2027 2027 2027 2027 
2027 2027 2027 2027 2027 2027 2027 2027 2027 
2027 2027 2027 2027 2027 2027 2027 2027 2027 
2027 2027 2027 2027 2027 2027 2027 2027 2027 
2027 2027 2027 2027 2027 2027 2027 2027 2027 
2027 2027 2027 2027 2027 2027 2027 2027 2027 
2027 2027 2027 2027 2027 2027 2027 2027 2027 
2027 2027 2027 2027 2027 2027 2027 2027 2027 
2027 2027 2027 2027 2027 2027 2027 2027 2027 
2027 2027 2027 2027 2027 2027 2027 2027 2027 
2027 2027 2027 2027 2027 2027 2027 2027 2027 
2027 2027 2027 2027 2027 2027 2027 2027 2027 
2027 2027 2027 2027 2027 2027 2027 2027 2027 
2027 2027 2027 2027 2027 2027 2027 2027 2027 
2027 2027 2027 2027 2027 2027 2027 2027 2027 
2027 2027 2027 2027 2027 2027 2027 2027 2027 
2027 2027 2027 2027 2027 2027 2027 2027 2027 
2027 2027 2027 2027 2027 2027 2027 2027 2027 
2027 2027 2027 2027 2027 2027 2027 2027 2027 
2027 2027 2027 2027 2027 2027 2027 2027 2027 
2027 2027 2027 2027 2027 2027 2027 2027 2027 
2027 2027 2027 2027 2027 2027 2027 2027 2027 
2027 2027 2027 2027 2027 2027 2027 2027 2027 
2027 2027 2027 2027 2027 2027 2027 2027 2027 
2027 2027 2027 2027 2027 2027 2027 2027 2027 
2027 2027 2027 2027 2027 2027 2027 2027 2027 
2027 2027 2027 2027 2027 2027 2027 2027 2027 
2027 2027 2027 2027 2027 2027 2027 2027 2027 
2027 2027 2027 2027 2027 2027 2027 2027 2027 
2027 2027 2027 2027 2027 2027 2027 2027 2027 
2027 2027 2027 2027 2027 2027 2027 2027 2027 
2027 2027 2027 2027 2027 2027 2027 2027 2027 
2027 2027 2027 2027 2027 2027 2027 2027 2027 
2027 2027 2027 2027 2027 2027 2027 2027 2027 
2027 2027 2027 2027 2027 2027 2027 2027 2027 
2027 2027 2027 2027 2027 2027 2027 2027 2027 
2027 2027 2027 2027 2027 2027 2027 2027 2027 
2027 2027 2027 2027 2027 2027 2027 2027 2027 
2027 2027 2027 2027 2027 2027 2027 2027 2027 
2027 2027 2027 2027 2027 2027 2027 2027 2027 
2027 2027 2027 2027 2027 2027 2027 2027 2027 
2027 2027 2027 2027 2027 2027 2027 2027 2027 
2027 2027 2027 2027 2027 2027 2027 2027 2027 
2027 2027 2027 2027 2027 2027 2027 2027 2027 
2027 2027 2027 2027 2027 2027 2027 2027 2027 
2027 2027 2027 2027 2027 2027 2027 2027 2027 
2027 2027 2027 2027 2027 2027 2027 2027 2027 
2027 2027 2027 2027 2027 2027 2027 2027 2027 
2027 2027 2027 2027 2027 2027 2027 2027 2027 
2027 2027 2027 2027 2027 2027 2027 2027 2027 
2027 2027 2027 2027 2027 2027 2027 2027 2027 
2027 2027 2027 2027 2027 2027 2027 2027 2027 
2027 2027 2027 2027 2027 2027 2027 2027 2027 
2027 2027 2027 2027 2027 2027 2027 2027 2027 
2027 2027 2027 2027 2027 2027 2027 2027 2027 
2027 2027 2027 2027 2027 2027 2027 2027 2027 
2027 2027 2027 2027 2027 2027 2027 2027 2027 
2027 2027 2027 2027 2027 2027 2027 2027 2027 
2027 2027 2027 2027 2027 2027 2027 2027 2027 
2027 2027 2027 2027 2027 2027 2027 2027 2027 
2027 2027 2027 2027 2027 2027 2027 2027 2027 
2027 2027 2027 2027 2027 2027 2027 2027 2027 
2027 2027 2027 2027 2027 2027 2027 2027 2027 
2027 2027 2027 2027 2027 2027 2027 2027 2027 
2027 2027 2027 2027 2027 2027 2027 2027 2027 
2027 2027 2027 2027 2027 2027 2027 2027 2027 
2027 2027 2027 2027 2027 2027 2027 2027 2027 
2027 2027 2027 2027 2027 2027 2027 2027 2027 
2027 2027 2027 2027 2027 2027 2027 2027 2027 
2027 2027 2027 2027 2027 2027 2027 2027 2027 
2027 2027 2027 2027 2027 2027 2027 2027 2027 
2027 2027 2027 2027 2027 2027 2027 2027 2027 
2027 2027 2027 2027 2027 2027 2027 2027 2027 
2027 2027 2027 2027 2027 2027 2027 2027 2027 
2027 2027 2027 2027 2027 2027 2027 2027 2027 
2027 2027 2027 2027 2027 2027 2027 2027 2027 
2027 2027 2027 2027 2027 2027 2027 2027 2027 
2027 2027 2027 2027 2027 2027 2027 2027 2027 
2027 2027 2027 2027 2027 2027 2027 2027 2027 
2027 2027 2027 2027 2027 2027 2027 2027 2027 
2027 2027 2027 2027 2027 2027 2027 2027 2027 
2027 2027 2027 2027 2027 2027 2027 2027 2027 
2027 2027 2027 2027 2027 2027 2027 2027 2027 
2027 2027 2027 2027 2027 2027 2027 2027 2027 
2027 2027 2027 2027 2027 2027 2027 2027 2027 
2027 2027 2027 2027 2027 2027 2027 2027 2027 
2027 2027 2027 2027 2027 2027 2027 2027 2027 
2027 2027 2027 2027 2027 2027 2027 2027 2027 
2027 2027 2027 2027 2027 2027 2027 2027 2027 
2027 2027 2027 2027 2027 2027 2027 2027 2027 
2027 2027 2027 2027 2027 2027 2027 2027 2027 
2027 2027 2027 2027 2027 2027 2027 2027 2027 
2027 2027 2027 2027 2027 2027 2027 2027 2027 
2027 2027 2027 2027 2027 2027 2027 2027 2027 
2027 2027 2027 2027 2027 2027 2027 2027 2027 
2027 2027 2027 2027 2027 2027 2027 2027 2027 
2027 2027 2027 2027 2027 2027 2027 2027 2027 
2027 2027 2027 2027 2027 2027 2027 2027 2027 
2027 2027 2027 2027 2027 2027 2027 2027 2027 
2027 2027 2027 2027 2027 2027 2027 2027 2027 
2027 2027 2027 2027 2027 2027 2027 2027 2027 
2027 2027 2027 2027 2027 2027 2027 2027 2027 
2027 2027 2027 2027 2027 2027 2027 2027 2027 
2027 2027 2027 2027 2027 2027 2027 2027 2027 
2027 2027 2027 2027 2027 2027 2027 2027 2027 
2027 2027 2027 2027 2027 2027 2027 2027 2027 
2027 2027 2027 2027 2027 2027 2027 2027 2027 
2027 2027 2027 2027 2027 2027 2027 2027 2027 
2027 2027 2027 2027 2027 2027 2027 2027 2027 
2027 2027 2027 2027 2027 2027 2027 2027 2027 
2027 2027 2027 2027 2027 2027 2027 2027 2027 
2027 2027 2027 2027 2027 2027 2027 2027 2027 
2027 2027 2027 2027 2027 2027 2027 2027 2027 
2027 2027 2027 2027 2027 2027 2027 2027 2027 
2027 2027 2027 2027 2027 2027 2027 2027 2027 
2027 2027 2027 2027 2027 2027 2027 2027 2027 
2027 2027 2027 2027 2027 2027 2027 2027 2027 
2027 2027 2027 2027 2027 2027 2027 2027 2027 
2027 2027 2027 2027 2027 2027 2027 2027 2027 
2027 2027 2027 2027 2027 2027 2027 2027 2027 
2027 2027 2027 2027 2027 2027 2027 2027 2027 
2027 2027 2027 2027 2027 2027 2027 2027 2027 
2027 2027 2027 2027 2027 2027 2027 2027 2027 
2027 2027 2027 2027 2027 2027 2027 2027 2027 
2027 2027 2027 2027 2027 2027 2027 2027 2027 
2027 2027 2027 2027 2027 2027 2027 2027 2027 
2027 2027 2027 2027 2027 2027 2027 2027 2027 
2027 2027 2027 2027 2027 2027 2027 2027 2027 
2027 2027 2027 2027 2027 2027 2027 2027 2027 
2027 2027 2027 2027 2027 2027 2027 2027 2027 
2027 2027 2027 2027 2027 2027 2027 2027 2027 
2027 2027 2027 2027 2027 2027 2027 2027 2027 
2027 2027 2027 2027 2027 2027 2027 2027 2027 
2027 2027 2027 2027 2027 2027 2027 2027 2027 
2027 2027 2027 2027 2027 2027 2027 2027 2027 
2027 2027 2027 2027 2027 2027 2027 2027 2027 
2027 2027 2027 2027 2027 2027 2027 2027 2027 
2027 2027 2027 2027 2027 2027 2027 2027 2027 
2027 2027 2027 2027 2027 2027 2027 2027 2027 
2027 2027 2027 2027 2027 2027 2027 2027 2027 
2027 2027 2027 2027 2027 2027 2027 2027 2027 
2027 2027 2027 2027 2027 2027 2027 2027 2027 
2027 2027 2027 2027 2027 2027 2027 2027 2027 
2027 2027 2027 2027 2027 2027 2027 2027 2027 
2027 2027 2027 2027 2027 2027 2027 2027 2027 
2027 2027 2027 2027 2027 2027 2027 2027 2027 
2027 2027 2027 2027 2027 2027 2027 2027 2027 
2027 2027 2027 2027 2027 2027 2027 2027 2027 
2027 2027 2027 2027 2027 2027 2027 2027 2027 
2027 2027 2027 2027 2027 2027 2027 2027 2027 
2027 2027 2027 2027 2027 2027 2027 2027 2027 
2027 2027 2027 2027 2027 2027 2027 2027 2027 
2027 2027 2027 2027 2027 2027 2027 2027 2027 
2027 2027 2027 2027 2027 2027 2027 2027 2027 
2027 2027 2027 2027 2027 2027 2027 2027 2027 
2027 2027 2027 2027 2027 2027 2027 2027 2027 
2027 2027 2027 2027 2027 2027 2027 2027 2027 
2027 2027 2027 2027 2027 2027 2027 2027 2027 
2027 2027 2027 2027 2027 2027 2027 2027 2027 
2027 2027 2027 2027 2027 2027 2027 2027 2027 
2027 2027 2027 2027 2027 2027 2027 2027 2027 
2027 2027 2027 2027 2027 2027 2027 2027 2027 
2027 2027 2027 2027 2027 2027 2027 2027 2027 
2027 2027 2027 2027 2027 2027 2027 2027 2027 
2027 2027 2027 2027 2027 2027 2027 2027 2027 
2027 2027 2027 2027 2027 2027 2027 2027 2027 
2027 2027 2027 2027 2027 2027 2027 2027 2027 
2027 2027 2027 2027 2027 2027 2027 2027 2027 
2027 2027 2027 2027 2027 2027 2027 2027 2027 
2027 2027 2027 2027 2027 2027 2027 2027 2027 
2027 2027 2027 2027 2027 2027 2027 2027 2027 
2027 2027 2027 2027 2027 2027 2027 2027 2027 
2027 2027 2027 2027 2027 2027 2027 2027 2027 
2027 2027 2027 2027 2027 2027 2027 2027 2027 
2027 2027 2027 2027 2027 2027 2027 2027 2027 
2027 2027 2027 2027 2027 2027 2027 2027 2027 
2027 2027 2027 2027 2027 2027 2027 2027 2027 
2027 2027 2027 2027 2027 2027 2027 2027 2027 
2027 2027 2027 2027 2027 2027 2027 2027 2027 
2027 2027 2027 2027 2027 2027 2027 2027 2027 
2027 2027 2027 2027 2027 2027 2027 2027 2027 
2027 2027 2027 2027 2027 2027 2027 2027 2027 
2027 2027 2027 2027 2027 2027 2027 2027 2027 
2027 2027 2027 2027 2027 2027 2027 2027 2027 
2027 2027 2027 2027 2027 2027 2027 2027 2027 
2027 2027 2027 2027 2027 2027 2027 2027 2027 
2027 2027 2027 2027 2027 2027 2027 2027 2027 
2027 2027 2027 2027 2027 2027 2027 2027 2027 
2027 2027 2027 2027 2027 2027 2027 2027 2027 
2027 2027 2027 2027 2027 2027 2027 2027 2027 
2027 2027 2027 2027 2027 2027 2027 2027 2027 
2027 2027 2027 2027 2027 2027 2027 2027 2027 
2027 2027 2027 2027 2027 2027 2027 2027 2027 
2027 2027 2027 2027 2027 2027 2027 2027 2027 
2027 2027 2027 2027 2027 2027 2027 2027 2027 
2027 2027 2027 2027 2027 2027 2027 2027 2027 
2027 2027 2027 2027 2027 2027 2027 2027 2027 
2027 2027 2027 2027 2027 2027 2027 2027 2027 
2027 2027 2027 2027 2027 2027 2027 2027 2027 
2027 2027 2027 2027 2027 2027 2027 2027 2027 
2027 2027 2027 2027 2027 2027 2027 2027 2027 
2027 2027 2027 2027 2027 2027 2027 2027 2027 
2027 2027 2027 2027 2027 2027 2027 2027 2027 
2027 2027 2027 2027 2027 2027 2027 2027 2027 
2027 2027 2027 2027 2027 2027 2027 2027 2027 
2027 2027 2027 2027 2027 2027 2027 2027 2027 
2027 2027 2027 2027 2027 2027 2027 2027 2027 
2027 2027 2027 2027 2027 2027 2027 2027 2027 
2027 2027 2027 2027 2027 2027 2027 2027 2027 
2027 2027 2027 2027 2027 2027 2027 2027 2027 
2027 2027 2027 2027 2027 2027 2027 2027 2027 
2027 2027 2027 2027 2027 2027 2027 2027 2027 
2027 2027 2027 2027 2027 2027 2027 2027 2027 
2027 2027 2027 2027 2027 2027 2027 2027 2027 
2027 2027 2027 2027 2027 2027 2027 2027 2027 
2027 2027 2027 2027 2027 2027 2027 2027 2027 
2027 2027 2027 2027 2027 2027 2027 2027 2027 
2027 2027 2027 2027 2027 2027 2027 2027 2027 
2027 2027 2027 2027 2027 2027 2027 2027 2027 
2027 2027 2027 2027 2027 2027 2027 2027 2027 
2027 2027 2027 2027 2027 2027 2027 2027 2027 
2027 2027 2027 2027 2027 2027 2027 2027 2027 
2027 2027 2027 2027 2027 2027 2027 2027 2027 
2027 2027 2027 2027 2027 2027 2027 2027 2027 
2027 2027 2027 2027 2027 2027 2027 2027 2027 
2027 2027 2027 2027 2027 2027 2027 2027 2027 
2027 2027 2027 2027 2027 2027 2027 2027 2027 
2027 2027 2027 2027 2027 2027 2027 2027 2027 
2027 2027 2027 2027 2027 2027 2027 2027 2027 
2027 2027 2027 2027 2027 2027 2027 2027 2027 
2027 2027 2027 2027 2027 2027 2027 2027 2027 
2027 2027 2027 2027 2027 2027 2027 2027 2027 
2027 2027 2027 2027 2027 2027 2027 2027 2027 
2027 2027 2027 2027 2027 2027 2027 2027 2027 
2027 2027 2027 2027 2027 2027 2027 2027 2027 
2027 2027 2027 2027 2027 2027 2027 2027 2027 
2027 2027 2027 2027 2027 2027 2027 2027 2027 
2027 2027 2027 2027 2027 2027 2027 2027 2027 
2027 2027 2027 2027 2027 2027 2027 2027 2027 
2027 2027 2027 2027 2027 2027 2027 2027 2027 
2027 2027 2027 2027 2027 2027 2027 2027 2027 
2027 2027 2027 2027 2027 2027 2027 2027 2027 
2027 2027 2027 2027 2027 2027 2027 2027 2027 
2027 2027 2027 2027 2027 2027 2027 2027 2027 
2027 2027 2027 2027 2027 2027 2027 2027 2027 
2027 2027 2027 2027 2027 2027 2027 2027 2027 
2027 2027 2027 2027 2027 2027 2027 2027 2027 
2027 2027 2027 2027 2027 2027 2027 2027 2027 
2027 2027 2027 2027 2027 2027 2027 2027 2027 
2027 2027 2027 2027 2027 2027 2027 2027 2027 
2027 2027 2027 2027 2027 2027 2027 2027 2027 
2027 2027 2027 2027 2027 2027 2027 2027 2027 
2027 2027 2027 2027 2027 2027 2027 2027 2027 
2027 2027 2027 2027 2027 2027 2027 2027 2027 
2027 2027 2027 2027 2027 2027 2027 2027 2027 
2027 2027 2027 2027 2027 2027 2027 2027 2027 
2027 2027 2027 2027 2027 2027 2027 2027 2027 
2027 2027 2027 2027 2027 2027 2027 2027 2027 
2027 2027 2027 2027 2027 2027 2027 2027 2027 
2027 2027 2027 2027 2027 2027 2027 2027 2027 
2027 2027 2027 2027 2027 2027 2027 2027 2027 
2027 2027 2027 2027 2027 2027 2027 2027 2027 
2027 2027 2027 2027 2027 2027 2027 2027 2027 
2027 2027 2027 2027 2027 2027 2027 2027 2027 
2027 2027 2027 2027 2027 2027 2027 2027 2027 
2027 2027 2027 2027 2027 2027 2027 2027 2027 
2027 2027 2027 2027 2027 2027 2027 2027 2027 
2027 2027 2027 2027 2027 2027 2027 2027 2027 
2027 2027 2027 2027 2027 2027 2027 2027 2027 
2027 2027 2027 2027 2027 2027 2027 2027 2027 
2027 2027 2027 2027 2027 2027 2027 2027 2027 
2027 2027 2027 2027 2027 2027 2027 2027 2027 
2027 2027 2027 2027 2027 2027 2027 2027 2027 
2027 2027 2027 2027 2027 2027 2027 2027 2027 
2027 2027 2027 2027 2027 2027 2027 2027 2027 
2027 2027 2027 2027 2027 2027 2027 2027 2027 
2027 2027 2027 2027 2027 2027 2027 2027 2027 
2027 2027 2027 2027 2027 2027 2027 2027 2027 
2027 2027 2027 2027 2027 2027 2027 2027 2027 
2027 2027 2027 2027 2027 2027 2027 2027 2027 
2027 2027 2027 2027 2027 2027 2027 2027 2027 
2027 2027 2027 2027 2027 2027 2027 2027 2027 
2027 2027 2027 2027 2027 2027 2027 2027 2027 
2027 2027 2027 2027 2027 2027 2027 2027 2027 
2027 2027 2027 2027 2027 2027 2027 2027 2027 
2027 2027 2027 2027 2027 2027 2027 2027 2027 
2027 2027 2027 2027 2027 2027 2027 2027 2027 
2027 2027 2027 2027 2027 2027 2027 2027 2027 
2027 2027 2027 2027 2027 2027 2027 2027 2027 
2027 2027 2027 2027 2027 2027 2027 2027 2027 
2027 2027 2027 2027 2027 2027 2027 2027 2027 
2027 2027 2027 2027 2027 2027 2027 2027 2027 
2027 2027 2027 2027 2027 2027 2027 2027 2027 
2027 2027 2027 2027 2027 2027 2027 2027 2027 
2027 2027 2027 2027 2027 2027 2027 2027 2027 
2027 2027 2027 2027 2027 2027 2027 2027 2027 
2027 2027 2027 2027 2027 2027 2027 2027 2027 
2027 2027 2027 2027 2027 2027 2027 2027 2027 
2027 2027 2027 2027 2027 2027 2027 2027 2027 
2027 2027 2027 2027 2027 2027 2027 2027 2027 
2027 2027 2027 2027 2027 2027 2027 2027 2027 
2027 2027 2027 2027 2027 2027 2027 2027 2027 
2027 2027 2027 2027 2027 2027 2027 2027 2027 
2027 2027 2027 2027 2027 2027 2027 2027 2027 
2027 2027 2027 2027 2027 2027 2027 2027 2027 
2027 2027 2027 2027 2027 2027 2027 2027 2027 
2027 2027 2027 2027 2027 2027 2027 2027 2027 
2027 2027 2027 2027 2027 2027 2027 2027 2027 
2027 2027 2027 2027 2027 2027 2027 2027 2027 
2027 2027 2027 2027 2027 2027 2027 2027 2027 
2027 2027 2027 2027 2027 2027 2027 2027 2027 
2027 2027 2027 2027 2027 2027 2027 2027 2027 
2027 2027 2027 2027 2027 2027 2027 2027 2027 
2027 2027 2027 2027 2027 2027 2027 2027 2027 
2027 2027 2027 2027 2027 2027 2027 2027 2027 
2027 2027 2027 2027 2027 2027 2027 2027 2027 
2027 2027 2027 2027 2027 2027 2027 2027 2027 
2027 2027 2027 2027 2027 2027 2027 2027 2027 
2027 2027 2027 2027 2027 2027 2027 2027 2027 
2027 2027 2027 2027 2027 2027 2027 2027 2027 
2027 2027 2027 2027 2027 2027 2027 2027 2027 
2027 2027 2027 2027 2027 2027 2027 2027 2027 
2027 2027 2027 2027 2027 2027 2027 2027 2027 
2027 2027 2027 2027 2027 2027 2027 2027 2027 
2027 2027 2027 2027 2027 2027 2027 2027 2027 
2027 2027 2027 2027 2027 2027 2027 2027 2027 
2027 2027 2027 2027 2027 2027 2027 2027 2027 
2027 2027 2027 2027 2027 2027 2027 2027 2027 
2027 2027 2027 2027 2027 2027 2027 2027 2027 
2027 2027 2027 2027 2027 2027 2027 2027 2027 
2027 2027 2027 2027 2027 2027 2027 2027 2027 
2027 2027 2027 2027 2027 2027 2027 2027 2027 
2027 2027 2027 2027 2027 2027 2027 2027 2027 
2027 2027 2027 2027 2027 2027 2027 2027 2027 
2027 2027 2027 2027 2027 2027 2027 2027 2027 
2027 2027 2027 2027 2027 2027 2027 2027 2027 
2027 2027 2027 2027 2027 2027 2027 2027 2027 
2027 2027 2027 2027 2027 2027 2027 2027 2027 
2027 2027 2027 2027 2027 2027 2027 2027 2027 
2027 2027 2027 2027 2027 2027 2027 2027 2027 
2027 2027 2027 2027 2027 2027 2027 2027 2027 
2027 2027 2027 2027 2027 2027 2027 2027 2027 
2027 2027 2027 2027 2027 2027 2027 2027 2027 
2027 2027 2027 2027 2027 2027 2027 2027 2027 
2027 2027 2027 2027 2027 2027 2027 2027 2027 
2027 2027 2027 2027 2027 2027 2027 2027 2027 
2027 2027 2027 2027 2027 2027 2027 2027 2027 
2027 2027 2027 2027 2027 2027 2027 2027 2027 
2027 2027 2027 2027 2027 2027 2027 2027 2027 
2027 2027 2027 2027 2027 2027 2027 2027 2027 
2027 2027 2027 2027 2027 2027 2027 2027 2027 
2027 2027 2027 2027 2027 2027 2027 2027 2027 
2027 2027 2027 2027 2027 2027 2027 2027 2027 
2027 2027 2027 2027 2027 2027 2027 2027 2027 
2027 2027 2027 2027 2027 2027 2027 2027 2027 
2027 2027 2027 2027 2027 2027 2027 2027 2027 
2027 2027 2027 2027 2027 2027 2027 2027 2027 
2027 2027 2027 2027 2027 2027 2027 2027 2027 
2027 2027 2027 2027 2027 2027 2027 2027 2027 
2027 2027 2027 2027 2027 2027 2027 2027 2027 
2027 2027 2027 2027 2027 2027 2027 2027 2027 
2027 2027 2027 2027 2027 2027 2027 2027 2027 
2027 2027 2027 2027 2027 2027 2027 2027 2027 
2027 2027 2027 2027 2027 2027 2027 2027 2027 
2027 2027 2027 2027 2027 2027 2027 2027 2027 
2027 2027 2027 2027 2027 2027 2027 2027 2027 
2027 2027 2027 2027 2027 2027 2027 2027 2027 
2027 2027 2027 2027 2027 2027 2027 2027 2027 
2027 2027 2027 2027 2027 2027 2027 2027 2027 
2027 2027 2027 2027 2027 2027 2027 2027 2027 
2027 2027 2027 2027 2027 2027 2027 2027 2027 
2027 2027 2027 2027 2027 2027 2027 2027 2027 
2027 2027 2027 2027 2027 2027 2027 2027 2027 
2027 2027 2027 2027 2027 2027 2027 2027 2027 
2027 2027 2027 2027 2027 2027 2027 2027 2027 
2027 2027 2027 2027 2027 2027 2027 2027 2027 
2027 2027 2027 2027 2027 2027 2027 2027 2027 
2027 2027 2027 2027 2027 2027 2027 2027 2027 
2027 2027 2027 2027 2027 2027 2027 2027 2027 
2027 2027 2027 2027 2027 2027 2027 2027 2027 
2027 2027 2027 2027 2027 2027 2027 2027 2027 
2027 2027 2027 2027 2027 2027 2027 2027 2027 
2027 2027 2027 2027 2027 2027 2027 2027 2027 
2027 2027 2027 2027 2027 2027 2027 2027 2027 
2027 2027 2027 2027 2027 2027 2027 2027 2027 
2027 2027 2027 2027 2027 2027 2027 2027 2027 
2027 2027 2027 2027 2027 2027 2027 2027 2027 
2027 2027 2027 2027 2027 2027 2027 2027 2027 
2027 2027 2027 2027 2027 2027 2027 2027 2027 
2027 2027 2027 2027 2027 2027 2027 2027 2027 
2027 2027 2027 2027 2027 2027 2027 2027 2027 
2027 2027 2027 2027 2027 2027 2027 2027 2027 
2027 2027 2027 2027 2027 2027 2027 2027 2027 
2027 2027 2027 2027 2027 2027 2027 2027 2027 
2027 2027 2027 2027 2027 2027 2027 2027 2027 
2027 2027 2027 2027 2027 2027 2027 2027 2027 
2027 2027 2027 2027 2027 2027 2027 2027 2027 
2027 2027 2027 2027 2027 2027 2027 2027 2027 
2027 2027 2027 2027 2027 2027 2027 2027 2027 
2027 2027 2027 2027 2027 2027 2027 2027 2027 
2027 2027 2027 2027 2027 2027 2027 2027 2027 
2027 2027 2027 2027 2027 2027 2027 2027 2027 
2027 2027 2027 2027 2027 2027 2027 2027 2027 
2027 2027 2027 2027 2027 2027 2027 2027 2027 
2027 2027 2027 2027 2027 2027 2027 2027 2027 
2027 2027 2027 2027 2027 2027 2027 2027 2027 
2027 2027 2027 2027 2027 2027 2027 2027 2027 
2027 2027 2027 2027 2027 2027 2027 2027 2027 
2027 2027 2027 2027 2027 2027 2027 2027 2027 
2027 2027 2027 2027 2027 2027 2027 2027 2027 
2027 2027 2027 2027 2027 2027 2027 2027 2027 
2027 2027 2027 2027 2027 2027 2027 2027 2027 
2027 2027 2027 2027 2027 2027 2027 2027 2027 
2027 2027 2027 2027 2027 2027 2027 2027 2027 
2027 2027 2027 2027 2027 2027 2027 2027 2027 
2027 2027 2027 2027 2027 2027 2027 2027 2027 
2027 2027 2027 2027 2027 2027 2027 2027 2027 
2027 2027 2027 2027 2027 2027 2027 2027 2027 
2027 2027 2027 2027 2027 2027 2027 2027 2027 
2027 2027 2027 2027 2027 2027 2027 2027 2027 
2027 2027 2027 2027 2027 2027 2027 2027 2027 
2027 2027 2027 2027 2027 2027 2027 2027 2027 
2027 2027 2027 2027 2027 2027 2027 2027 2027 
2027 2027 2027 2027 2027 2027 2027 2027 2027 
2027 2027 2027 2027 2027 2027 2027 2027 2027 
2027 2027 2027 2027 2027 2027 2027 2027 2027 
2027 2027 2027 2027 2027 2027 2027 2027 2027 