# vtk DataFile Version 4.2
vtk output
ASCII
DATASET POLYDATA
POINTS 5558 float
-4.253 64.2646 20.7891 -4.35305 64.6592 20.346 -4.5387 64.2357 20.5829 
-4.02761 64.5271 20.3341 -4.36418 63.7573 20.759 -4.62604 63.7191 20.3345 
-3.86925 63.8541 20.4137 -4.36148 63.1434 20.3368 -3.23556 62.7696 20.6149 
-3.5083 62.6052 20.5423 -3.23167 62.5237 20.6668 -3.0055 62.5879 20.2293 
-3.42392 62.1097 20.2664 -5.27805 65.5371 19.6306 -5.19605 65.761 19.2331 
-5.49829 65.5221 19.4658 -4.90083 65.5879 19.3672 -5.34351 65.1991 19.3246 
-4.7217 64.382 19.707 -4.0427 64.9484 19.4513 -3.62099 64.4913 19.5868 
-4.93646 63.3277 19.7719 -3.1336 64.0233 19.4293 -3.46494 63.1183 20.2413 
-2.74878 63.2455 19.4346 -5.03786 62.5151 19.8697 -5.4929 62.8059 19.4316 
-5.73617 62.0571 19.5034 -4.258 62.3218 20.103 -2.75377 62.4992 19.5644 
-5.24122 61.7569 19.7302 -5.73794 61.4935 19.4997 -4.75091 61.6314 19.5915 
-4.03924 61.7258 19.7418 -3.35899 61.3532 19.8181 -3.8675 61.0987 19.5113 
-2.89073 61.7771 19.5971 -5.46209 61.1852 19.2648 -3.36267 60.712 19.6712 
-3.59803 60.4033 19.4439 -2.82597 60.7934 19.3548 -3.08828 60.2081 19.4592 
-5.03337 66.0263 18.4778 -5.72665 65.5208 18.7826 -4.55346 65.2421 19.1281 
-4.54157 65.8233 18.7189 -3.86873 65.4796 18.299 -6.12675 64.3788 18.8849 
-6.33655 64.9695 18.508 -6.94924 64.2213 18.2396 -5.22008 64.5791 19.1685 
-3.22157 64.5366 18.9656 -3.28933 64.9213 18.5061 -2.71909 64.5464 18.4666 
-7.38595 63.7441 18.4637 -7.46006 63.474 18.4798 -7.00516 63.5434 18.7133 
-6.33549 63.4707 18.9637 -5.55966 63.621 19.1807 -2.28737 63.341 18.745 
-2.38472 63.9895 18.7224 -1.91417 63.5999 18.1347 -7.12106 63.0658 18.4173 
-6.85635 62.2288 18.361 -6.33258 62.6988 18.9762 -2.57835 62.3883 18.7071 
-2.15192 62.8708 18.3201 -6.20313 61.574 19.005 -6.77692 61.377 18.3301 
-4.58867 61.1957 19.2737 -2.6131 61.3465 18.5302 -6.19869 60.929 18.4867 
-5.16331 60.447 18.952 -5.69551 60.4069 18.4344 -4.16414 60.4399 19.165 
-2.33349 60.7659 18.5725 -2.37963 60.1006 18.985 -1.96904 60.4659 18.2455 
-5.22492 59.4577 18.9175 -5.62058 59.3076 18.4751 -4.32144 59.4555 19.0458 
-3.19333 59.5632 19.1664 -2.19588 59.2575 18.9143 -1.80283 59.7251 18.3631 
-5.37375 58.6532 18.8317 -5.67489 58.2252 18.2978 -4.60772 58.5683 18.9134 
-3.55262 58.5693 18.9134 -2.55431 58.5536 18.8558 -1.83153 58.6385 18.2902 
-5.05443 57.9619 18.5367 -4.00014 57.923 18.3781 -3.06009 58.0716 18.5434 
-2.34039 57.9414 18.2728 -5.30976 66.2932 17.8889 -5.34079 66.8421 17.1161 
-5.85532 66.3913 17.5649 -4.65143 66.639 17.3305 -6.31294 65.522 17.9986 
-6.28469 66.0519 17.535 -6.80537 65.5137 17.4974 -4.39224 66.121 17.8089 
-3.71082 65.7061 17.1491 -7.12376 64.7315 17.7505 -7.30571 64.9766 17.4662 
-7.55741 64.6154 17.3876 -3.23521 65.1834 17.5804 -2.11837 64.3731 18.0341 
-2.54806 64.7801 17.5731 -1.94944 64.1505 17.494 -9.03988 63.3447 17.8667 
-9.10861 63.7674 17.3657 -9.62162 63.1529 17.4884 -8.53353 63.8008 17.6093 
-8.22702 63.2427 17.8643 -7.75143 63.4705 17.4724 -7.31362 63.5716 18.2339 
-7.37428 64.0593 17.5316 -7.1054 63.2667 17.8107 -1.86084 63.3147 17.4899 
-9.37326 62.7352 17.8109 -9.64429 62.5143 17.3206 -8.43579 62.498 17.9069 
-7.43105 62.7111 17.8485 -7.23713 63.1563 17.4545 -2.3405 62.2631 17.9123 
-2.0096 62.6905 17.7379 -9.13832 62.2209 17.5195 -8.37115 61.7885 17.4478 
-7.76509 61.4033 17.4845 -7.45671 61.7547 17.9095 -5.37199 61.1518 17.831 
-5.66901 61.6528 17.4612 -5.22716 61.807 17.562 -4.88653 61.7343 17.2801 
-2.56986 61.6658 17.4098 -2.37235 62.1537 17.3325 -8.27627 60.4244 17.669 
-8.26262 60.6846 17.5747 -8.61329 60.4655 17.3746 -7.16992 61.1339 17.6059 
-8.0989 60.5492 17.4096 -6.33892 61.1222 17.4973 -5.27962 60.1783 18.0699 
-4.82647 60.7697 17.4053 -2.24335 60.9717 17.727 -1.85032 60.3688 17.4654 
-8.38179 60.1727 17.2287 -5.37528 59.3665 17.8951 -4.93878 59.7794 17.3896 
-1.67198 59.4721 17.4767 -5.28262 59.0029 17.1786 -5.70906 58.6027 17.7095 
-1.65914 58.5824 17.3523 -5.38196 57.5467 18.0048 -5.68507 57.6167 17.344 
-4.66539 57.4325 17.9197 -3.87977 57.488 17.6617 -3.08132 57.6881 17.8737 
-2.32203 57.5005 17.7543 -2.6217 57.2411 17.4239 -1.82198 57.6076 17.4498 
-5.13898 57.1585 17.472 -4.396 57.0659 17.2743 -2.10687 57.0239 17.3244 
-6.33621 66.3708 17.1057 -6.22215 66.8993 16.2557 -6.87643 66.3692 16.5806 
-5.06329 67.068 16.3246 -4.14405 66.3989 17.0607 -4.46462 66.8505 16.6787 
-3.93359 66.3553 16.3897 -7.31055 65.4828 16.9978 -7.33189 66.0208 16.4979 
-7.83452 65.5222 16.4807 -3.60806 65.6148 16.1519 -8.1416 64.3367 17.0239 
-8.39986 65.0563 16.3255 -8.66934 64.5302 16.2605 -3.06645 64.9986 16.7214 
-2.3853 64.4708 16.9431 -2.75007 64.3224 16.3181 -9.45812 63.313 16.9595 
-8.95256 63.7962 16.4888 -7.40895 63.5882 17.2891 -2.20092 63.7101 16.9368 
-2.62277 63.4302 16.3178 -9.36023 63.0314 16.1942 -9.67598 62.7076 16.7391 
-5.34591 62.2215 17.0128 -5.87218 62.3576 16.5447 -5.49559 62.7776 16.203 
-4.88181 62.4442 16.392 -2.23673 62.7598 17.0676 -2.66068 62.3697 16.5029 
-9.32862 61.9072 16.676 -8.25436 61.0747 17.1067 -9.10856 61.2875 16.591 
-6.07245 61.7926 16.9184 -6.67211 61.5414 16.5238 -6.28315 62.0138 16.4615 
-4.65006 61.5626 16.4809 -2.66976 61.4197 16.1539 -9.10864 60.6613 16.8165 
-9.54428 60.9479 16.2765 -9.49586 60.3213 16.282 -7.29373 61.0413 16.7718 
-7.92888 60.5679 16.6891 -4.79968 60.3823 16.4999 -2.27473 60.903 16.7705 
-1.94951 60.1272 16.5934 -9.03001 60.0844 16.7424 -8.56672 60.0567 16.3675 
-4.97183 59.4351 16.7161 -1.8426 59.18 16.6001 -5.2684 58.9918 16.5776 
-5.75058 58.3405 16.6035 -1.82828 58.1488 16.6247 -5.78212 57.3266 16.4948 
-3.39261 57.0897 17.2108 -1.86694 57.2245 16.538 -5.16541 56.8629 16.7881 
-4.22688 56.6261 16.8167 -4.83076 56.2601 16.3106 -3.42805 56.4606 16.7997 
-2.55804 56.5804 16.9255 -1.9597 56.6691 16.7821 -4.02859 56.1943 16.4598 
-3.0728 56.0064 16.2806 -2.32607 56.2332 16.5093 -7.36226 66.3467 16.0953 
-7.19062 66.803 15.4179 -7.83552 66.334 15.4641 -6.47397 67.1777 15.2863 
-5.33699 67.1836 15.4947 -4.37872 66.8919 15.8001 -3.89721 66.3336 15.4577 
-8.15631 65.7511 15.9109 -8.33388 65.9182 15.1278 -8.61511 65.1972 15.657 
-3.63931 65.6185 15.1755 -8.80362 64.4419 15.5172 -3.27476 64.9507 15.7368 
-2.93783 64.3098 15.4659 -9.00347 63.581 15.5427 -2.77558 63.4485 15.4581 
-9.33861 63.0769 15.3893 -9.76299 62.4576 15.6497 -6.34665 62.3226 16.0608 
-6.79857 62.5119 15.4794 -5.92201 62.9862 15.47 -5.18085 62.9324 15.5929 
-4.80556 62.4113 15.4719 -2.77838 62.4516 15.4581 -10.0072 61.459 15.8472 
-10.3568 61.8965 15.151 -10.55 61.3569 15.2611 -9.47556 61.4633 16.3073 
-7.31023 61.4347 15.9872 -7.8087 61.4028 15.3555 -7.38679 62.0222 15.3506 
-4.84887 61.436 15.5611 -2.79084 61.6063 15.2907 -10.3519 61.0464 15.4268 
-9.85986 60.5459 15.4389 -8.29565 60.8293 15.1548 -8.09979 60.6215 15.9152 
-8.6332 60.253 15.5834 -5.12023 60.5549 15.7902 -5.20467 60.9981 15.4376 
-5.65084 60.3213 15.4136 -2.36453 60.5662 16.0834 -2.66201 60.5906 15.4251 
-9.19915 60.0593 15.6457 -5.39609 59.4795 16.072 -5.9734 59.3891 15.553 
-2.25915 59.7681 15.9281 -2.60464 59.4967 15.2928 -6.10374 58.6473 15.823 
-6.32997 58.9632 15.4699 -6.70153 58.3079 15.404 -2.21911 58.7579 15.9414 
-2.60566 58.4839 15.3073 -6.21099 57.5376 15.9607 -6.83753 57.1664 15.4974 
-2.21589 57.6951 15.9536 -2.73643 57.317 15.2094 -6.22676 56.4579 15.8575 
-6.82378 56.1601 15.5349 -5.62422 56.624 16.1761 -2.33858 56.5282 16.0165 
-2.6159 56.4183 15.3486 -6.27894 55.6748 15.7401 -6.65322 55.3503 15.4321 
-5.43478 55.7262 15.8033 -4.23842 55.7569 15.8354 -4.81767 55.3211 15.2883 
-3.1246 55.285 15.8263 -3.85438 55.1579 15.5329 -2.63753 55.4821 15.338 
-5.95732 55.0421 15.3015 -5.37433 55.1825 15.3284 -3.22291 54.6758 15.7463 
-3.59835 54.3717 15.4204 -2.36677 54.8299 15.5831 -2.51547 54.5197 15.7407 
-2.10545 54.4097 15.5404 -2.85782 54.022 15.4075 -2.26093 54.1923 15.519 
-5.94912 67.5399 14.9248 -6.34023 67.8546 14.1751 -6.72403 67.4493 14.6554 
-5.15331 67.462 14.8417 -5.48599 67.7871 14.492 -4.81254 67.5319 14.1686 
-7.17838 67.0881 14.7551 -7.83327 66.6174 14.679 -4.4205 67.0082 14.7956 
-3.89389 66.36 14.447 -8.38506 66.168 14.3247 -8.68721 65.4178 14.5715 
-3.56192 65.7611 14.2224 -8.93085 64.4172 14.5573 -6.2066 64.3445 14.6939 
-6.54953 64.3214 14.547 -6.33929 64.7859 14.3186 -6.01092 64.6061 14.2654 
-3.28135 65.062 14.7931 -2.87806 64.5494 14.3802 -9.17093 63.6089 14.8653 
-9.27614 64.063 14.229 -9.58813 63.3358 14.5111 -6.36254 63.4594 14.906 
-6.87627 63.6133 14.3807 -5.7456 63.6192 14.2598 -2.76139 63.4711 14.4789 
-10.034 62.6196 14.5413 -7.12339 62.7491 14.9262 -7.61087 62.1715 14.721 
-7.31328 62.9145 14.1595 -5.37493 62.9971 14.81 -4.99245 62.241 14.7067 
-2.8965 62.345 14.5025 -10.431 62.1605 14.3809 -10.678 61.3836 14.3245 
-8.01161 61.5699 14.5719 -5.3458 61.3693 14.9444 -5.30401 62.045 14.2988 
-5.75929 61.4769 14.3359 -2.92664 61.199 14.6291 -10.3861 60.8363 14.8621 
-9.97752 60.3699 14.6089 -8.77606 60.4574 14.6084 -8.36649 61.0838 14.4046 
-6.06227 60.6574 14.8497 -6.29013 60.9179 14.1736 -6.5638 60.2492 14.5155 
-2.91452 60.1674 14.6131 -9.51604 60.1047 14.2975 -6.45038 59.5233 15.0968 
-6.95002 59.5594 14.4671 -2.92301 59.1758 14.6255 -7.12403 58.6901 14.8561 
-7.30241 58.9869 14.4938 -7.70884 58.3278 14.4512 -3.00077 58.266 14.724 
-7.43153 57.5848 14.9815 -8.00436 57.3916 14.5728 -3.19753 57.6132 14.7 
-3.56134 57.328 14.3747 -3.46655 57.8981 14.3929 -7.96971 56.5434 14.8294 
-8.32859 56.9495 14.4913 -8.68381 56.2942 14.4467 -7.33209 56.6258 15.1831 
-3.19967 57.0273 14.6176 -2.93202 56.2602 14.7013 -8.16166 55.4257 14.8672 
-8.82604 55.176 14.5276 -7.33563 55.5591 15.1385 -4.32257 55.3913 15.3022 
-2.89171 55.2475 14.4488 -8.32506 54.5624 14.8344 -8.80939 54.1579 14.5058 
-7.61713 54.4052 14.8871 -6.63759 54.6225 14.907 -5.87271 54.5542 14.6054 
-5.22575 54.7925 14.7893 -4.30041 54.6154 15.0197 -4.83379 54.1339 14.4489 
-2.37249 54.3244 15.1961 -2.75077 54.3821 14.5201 -8.24696 53.7548 14.7226 
-8.62862 53.3592 14.4197 -7.71834 53.5696 14.576 -6.95983 53.8575 14.4657 
[...]
CELL_DATA 11120
SCALARS scalars float
LOOKUP_TABLE default
2017 2017 2017 2017 2017 2017 2017 2017 2017 
2017 2017 2017 2017 2017 2017 2017 2017 2017 
2017 2017 2017 2017 2017 2017 2017 2017 2017 
2017 2017 2017 2017 2017 2017 2017 2017 2017 
2017 2017 2017 2017 2017 2017 2017 2017 2017 
2017 2017 2017 2017 2017 2017 2017 2017 2017 
2017 2017 2017 2017 2017 2017 2017 2017 2017 
2017 2017 2017 2017 2017 2017 2017 2017 2017 
2017 2017 2017 2017 2017 2017 2017 2017 2017 
2017 2017 2017 2017 2017 2017 2017 2017 2017 
2017 2017 2017 2017 2017 2017 2017 2017 2017 
2017 2017 2017 2017 2017 2017 2017 2017 2017 
2017 2017 2017 2017 2017 2017 2017 2017 2017 
2017 2017 2017 2017 2017 2017 2017 2017 2017 
2017 2017 2017 2017 2017 2017 2017 2017 2017 
2017 2017 2017 2017 2017 2017 2017 2017 2017 
2017 2017 2017 2017 2017 2017 2017 2017 2017 
2017 2017 2017 2017 2017 2017 2017 2017 2017 
2017 2017 2017 2017 2017 2017 2017 2017 2017 
2017 2017 2017 2017 2017 2017 2017 2017 2017 
2017 2017 2017 2017 2017 2017 2017 2017 2017 
2017 2017 2017 2017 2017 2017 2017 2017 2017 
2017 2017 2017 2017 2017 2017 2017 2017 2017 
2017 2017 2017 2017 2017 2017 2017 2017 2017 
2017 2017 2017 2017 2017 2017 2017 2017 2017 
2017 2017 2017 2017 2017 2017 2017 2017 2017 
2017 2017 2017 2017 2017 2017 2017 2017 2017 
2017 2017 2017 2017 2017 2017 2017 2017 2017 
2017 2017 2017 2017 2017 2017 2017 2017 2017 
2017 2017 2017 2017 2017 2017 2017 2017 2017 
2017 2017 2017 2017 2017 2017 2017 2017 2017 
2017 2017 2017 2017 2017 2017 2017 2017 2017 
2017 2017 2017 2017 2017 2017 2017 2017 2017 
2017 2017 2017 2017 2017 2017 2017 2017 2017 
2017 2017 2017 2017 2017 2017 2017 2017 2017 
2017 2017 2017 2017 2017 2017 2017 2017 2017 
2017 2017 2017 2017 2017 2017 2017 2017 2017 
2017 2017 2017 2017 2017 2017 2017 2017 2017 
2017 2017 2017 2017 2017 2017 2017 2017 2017 
2017 2017 2017 2017 2017 2017 2017 2017 2017 
2017 2017 2017 2017 2017 2017 2017 2017 2017 
2017 2017 2017 2017 2017 2017 2017 2017 2017 
2017 2017 2017 2017 2017 2017 2017 2017 2017 
2017 2017 2017 2017 2017 2017 2017 2017 2017 
2017 2017 2017 2017 2017 2017 2017 2017 2017 
2017 2017 2017 2017 2017 2017 2017 2017 2017 
2017 2017 2017 2017 2017 2017 2017 2017 2017 
2017 2017 2017 2017 2017 2017 2017 2017 2017 
2017 2017 2017 2017 2017 2017 2017 2017 2017 
2017 2017 2017 2017 2017 2017 2017 2017 2017 
2017 2017 2017 2017 2017 2017 2017 2017 2017 
2017 2017 2017 2017 2017 2017 2017 2017 2017 
2017 2017 2017 2017 2017 2017 2017 2017 2017 
2017 2017 2017 2017 2017 2017 2017 2017 2017 
2017 2017 2017 2017 2017 2017 2017 2017 2017 
2017 2017 2017 2017 2017 2017 2017 2017 2017 
2017 2017 2017 2017 2017 2017 2017 2017 2017 
2017 2017 2017 2017 2017 2017 2017 2017 2017 
2017 2017 2017 2017 2017 2017 2017 2017 2017 
2017 2017 2017 2017 2017 2017 2017 2017 2017 
2017 2017 2017 2017 2017 2017 2017 2017 2017 
2017 2017 2017 2017 2017 2017 2017 2017 2017 
2017 2017 2017 2017 2017 2017 2017 2017 2017 
2017 2017 2017 2017 2017 2017 2017 2017 2017 
2017 2017 2017 2017 2017 2017 2017 2017 2017 
2017 2017 2017 2017 2017 2017 2017 2017 2017 
2017 2017 2017 2017 2017 2017 2017 2017 2017 
2017 2017 2017 2017 2017 2017 2017 2017 2017 
2017 2017 2017 2017 2017 2017 2017 2017 2017 
2017 2017 2017 2017 2017 2017 2017 2017 2017 
2017 2017 2017 2017 2017 2017 2017 2017 2017 
2017 2017 2017 2017 2017 2017 2017 2017 2017 
2017 2017 2017 2017 2017 2017 2017 2017 2017 
2017 2017 2017 2017 2017 2017 2017 2017 2017 
2017 2017 2017 2017 2017 2017 2017 2017 2017 
2017 2017 2017 2017 2017 2017 2017 2017 2017 
2017 2017 2017 2017 2017 2017 2017 2017 2017 
2017 2017 2017 2017 2017 2017 2017 2017 2017 
2017 2017 2017 2017 2017 2017 2017 2017 2017 
2017 2017 2017 2017 2017 2017 2017 2017 2017 
2017 2017 2017 2017 2017 2017 2017 2017 2017 
2017 2017 2017 2017 2017 2017 2017 2017 2017 
2017 2017 2017 2017 2017 2017 2017 2017 2017 
2017 2017 2017 2017 2017 2017 2017 2017 2017 
2017 2017 2017 2017 2017 2017 2017 2017 2017 
2017 2017 2017 2017 2017 2017 2017 2017 2017 
2017 2017 2017 2017 2017 2017 2017 2017 2017 
2017 2017 2017 2017 2017 2017 2017 2017 2017 
2017 2017 2017 2017 2017 2017 2017 2017 2017 
2017 2017 2017 2017 2017 2017 2017 2017 2017 
2017 2017 2017 2017 2017 2017 2017 2017 2017 
2017 2017 2017 2017 2017 2017 2017 2017 2017 
2017 2017 2017 2017 2017 2017 2017 2017 2017 
2017 2017 2017 2017 2017 2017 2017 2017 2017 
2017 2017 2017 2017 2017 2017 2017 2017 2017 
2017 2017 2017 2017 2017 2017 2017 2017 2017 
2017 2017 2017 2017 2017 2017 2017 2017 2017 
2017 2017 2017 2017 2017 2017 2017 2017 2017 
2017 2017 2017 2017 2017 2017 2017 2017 2017 
2017 2017 2017 2017 2017 2017 2017 2017 2017 
2017 2017 2017 2017 2017 2017 2017 2017 2017 
2017 2017 2017 2017 2017 2017 2017 2017 2017 
2017 2017 2017 2017 2017 2017 2017 2017 2017 
2017 2017 2017 2017 2017 2017 2017 2017 2017 
2017 2017 2017 2017 2017 2017 2017 2017 2017 
2017 2017 2017 2017 2017 2017 2017 2017 2017 
2017 2017 2017 2017 2017 2017 2017 2017 2017 
2017 2017 2017 2017 2017 2017 2017 2017 2017 
2017 2017 2017 2017 2017 2017 2017 2017 2017 
2017 2017 2017 2017 2017 2017 2017 2017 2017 
2017 2017 2017 2017 2017 2017 2017 2017 2017 
2017 2017 2017 2017 2017 2017 2017 2017 2017 
2017 2017 2017 2017 2017 2017 2017 2017 2017 
2017 2017 2017 2017 2017 2017 2017 2017 2017 
2017 2017 2017 2017 2017 2017 2017 2017 2017 
2017 2017 2017 2017 2017 2017 2017 2017 2017 
2017 2017 2017 2017 2017 2017 2017 2017 2017 
2017 2017 2017 2017 2017 2017 2017 2017 2017 
2017 2017 2017 2017 2017 2017 2017 2017 2017 
2017 2017 2017 2017 2017 2017 2017 2017 2017 
2017 2017 2017 2017 2017 2017 2017 2017 2017 
2017 2017 2017 2017 2017 2017 2017 2017 2017 
2017 2017 2017 2017 2017 2017 2017 2017 2017 
2017 2017 2017 2017 2017 2017 2017 2017 2017 
2017 2017 2017 2017 2017 2017 2017 2017 2017 
2017 2017 2017 2017 2017 2017 2017 2017 2017 
2017 2017 2017 2017 2017 2017 2017 2017 2017 
2017 2017 2017 2017 2017 2017 2017 2017 2017 
2017 2017 2017 2017 2017 2017 2017 2017 2017 
2017 2017 2017 2017 2017 2017 2017 2017 2017 
2017 2017 2017 2017 2017 2017 2017 2017 2017 
2017 2017 2017 2017 2017 2017 2017 2017 2017 
2017 2017 2017 2017 2017 2017 2017 2017 2017 
2017 2017 2017 2017 2017 2017 2017 2017 2017 
2017 2017 2017 2017 2017 2017 2017 2017 2017 
2017 2017 2017 2017 2017 2017 2017 2017 2017 
2017 2017 2017 2017 2017 2017 2017 2017 2017 
2017 2017 2017 2017 2017 2017 2017 2017 2017 
2017 2017 2017 2017 2017 2017 2017 2017 2017 
2017 2017 2017 2017 2017 2017 2017 2017 2017 
2017 2017 2017 2017 2017 2017 2017 2017 2017 
2017 2017 2017 2017 2017 2017 2017 2017 2017 
2017 2017 2017 2017 2017 2017 2017 2017 2017 
2017 2017 2017 2017 2017 2017 2017 2017 2017 
2017 2017 2017 2017 2017 2017 2017 2017 2017 
2017 2017 2017 2017 2017 2017 2017 2017 2017 
2017 2017 2017 2017 2017 2017 2017 2017 2017 
2017 2017 2017 2017 2017 2017 2017 2017 2017 
2017 2017 2017 2017 2017 2017 2017 2017 2017 
2017 2017 2017 2017 2017 2017 2017 2017 2017 
2017 2017 2017 2017 2017 2017 2017 2017 2017 
2017 2017 2017 2017 2017 2017 2017 2017 2017 
2017 2017 2017 2017 2017 2017 2017 2017 2017 
2017 2017 2017 2017 2017 2017 2017 2017 2017 
2017 2017 2017 2017 2017 2017 2017 2017 2017 
2017 2017 2017 2017 2017 2017 2017 2017 2017 
2017 2017 2017 2017 2017 2017 2017 2017 2017 
2017 2017 2017 2017 2017 2017 2017 2017 2017 
2017 2017 2017 2017 2017 2017 2017 2017 2017 
2017 2017 2017 2017 2017 2017 2017 2017 2017 
2017 2017 2017 2017 2017 2017 2017 2017 2017 
2017 2017 2017 2017 2017 2017 2017 2017 2017 
2017 2017 2017 2017 2017 2017 2017 2017 2017 
2017 2017 2017 2017 2017 2017 2017 2017 2017 
2017 2017 2017 2017 2017 2017 2017 2017 2017 
2017 2017 2017 2017 2017 2017 2017 2017 2017 
2017 2017 2017 2017 2017 2017 2017 2017 2017 
2017 2017 2017 2017 2017 2017 2017 2017 2017 
2017 2017 2017 2017 2017 2017 2017 2017 2017 
2017 2017 2017 2017 2017 2017 2017 2017 2017 
2017 2017 2017 2017 2017 2017 2017 2017 2017 
2017 2017 2017 2017 2017 2017 2017 2017 2017 
2017 2017 2017 2017 2017 2017 2017 2017 2017 
2017 2017 2017 2017 2017 2017 2017 2017 2017 
2017 2017 2017 2017 2017 2017 2017 2017 2017 
2017 2017 2017 2017 2017 2017 2017 2017 2017 
2017 2017 2017 2017 2017 2017 2017 2017 2017 
2017 2017 2017 2017 2017 2017 2017 2017 2017 
2017 2017 2017 2017 2017 2017 2017 2017 2017 
2017 2017 2017 2017 2017 2017 2017 2017 2017 
2017 2017 2017 2017 2017 2017 2017 2017 2017 
2017 2017 2017 2017 2017 2017 2017 2017 2017 
2017 2017 2017 2017 2017 2017 2017 2017 2017 
2017 2017 2017 2017 2017 2017 2017 2017 2017 
2017 2017 2017 2017 2017 2017 2017 2017 2017 
2017 2017 2017 2017 2017 2017 2017 2017 2017 
2017 2017 2017 2017 2017 2017 2017 2017 2017 
2017 2017 2017 2017 2017 2017 2017 2017 2017 
2017 2017 2017 2017 2017 2017 2017 2017 2017 
2017 2017 2017 2017 2017 2017 2017 2017 2017 
2017 2017 2017 2017 2017 2017 2017 2017 2017 
2017 2017 2017 2017 2017 2017 2017 2017 2017 
2017 2017 2017 2017 2017 2017 2017 2017 2017 
2017 2017 2017 2017 2017 2017 2017 2017 2017 
2017 2017 2017 2017 2017 2017 2017 2017 2017 
2017 2017 2017 2017 2017 2017 2017 2017 2017 
2017 2017 2017 2017 2017 2017 2017 2017 2017 
2017 2017 2017 2017 2017 2017 2017 2017 2017 
2017 2017 2017 2017 2017 2017 2017 2017 2017 
2017 2017 2017 2017 2017 2017 2017 2017 2017 
2017 2017 2017 2017 2017 2017 2017 2017 2017 
2017 2017 2017 2017 2017 2017 2017 2017 2017 
2017 2017 2017 2017 2017 2017 2017 2017 2017 
2017 2017 2017 2017 2017 2017 2017 2017 2017 
2017 2017 2017 2017 2017 2017 2017 2017 2017 
2017 2017 2017 2017 2017 2017 2017 2017 2017 
2017 2017 2017 2017 2017 2017 2017 2017 2017 
2017 2017 2017 2017 2017 2017 2017 2017 2017 
2017 2017 2017 2017 2017 2017 2017 2017 2017 
2017 2017 2017 2017 2017 2017 2017 2017 2017 
2017 2017 2017 2017 2017 2017 2017 2017 2017 
2017 2017 2017 2017 2017 2017 2017 2017 2017 
2017 2017 2017 2017 2017 2017 2017 2017 2017 
2017 2017 2017 2017 2017 2017 2017 2017 2017 
2017 2017 2017 2017 2017 2017 2017 2017 2017 
2017 2017 2017 2017 2017 2017 2017 2017 2017 
2017 2017 2017 2017 2017 2017 2017 2017 2017 
2017 2017 2017 2017 2017 2017 2017 2017 2017 
2017 2017 2017 2017 2017 2017 2017 2017 2017 
2017 2017 2017 2017 2017 2017 2017 2017 2017 
2017 2017 2017 2017 2017 2017 2017 2017 2017 
2017 2017 2017 2017 2017 2017 2017 2017 2017 
2017 2017 2017 2017 2017 2017 2017 2017 2017 
2017 2017 2017 2017 2017 2017 2017 2017 2017 
2017 2017 2017 2017 2017 2017 2017 2017 2017 
2017 2017 2017 2017 2017 2017 2017 2017 2017 
2017 2017 2017 2017 2017 2017 2017 2017 2017 
2017 2017 2017 2017 2017 2017 2017 2017 2017 
2017 2017 2017 2017 2017 2017 2017 2017 2017 
2017 2017 2017 2017 2017 2017 2017 2017 2017 
2017 2017 2017 2017 2017 2017 2017 2017 2017 
2017 2017 2017 2017 2017 2017 2017 2017 2017 
2017 2017 2017 2017 2017 2017 2017 2017 2017 
2017 2017 2017 2017 2017 2017 2017 2017 2017 
2017 2017 2017 2017 2017 2017 2017 2017 2017 
2017 2017 2017 2017 2017 2017 2017 2017 2017 
2017 2017 2017 2017 2017 2017 2017 2017 2017 
2017 2017 2017 2017 2017 2017 2017 2017 2017 
2017 2017 2017 2017 2017 2017 2017 2017 2017 
2017 2017 2017 2017 2017 2017 2017 2017 2017 
2017 2017 2017 2017 2017 2017 2017 2017 2017 
2017 2017 2017 2017 2017 2017 2017 2017 2017 
2017 2017 2017 2017 2017 2017 2017 2017 2017 
2017 2017 2017 2017 2017 2017 2017 2017 2017 
2017 2017 2017 2017 2017 2017 2017 2017 2017 
2017 2017 2017 2017 2017 2017 2017 2017 2017 
2017 2017 2017 2017 2017 2017 2017 2017 2017 
2017 2017 2017 2017 2017 2017 2017 2017 2017 
2017 2017 2017 2017 2017 2017 2017 2017 2017 
2017 2017 2017 2017 2017 2017 2017 2017 2017 
2017 2017 2017 2017 2017 2017 2017 2017 2017 
2017 2017 2017 2017 2017 2017 2017 2017 2017 
2017 2017 2017 2017 2017 2017 2017 2017 2017 
2017 2017 2017 2017 2017 2017 2017 2017 2017 
2017 2017 2017 2017 2017 2017 2017 2017 2017 
2017 2017 2017 2017 2017 2017 2017 2017 2017 
2017 2017 2017 2017 2017 2017 2017 2017 2017 
2017 2017 2017 2017 2017 2017 2017 2017 2017 
2017 2017 2017 2017 2017 2017 2017 2017 2017 
2017 2017 2017 2017 2017 2017 2017 2017 2017 
2017 2017 2017 2017 2017 2017 2017 2017 2017 
2017 2017 2017 2017 2017 2017 2017 2017 2017 
2017 2017 2017 2017 2017 2017 2017 2017 2017 
2017 2017 2017 2017 2017 2017 2017 2017 2017 
2017 2017 2017 2017 2017 2017 2017 2017 2017 
2017 2017 2017 2017 2017 2017 2017 2017 2017 
2017 2017 2017 2017 2017 2017 2017 2017 2017 
2017 2017 2017 2017 2017 2017 2017 2017 2017 
2017 2017 2017 2017 2017 2017 2017 2017 2017 
2017 2017 2017 2017 2017 2017 2017 2017 2017 
2017 2017 2017 2017 2017 2017 2017 2017 2017 
2017 2017 2017 2017 2017 2017 2017 2017 2017 
2017 2017 2017 2017 2017 2017 2017 2017 2017 
2017 2017 2017 2017 2017 2017 2017 2017 2017 
2017 2017 2017 2017 2017 2017 2017 2017 2017 
2017 2017 2017 2017 2017 2017 2017 2017 2017 
2017 2017 2017 2017 2017 2017 2017 2017 2017 
2017 2017 2017 2017 2017 2017 2017 2017 2017 
2017 2017 2017 2017 2017 2017 2017 2017 2017 
2017 2017 2017 2017 2017 2017 2017 2017 2017 
2017 2017 2017 2017 2017 2017 2017 2017 2017 
2017 2017 2017 2017 2017 2017 2017 2017 2017 
2017 2017 2017 2017 2017 2017 2017 2017 2017 
2017 2017 2017 2017 2017 2017 2017 2017 2017 
2017 2017 2017 2017 2017 2017 2017 2017 2017 
2017 2017 2017 2017 2017 2017 2017 2017 2017 
2017 2017 2017 2017 2017 2017 2017 2017 2017 
2017 2017 2017 2017 2017 2017 2017 2017 2017 
2017 2017 2017 2017 2017 2017 2017 2017 2017 
2017 2017 2017 2017 2017 2017 2017 2017 2017 
2017 2017 2017 2017 2017 2017 2017 2017 2017 
2017 2017 2017 2017 2017 2017 2017 2017 2017 
2017 2017 2017 2017 2017 2017 2017 2017 2017 
2017 2017 2017 2017 2017 2017 2017 2017 2017 
2017 2017 2017 2017 2017 2017 2017 2017 2017 
2017 2017 2017 2017 2017 2017 2017 2017 2017 
2017 2017 2017 2017 2017 2017 2017 2017 2017 
2017 2017 2017 2017 2017 2017 2017 2017 2017 
2017 2017 2017 2017 2017 2017 2017 2017 2017 
2017 2017 2017 2017 2017 2017 2017 2017 2017 
2017 2017 2017 2017 2017 2017 2017 2017 2017 
2017 2017 2017 2017 2017 2017 2017 2017 2017 
2017 2017 2017 2017 2017 2017 2017 2017 2017 
2017 2017 2017 2017 2017 2017 2017 2017 2017 
2017 2017 2017 2017 2017 2017 2017 2017 2017 
2017 2017 2017 2017 2017 2017 2017 2017 2017 
2017 2017 2017 2017 2017 2017 2017 2017 2017 
2017 2017 2017 2017 2017 2017 2017 2017 2017 
2017 2017 2017 2017 2017 2017 2017 2017 2017 
2017 2017 2017 2017 2017 2017 2017 2017 2017 
2017 2017 2017 2017 2017 2017 2017 2017 2017 
2017 2017 2017 2017 2017 2017 2017 2017 2017 
2017 2017 2017 2017 2017 2017 2017 2017 2017 
2017 2017 2017 2017 2017 2017 2017 2017 2017 
2017 2017 2017 2017 2017 2017 2017 2017 2017 
2017 2017 2017 2017 2017 2017 2017 2017 2017 
2017 2017 2017 2017 2017 2017 2017 2017 2017 
2017 2017 2017 2017 2017 2017 2017 2017 2017 
2017 2017 2017 2017 2017 2017 2017 2017 2017 
2017 2017 2017 2017 2017 2017 2017 2017 2017 
2017 2017 2017 2017 2017 2017 2017 2017 2017 
2017 2017 2017 2017 2017 2017 2017 2017 2017 
2017 2017 2017 2017 2017 2017 2017 2017 2017 
2017 2017 2017 2017 2017 2017 2017 2017 2017 
2017 2017 2017 2017 2017 2017 2017 2017 2017 
2017 2017 2017 2017 2017 2017 2017 2017 2017 
2017 2017 2017 2017 2017 2017 2017 2017 2017 
2017 2017 2017 2017 2017 2017 2017 2017 2017 
2017 2017 2017 2017 2017 2017 2017 2017 2017 
2017 2017 2017 2017 2017 2017 2017 2017 2017 
2017 2017 2017 2017 2017 2017 2017 2017 2017 
2017 2017 2017 2017 2017 2017 2017 2017 2017 
2017 2017 2017 2017 2017 2017 2017 2017 2017 
2017 2017 2017 2017 2017 2017 2017 2017 2017 
2017 2017 2017 2017 2017 2017 2017 2017 2017 
2017 2017 2017 2017 2017 2017 2017 2017 2017 
2017 2017 2017 2017 2017 2017 2017 2017 2017 
2017 2017 2017 2017 2017 2017 2017 2017 2017 
2017 2017 2017 2017 2017 2017 2017 2017 2017 
2017 2017 2017 2017 2017 2017 2017 2017 2017 
2017 2017 2017 2017 2017 2017 2017 2017 2017 
2017 2017 2017 2017 2017 2017 2017 2017 2017 
2017 2017 2017 2017 2017 2017 2017 2017 2017 
2017 2017 2017 2017 2017 2017 2017 2017 2017 
2017 2017 2017 2017 2017 2017 2017 2017 2017 
2017 2017 2017 2017 2017 2017 2017 2017 2017 
2017 2017 2017 2017 2017 2017 2017 2017 2017 
2017 2017 2017 2017 2017 2017 2017 2017 2017 
2017 2017 2017 2017 2017 2017 2017 2017 2017 
2017 2017 2017 2017 2017 2017 2017 2017 2017 
2017 2017 2017 2017 2017 2017 2017 2017 2017 
2017 2017 2017 2017 2017 2017 2017 2017 2017 
2017 2017 2017 2017 2017 2017 2017 2017 2017 
2017 2017 2017 2017 2017 2017 2017 2017 2017 
2017 2017 2017 2017 2017 2017 2017 2017 2017 
2017 2017 2017 2017 2017 2017 2017 2017 2017 
2017 2017 2017 2017 2017 2017 2017 2017 2017 
2017 2017 2017 2017 2017 2017 2017 2017 2017 
2017 2017 2017 2017 2017 2017 2017 2017 2017 
2017 2017 2017 2017 2017 2017 2017 2017 2017 
2017 2017 2017 2017 2017 2017 2017 2017 2017 
2017 2017 2017 2017 2017 2017 2017 2017 2017 
2017 2017 2017 2017 2017 2017 2017 2017 2017 
2017 2017 2017 2017 2017 2017 2017 2017 2017 
2017 2017 2017 2017 2017 2017 2017 2017 2017 
2017 2017 2017 2017 2017 2017 2017 2017 2017 
2017 2017 2017 2017 2017 2017 2017 2017 2017 
2017 2017 2017 2017 2017 2017 2017 2017 2017 
2017 2017 2017 2017 2017 2017 2017 2017 2017 
2017 2017 2017 2017 2017 2017 2017 2017 2017 
2017 2017 2017 2017 2017 2017 2017 2017 2017 
2017 2017 2017 2017 2017 2017 2017 2017 2017 
2017 2017 2017 2017 2017 2017 2017 2017 2017 
2017 2017 2017 2017 2017 2017 2017 2017 2017 
2017 2017 2017 2017 2017 2017 2017 2017 2017 
2017 2017 2017 2017 2017 2017 2017 2017 2017 
2017 2017 2017 2017 2017 2017 2017 2017 2017 
2017 2017 2017 2017 2017 2017 2017 2017 2017 
2017 2017 2017 2017 2017 2017 2017 2017 2017 
2017 2017 2017 2017 2017 2017 2017 2017 2017 
2017 2017 2017 2017 2017 2017 2017 2017 2017 
2017 2017 2017 2017 2017 2017 2017 2017 2017 
2017 2017 2017 2017 2017 2017 2017 2017 2017 
2017 2017 2017 2017 2017 2017 2017 2017 2017 
2017 2017 2017 2017 2017 2017 2017 2017 2017 
2017 2017 2017 2017 2017 2017 2017 2017 2017 
2017 2017 2017 2017 2017 2017 2017 2017 2017 
2017 2017 2017 2017 2017 2017 2017 2017 2017 
2017 2017 2017 2017 2017 2017 2017 2017 2017 
2017 2017 2017 2017 2017 2017 2017 2017 2017 
2017 2017 2017 2017 2017 2017 2017 2017 2017 
2017 2017 2017 2017 2017 2017 2017 2017 2017 
2017 2017 2017 2017 2017 2017 2017 2017 2017 
2017 2017 2017 2017 2017 2017 2017 2017 2017 
2017 2017 2017 2017 2017 2017 2017 2017 2017 
2017 2017 2017 2017 2017 2017 2017 2017 2017 
2017 2017 2017 2017 2017 2017 2017 2017 2017 
2017 2017 2017 2017 2017 2017 2017 2017 2017 
2017 2017 2017 2017 2017 2017 2017 2017 2017 
2017 2017 2017 2017 2017 2017 2017 2017 2017 
2017 2017 2017 2017 2017 2017 2017 2017 2017 
2017 2017 2017 2017 2017 2017 2017 2017 2017 
2017 2017 2017 2017 2017 2017 2017 2017 2017 
2017 2017 2017 2017 2017 2017 2017 2017 2017 
2017 2017 2017 2017 2017 2017 2017 2017 2017 
2017 2017 2017 2017 2017 2017 2017 2017 2017 
2017 2017 2017 2017 2017 2017 2017 2017 2017 
2017 2017 2017 2017 2017 2017 2017 2017 2017 
2017 2017 2017 2017 2017 2017 2017 2017 2017 
2017 2017 2017 2017 2017 2017 2017 2017 2017 
2017 2017 2017 2017 2017 2017 2017 2017 2017 
2017 2017 2017 2017 2017 2017 2017 2017 2017 
2017 2017 2017 2017 2017 2017 2017 2017 2017 
2017 2017 2017 2017 2017 2017 2017 2017 2017 
2017 2017 2017 2017 2017 2017 2017 2017 2017 
2017 2017 2017 2017 2017 2017 2017 2017 2017 
2017 2017 2017 2017 2017 2017 2017 2017 2017 
2017 2017 2017 2017 2017 2017 2017 2017 2017 
2017 2017 2017 2017 2017 2017 2017 2017 2017 
2017 2017 2017 2017 2017 2017 2017 2017 2017 
2017 2017 2017 2017 2017 2017 2017 2017 2017 
2017 2017 2017 2017 2017 2017 2017 2017 2017 
2017 2017 2017 2017 2017 2017 2017 2017 2017 
2017 2017 2017 2017 2017 2017 2017 2017 2017 
2017 2017 2017 2017 2017 2017 2017 2017 2017 
2017 2017 2017 2017 2017 2017 2017 2017 2017 
2017 2017 2017 2017 2017 2017 2017 2017 2017 
2017 2017 2017 2017 2017 2017 2017 2017 2017 
2017 2017 2017 2017 2017 2017 2017 2017 2017 
2017 2017 2017 2017 2017 2017 2017 2017 2017 
2017 2017 2017 2017 2017 2017 2017 2017 2017 
2017 2017 2017 2017 2017 2017 2017 2017 2017 
2017 2017 2017 2017 2017 2017 2017 2017 2017 