# vtk DataFile Version 4.2
vtk output
ASCII
DATASET POLYDATA
POINTS 7634 float
-26.8967 40.8215 6.49985 -26.7832 40.241 6.82287 -26.3808 40.5665 6.27745 
-27.4112 40.7528 6.21651 -27.4216 40.5105 6.75178 -27.9866 40.1454 6.31658 
-26.8862 40.8708 5.52097 -26.2488 40.4355 5.48257 -27.4397 40.6218 5.59803 
-27.7303 40.4822 5.92134 -29.6495 40.8085 5.17852 -29.8886 40.2767 5.94602 
-29.1927 40.5341 5.46941 -30.1909 40.3869 5.51217 -26.7382 40.9323 4.44263 
-26.3139 40.3312 4.39755 -27.5966 40.6275 5.0926 -27.6083 40.9215 4.55777 
-28.7644 40.8784 4.36203 -28.3615 40.5389 5.01256 -29.9127 40.9389 4.26164 
-30.2563 40.5486 4.80694 -26.5964 40.9233 3.56959 -26.263 40.5761 3.24835 
-27.4517 40.8963 3.49736 -28.3083 40.3181 3.47535 -28.8519 40.5868 3.76502 
-29.1119 40.2949 3.16379 -29.6304 40.9465 3.49312 -30.7835 40.3782 4.08775 
-30.6014 40.8675 3.37794 -31.2662 40.3892 3.40417 -26.6762 40.8122 2.74355 
-26.2666 40.1981 2.33557 -27.2303 40.6438 2.56459 -27.7547 40.358 2.85883 
-29.6826 40.7619 2.68345 -29.4652 40.2207 2.43713 -30.3779 40.8704 2.59921 
-31.1874 40.5512 2.71489 -26.7972 40.486 2.14784 -29.9774 40.5156 2.16619 
-30.6888 40.372 2.03893 -26.6376 39.4322 7.0876 -26.2288 39.6304 6.49825 
-27.4706 39.7123 6.98085 -28.233 39.4706 6.59753 -29.5435 39.9256 6.22656 
-29.7201 39.3941 6.65859 -29.1926 39.3679 6.49776 -30.1454 39.3389 6.46955 
-26.3124 39.4758 5.60724 -28.0698 40.2227 5.54074 -28.5926 39.6341 6.08 
-28.864 40.0055 5.71291 -30.6977 39.9499 5.19663 -30.6731 39.5619 5.92027 
-31.2338 39.3185 5.46694 -26.5805 39.6551 4.9079 -26.551 39.7953 4.32047 
-26.9995 39.1618 4.55461 -30.7015 40.1175 4.61258 -31.2382 39.6023 4.68217 
-26.6516 39.5498 3.9884 -26.2948 39.8959 3.47051 -28.6766 40.1587 3.52823 
-31.7538 39.9577 3.08701 -31.5438 39.7662 3.8675 -32.0493 39.2389 3.66557 
-26.2201 39.3838 2.40398 -27.5009 40.0735 2.10109 -28.2097 39.6908 2.61431 
-28.6743 39.6899 3.03336 -29.1827 39.5519 2.47103 -31.583 40.0338 2.13677 
-32.2531 39.3325 2.7329 -26.7631 40.0233 1.62835 -26.2605 39.3738 1.31164 
-27.4562 39.7466 1.40781 -28.2294 39.219 1.55618 -29.8902 39.83 1.8783 
-30.6517 39.9585 1.36224 -29.9258 39.5547 1.2792 -31.4642 39.8392 1.23671 
-32.1708 39.5188 1.77077 -26.9628 39.5005 0.921031 -27.6993 39.302 0.925386 
-29.9392 39.6907 0.667292 -29.4785 39.1852 0.952722 -29.5121 39.214 0.352691 
-30.6133 39.8076 0.56418 -31.289 39.601 0.587387 -31.9105 39.473 1.03401 
-29.925 39.4865 0.158431 -30.6172 39.3427 0.0810933 -26.8819 38.7607 9.27011 
-26.5217 38.3124 9.73398 -26.3175 38.5179 9.28086 -27.1346 38.3576 9.7602 
-26.7793 38.8655 8.49952 -26.2308 38.3546 8.53341 -27.743 38.3944 9.159 
-27.7503 38.8413 8.37402 -28.2957 38.3999 8.58814 -26.7726 38.9916 7.64252 
-26.2204 38.5147 7.44395 -27.77 39.1131 7.40729 -28.5785 38.5623 8.07504 
-28.7288 38.8704 7.35034 -29.2074 38.1165 7.64452 -26.2558 38.3677 6.48822 
-28.6028 39.1944 6.66719 -29.7553 38.6216 6.93093 -30.4507 38.4011 6.59189 
-26.5962 38.5862 5.82085 -26.7415 39.0916 5.33083 -27.006 38.4078 5.36278 
-30.9118 38.5655 6.24615 -31.7696 38.8824 5.17499 -31.4851 38.6739 5.82609 
-32.028 38.2122 5.50405 -27.4378 38.2716 4.77567 -31.8205 39.1431 4.40507 
-32.2819 38.4105 4.62476 -26.815 39.2024 3.47191 -27.7473 38.4611 4.0484 
-27.446 38.7389 3.22648 -28.2873 38.1964 3.3936 -32.4365 38.623 3.55855 
-26.6874 38.8533 2.53802 -27.2389 38.5348 2.62832 -27.796 38.3481 2.91118 
-28.7831 39.1514 2.2058 -32.8484 38.3966 2.98235 -32.7366 38.9311 2.17721 
-33.2457 38.3515 2.45977 -26.7847 38.4019 2.03575 -26.2759 38.714 1.61057 
-28.9769 38.852 1.35838 -29.4128 39.1814 1.71168 -32.5917 39.0285 1.19202 
-33.2497 38.5192 1.72875 -26.6051 38.9838 0.49439 -26.3564 38.5435 0.693139 
-27.3168 38.906 0.37517 -28.1046 38.6802 0.620287 -28.668 38.5609 0.893623 
-29.19 38.5755 0.494682 -31.7483 39.1487 0.234766 -32.7204 38.8492 0.309005 
-33.2627 38.5293 0.736308 -26.817 38.5033 0.170283 -27.5245 38.1952 -0.000685772 
-29.8427 38.8065 -0.108661 -30.7429 38.9097 -0.438982 -30.1375 38.4712 -0.856441 
-31.486 38.8418 -0.722921 -32.3874 38.7804 -0.407163 -33.178 38.4954 -0.209646 
-30.8051 38.7395 -1.42488 -30.2168 38.4967 -1.83535 -31.3607 38.5621 -1.45742 
-32.0393 38.4857 -1.10137 -32.8197 38.4144 -0.849468 -30.6968 38.7528 -2.54009 
-30.2081 38.3759 -2.88151 -31.1903 38.5146 -2.27269 -30.6173 38.7375 -3.33881 
-30.3943 38.3057 -3.79327 -31.0972 38.5511 -3.23355 -30.8302 38.5095 -3.83808 
-27.5732 37.82 10.226 -27.7906 37.2128 10.799 -27.2897 37.4473 10.5588 
-28.2255 37.2947 10.3925 -26.7797 37.4746 10.0566 -26.2225 37.7745 9.39696 
-27.6586 38.1805 9.66555 -28.1462 37.5007 9.41229 -26.106 37.4714 8.49869 
-28.8004 38.0733 8.31806 -28.5136 37.7779 8.78758 -29.0041 37.3262 8.12317 
-26.1334 37.429 7.48112 -29.4072 37.257 7.47556 -26.3054 37.2002 6.63488 
-29.7587 37.6282 7.13613 -30.9495 37.868 6.41932 -30.4202 37.5796 6.73385 
-31.0228 37.2694 6.39844 -26.6681 37.7437 5.97622 -27.2139 37.366 5.37198 
-31.5347 37.5978 6.01832 -32.2801 37.3441 5.41009 -27.6851 37.5545 4.83472 
-27.7828 37.9922 4.51158 -28.1352 37.3513 4.42712 -32.7038 37.555 4.84262 
-32.7416 37.9365 4.15419 -33.0098 37.2387 4.50672 -28.5879 37.6983 3.86629 
-28.8203 37.8049 3.49775 -29.0312 37.1621 3.42402 -32.7427 38.1129 3.55132 
-33.1896 37.3772 3.66357 -27.4985 38.0275 2.15057 -28.2806 37.771 2.63734 
-28.8285 37.5042 3.00669 -33.7425 37.9362 2.18104 -33.5459 37.6923 2.85871 
-34.0028 37.2679 2.51077 -26.7205 38.136 1.31219 -27.3629 37.7119 1.22349 
-28.129 37.4496 1.78971 -33.7712 38.0195 1.23555 -34.127 37.3209 1.76167 
-26.8844 37.9676 0.393799 -27.2938 37.5016 0.504212 -27.8163 37.3374 1.03897 
-28.5752 38.1305 0.0919272 -33.7492 38.0309 0.165647 -34.2691 37.232 0.594984 
-27.3634 37.5525 -0.243091 -27.9954 37.8301 -0.623383 -28.8571 37.9068 -0.724385 
-29.4228 38.1434 -0.353325 -33.5588 38.0038 -0.848136 -34.098 37.4949 -0.397601 
-27.782 37.5279 -1.00427 -28.124 37.3132 -1.54536 -28.6008 37.8315 -1.50876 
-29.5536 38.0882 -1.27547 -31.8383 38.1938 -1.88447 -32.7202 38.1003 -1.45577 
-33.4599 37.7586 -1.7255 -34.1998 37.3351 -1.23167 -28.6673 37.7377 -2.35766 
-28.3181 37.177 -2.67919 -29.4895 38.0376 -2.32903 -31.6503 38.1644 -2.76963 
-32.4929 37.804 -2.53956 -33.3155 37.5284 -2.35741 -33.9257 37.4254 -1.95576 
-29.0319 37.5402 -3.02315 -29.7095 37.721 -3.08054 -30.0409 37.4763 -3.69835 
-31.5834 38.032 -3.75911 -32.3441 37.5396 -3.51401 -32.8911 37.3951 -2.95659 
-30.797 38.0738 -4.37825 -30.3539 37.4377 -4.63991 -31.3863 37.7891 -4.62442 
-32.0779 37.5051 -4.29833 -30.965 37.3839 -5.07407 -31.8536 37.211 -4.90559 
-27.8634 36.2795 10.9271 -27.2004 36.7618 10.5712 -28.7015 36.8173 10.3665 
-28.512 36.728 10.8607 -29.0381 36.2169 10.4763 -26.6462 36.1991 10.0398 
-26.2817 36.7152 9.38965 -28.4082 36.6311 9.52036 -28.8552 36.3738 9.8897 
-26.1476 36.4512 8.48266 -28.6041 37.0395 8.60214 -28.3576 36.3356 8.43688 
-26.1719 36.4471 7.48282 -28.7621 36.5776 8.02915 -29.1362 36.6634 7.59032 
-26.3329 36.233 6.62047 -29.6557 36.5851 6.95081 -30.5569 36.8319 6.52976 
-30.1383 36.2681 6.40586 -26.6912 36.7382 5.99386 -27.1922 36.171 5.30388 
-30.8778 36.4972 6.14731 -31.6341 36.5037 5.7953 -32.1202 36.3354 5.4466 
-27.7288 36.7542 4.91399 -28.1445 36.5591 4.51856 -32.69 36.5888 5.02855 
-33.1465 36.4488 4.41204 -28.5509 36.5488 3.99098 -29.0625 36.2621 3.22211 
-33.4167 36.1893 3.66117 -28.7991 37.0649 2.19155 -29.1827 36.6594 2.67547 
-33.7519 36.7626 3.04217 -34.103 36.478 2.37087 -28.5552 36.9236 1.20407 
-29.2951 36.3111 1.76821 -34.3395 36.3081 1.33229 -27.7721 37.1395 0.36205 
-28.4047 36.7492 0.263274 -29.1906 36.4322 0.819618 -34.6469 36.6206 0.673682 
-34.6795 36.7035 0.286947 -34.8208 36.4779 0.401038 -27.7974 37.1 -0.51214 
-28.2948 36.68 -0.613635 -28.8763 36.3947 0.0790767 -34.5051 36.5208 -0.254565 
-34.7376 36.4531 0.143881 -28.2647 36.6498 -1.57655 -34.6997 36.6721 -1.14692 
-34.5779 36.977 -1.88849 -35.0518 36.2602 -1.37949 -27.9616 36.3524 -2.51687 
-33.6879 37.1919 -2.67153 -34.4542 36.8473 -2.76651 -35.0691 36.3114 -2.38047 
-28.6919 37.0053 -3.47559 -28.1316 36.5098 -3.46242 -29.3981 37.0827 -3.57166 
-32.831 37.2034 -3.63463 -33.5897 36.8513 -3.61816 -34.3381 36.3386 -3.61641 
-34.814 36.3988 -3.11167 -28.8618 36.2444 -3.91452 -29.7017 36.5391 -3.96069 
-30.0803 36.5053 -4.44148 -32.6835 36.9995 -4.41849 -33.2673 36.5715 -4.39196 
-33.7949 36.3271 -4.13405 -30.5779 36.9695 -5.44587 -30.3347 36.3393 -5.3836 
-31.04 36.7016 -5.56235 -31.794 36.4481 -5.28522 -32.7655 36.3631 -4.91246 
-30.897 36.2438 -5.83101 -27.7028 35.1673 10.9501 -27.0925 35.76 10.5584 
-28.6673 35.7695 10.9255 -29.1615 35.3696 10.5466 -26.5715 35.3434 10.18 
-26.2659 35.528 9.48838 -28.6379 35.9569 9.31662 -29.0491 35.5906 9.83882 
-26.0693 35.3489 8.32146 -28.2636 35.5277 8.71952 -28.6179 35.3434 9.21824 
-26.1867 35.6198 7.28133 -28.7576 36.0679 7.52084 -28.2988 35.2718 7.66967 
-26.3147 35.2074 6.40323 -28.9069 35.5899 6.93559 -29.519 35.8464 6.50575 
-29.1872 35.1177 6.24856 -26.6651 35.8026 5.89328 -26.9673 35.2583 5.18443 
-30.0108 35.6016 6.00469 -30.9226 35.702 5.76999 -31.5859 35.8163 5.567 
-31.1955 35.3989 5.47868 -27.8201 36.0772 4.592 -27.4061 35.3692 4.60182 
-31.8151 35.4262 5.09356 -32.7855 35.7342 4.7738 -33.1211 35.3923 4.14667 
-27.997 35.6002 4.01336 -28.5884 35.8387 3.55119 -28.2578 35.1073 3.29291 
-33.4056 35.2161 3.30297 -28.8208 35.597 3.04249 -29.2077 35.816 2.50186 
-33.7451 35.8015 2.93635 -34.0439 35.3929 2.13329 -29.471 35.4264 1.84339 
-29.7815 35.9091 1.15531 -29.9942 35.2334 1.19792 -34.2416 35.3955 1.46811 
-29.6022 35.9981 0.227469 -30.1372 35.4961 0.635532 -34.626 36.2475 0.467038 
-34.4578 35.4508 0.680743 -28.8233 36.2128 -0.618114 -29.4408 35.803 -0.725362 
-30.217 35.3356 -0.184557 -34.6865 35.6236 -0.125141 -34.8253 36.077 -0.726137 
-35.0791 35.3558 -0.479919 -28.5825 35.9343 -1.52664 -29.2749 35.5722 -1.36015 
-29.9034 35.4459 -0.960606 -35.2494 35.5079 -1.50033 -27.5565 35.9253 -2.66114 
-27.8738 35.4002 -2.18753 -27.3232 35.5304 -2.79021 -28.9012 35.2464 -1.81053 
[...]
CELL_DATA 15272
SCALARS scalars float
LOOKUP_TABLE default
1035 1035 1035 1035 1035 1035 1035 1035 1035 
1035 1035 1035 1035 1035 1035 1035 1035 1035 
1035 1035 1035 1035 1035 1035 1035 1035 1035 
1035 1035 1035 1035 1035 1035 1035 1035 1035 
1035 1035 1035 1035 1035 1035 1035 1035 1035 
1035 1035 1035 1035 1035 1035 1035 1035 1035 
1035 1035 1035 1035 1035 1035 1035 1035 1035 
1035 1035 1035 1035 1035 1035 1035 1035 1035 
1035 1035 1035 1035 1035 1035 1035 1035 1035 
1035 1035 1035 1035 1035 1035 1035 1035 1035 
1035 1035 1035 1035 1035 1035 1035 1035 1035 
1035 1035 1035 1035 1035 1035 1035 1035 1035 
1035 1035 1035 1035 1035 1035 1035 1035 1035 
1035 1035 1035 1035 1035 1035 1035 1035 1035 
1035 1035 1035 1035 1035 1035 1035 1035 1035 
1035 1035 1035 1035 1035 1035 1035 1035 1035 
1035 1035 1035 1035 1035 1035 1035 1035 1035 
1035 1035 1035 1035 1035 1035 1035 1035 1035 
1035 1035 1035 1035 1035 1035 1035 1035 1035 
1035 1035 1035 1035 1035 1035 1035 1035 1035 
1035 1035 1035 1035 1035 1035 1035 1035 1035 
1035 1035 1035 1035 1035 1035 1035 1035 1035 
1035 1035 1035 1035 1035 1035 1035 1035 1035 
1035 1035 1035 1035 1035 1035 1035 1035 1035 
1035 1035 1035 1035 1035 1035 1035 1035 1035 
1035 1035 1035 1035 1035 1035 1035 1035 1035 
1035 1035 1035 1035 1035 1035 1035 1035 1035 
1035 1035 1035 1035 1035 1035 1035 1035 1035 
1035 1035 1035 1035 1035 1035 1035 1035 1035 
1035 1035 1035 1035 1035 1035 1035 1035 1035 
1035 1035 1035 1035 1035 1035 1035 1035 1035 
1035 1035 1035 1035 1035 1035 1035 1035 1035 
1035 1035 1035 1035 1035 1035 1035 1035 1035 
1035 1035 1035 1035 1035 1035 1035 1035 1035 
1035 1035 1035 1035 1035 1035 1035 1035 1035 
1035 1035 1035 1035 1035 1035 1035 1035 1035 
1035 1035 1035 1035 1035 1035 1035 1035 1035 
1035 1035 1035 1035 1035 1035 1035 1035 1035 
1035 1035 1035 1035 1035 1035 1035 1035 1035 
1035 1035 1035 1035 1035 1035 1035 1035 1035 
1035 1035 1035 1035 1035 1035 1035 1035 1035 
1035 1035 1035 1035 1035 1035 1035 1035 1035 
1035 1035 1035 1035 1035 1035 1035 1035 1035 
1035 1035 1035 1035 1035 1035 1035 1035 1035 
1035 1035 1035 1035 1035 1035 1035 1035 1035 
1035 1035 1035 1035 1035 1035 1035 1035 1035 
1035 1035 1035 1035 1035 1035 1035 1035 1035 
1035 1035 1035 1035 1035 1035 1035 1035 1035 
1035 1035 1035 1035 1035 1035 1035 1035 1035 
1035 1035 1035 1035 1035 1035 1035 1035 1035 
1035 1035 1035 1035 1035 1035 1035 1035 1035 
1035 1035 1035 1035 1035 1035 1035 1035 1035 
1035 1035 1035 1035 1035 1035 1035 1035 1035 
1035 1035 1035 1035 1035 1035 1035 1035 1035 
1035 1035 1035 1035 1035 1035 1035 1035 1035 
1035 1035 1035 1035 1035 1035 1035 1035 1035 
1035 1035 1035 1035 1035 1035 1035 1035 1035 
1035 1035 1035 1035 1035 1035 1035 1035 1035 
1035 1035 1035 1035 1035 1035 1035 1035 1035 
1035 1035 1035 1035 1035 1035 1035 1035 1035 
1035 1035 1035 1035 1035 1035 1035 1035 1035 
1035 1035 1035 1035 1035 1035 1035 1035 1035 
1035 1035 1035 1035 1035 1035 1035 1035 1035 
1035 1035 1035 1035 1035 1035 1035 1035 1035 
1035 1035 1035 1035 1035 1035 1035 1035 1035 
1035 1035 1035 1035 1035 1035 1035 1035 1035 
1035 1035 1035 1035 1035 1035 1035 1035 1035 
1035 1035 1035 1035 1035 1035 1035 1035 1035 
1035 1035 1035 1035 1035 1035 1035 1035 1035 
1035 1035 1035 1035 1035 1035 1035 1035 1035 
1035 1035 1035 1035 1035 1035 1035 1035 1035 
1035 1035 1035 1035 1035 1035 1035 1035 1035 
1035 1035 1035 1035 1035 1035 1035 1035 1035 
1035 1035 1035 1035 1035 1035 1035 1035 1035 
1035 1035 1035 1035 1035 1035 1035 1035 1035 
1035 1035 1035 1035 1035 1035 1035 1035 1035 
1035 1035 1035 1035 1035 1035 1035 1035 1035 
1035 1035 1035 1035 1035 1035 1035 1035 1035 
1035 1035 1035 1035 1035 1035 1035 1035 1035 
1035 1035 1035 1035 1035 1035 1035 1035 1035 
1035 1035 1035 1035 1035 1035 1035 1035 1035 
1035 1035 1035 1035 1035 1035 1035 1035 1035 
1035 1035 1035 1035 1035 1035 1035 1035 1035 
1035 1035 1035 1035 1035 1035 1035 1035 1035 
1035 1035 1035 1035 1035 1035 1035 1035 1035 
1035 1035 1035 1035 1035 1035 1035 1035 1035 
1035 1035 1035 1035 1035 1035 1035 1035 1035 
1035 1035 1035 1035 1035 1035 1035 1035 1035 
1035 1035 1035 1035 1035 1035 1035 1035 1035 
1035 1035 1035 1035 1035 1035 1035 1035 1035 
1035 1035 1035 1035 1035 1035 1035 1035 1035 
1035 1035 1035 1035 1035 1035 1035 1035 1035 
1035 1035 1035 1035 1035 1035 1035 1035 1035 
1035 1035 1035 1035 1035 1035 1035 1035 1035 
1035 1035 1035 1035 1035 1035 1035 1035 1035 
1035 1035 1035 1035 1035 1035 1035 1035 1035 
1035 1035 1035 1035 1035 1035 1035 1035 1035 
1035 1035 1035 1035 1035 1035 1035 1035 1035 
1035 1035 1035 1035 1035 1035 1035 1035 1035 
1035 1035 1035 1035 1035 1035 1035 1035 1035 
1035 1035 1035 1035 1035 1035 1035 1035 1035 
1035 1035 1035 1035 1035 1035 1035 1035 1035 
1035 1035 1035 1035 1035 1035 1035 1035 1035 
1035 1035 1035 1035 1035 1035 1035 1035 1035 
1035 1035 1035 1035 1035 1035 1035 1035 1035 
1035 1035 1035 1035 1035 1035 1035 1035 1035 
1035 1035 1035 1035 1035 1035 1035 1035 1035 
1035 1035 1035 1035 1035 1035 1035 1035 1035 
1035 1035 1035 1035 1035 1035 1035 1035 1035 
1035 1035 1035 1035 1035 1035 1035 1035 1035 
1035 1035 1035 1035 1035 1035 1035 1035 1035 
1035 1035 1035 1035 1035 1035 1035 1035 1035 
1035 1035 1035 1035 1035 1035 1035 1035 1035 
1035 1035 1035 1035 1035 1035 1035 1035 1035 
1035 1035 1035 1035 1035 1035 1035 1035 1035 
1035 1035 1035 1035 1035 1035 1035 1035 1035 
1035 1035 1035 1035 1035 1035 1035 1035 1035 
1035 1035 1035 1035 1035 1035 1035 1035 1035 
1035 1035 1035 1035 1035 1035 1035 1035 1035 
1035 1035 1035 1035 1035 1035 1035 1035 1035 
1035 1035 1035 1035 1035 1035 1035 1035 1035 
1035 1035 1035 1035 1035 1035 1035 1035 1035 
1035 1035 1035 1035 1035 1035 1035 1035 1035 
1035 1035 1035 1035 1035 1035 1035 1035 1035 
1035 1035 1035 1035 1035 1035 1035 1035 1035 
1035 1035 1035 1035 1035 1035 1035 1035 1035 
1035 1035 1035 1035 1035 1035 1035 1035 1035 
1035 1035 1035 1035 1035 1035 1035 1035 1035 
1035 1035 1035 1035 1035 1035 1035 1035 1035 
1035 1035 1035 1035 1035 1035 1035 1035 1035 
1035 1035 1035 1035 1035 1035 1035 1035 1035 
1035 1035 1035 1035 1035 1035 1035 1035 1035 
1035 1035 1035 1035 1035 1035 1035 1035 1035 
1035 1035 1035 1035 1035 1035 1035 1035 1035 
1035 1035 1035 1035 1035 1035 1035 1035 1035 
1035 1035 1035 1035 1035 1035 1035 1035 1035 
1035 1035 1035 1035 1035 1035 1035 1035 1035 
1035 1035 1035 1035 1035 1035 1035 1035 1035 
1035 1035 1035 1035 1035 1035 1035 1035 1035 
1035 1035 1035 1035 1035 1035 1035 1035 1035 
1035 1035 1035 1035 1035 1035 1035 1035 1035 
1035 1035 1035 1035 1035 1035 1035 1035 1035 
1035 1035 1035 1035 1035 1035 1035 1035 1035 
1035 1035 1035 1035 1035 1035 1035 1035 1035 
1035 1035 1035 1035 1035 1035 1035 1035 1035 
1035 1035 1035 1035 1035 1035 1035 1035 1035 
1035 1035 1035 1035 1035 1035 1035 1035 1035 
1035 1035 1035 1035 1035 1035 1035 1035 1035 
1035 1035 1035 1035 1035 1035 1035 1035 1035 
1035 1035 1035 1035 1035 1035 1035 1035 1035 
1035 1035 1035 1035 1035 1035 1035 1035 1035 
1035 1035 1035 1035 1035 1035 1035 1035 1035 
1035 1035 1035 1035 1035 1035 1035 1035 1035 
1035 1035 1035 1035 1035 1035 1035 1035 1035 
1035 1035 1035 1035 1035 1035 1035 1035 1035 
1035 1035 1035 1035 1035 1035 1035 1035 1035 
1035 1035 1035 1035 1035 1035 1035 1035 1035 
1035 1035 1035 1035 1035 1035 1035 1035 1035 
1035 1035 1035 1035 1035 1035 1035 1035 1035 
1035 1035 1035 1035 1035 1035 1035 1035 1035 
1035 1035 1035 1035 1035 1035 1035 1035 1035 
1035 1035 1035 1035 1035 1035 1035 1035 1035 
1035 1035 1035 1035 1035 1035 1035 1035 1035 
1035 1035 1035 1035 1035 1035 1035 1035 1035 
1035 1035 1035 1035 1035 1035 1035 1035 1035 
1035 1035 1035 1035 1035 1035 1035 1035 1035 
1035 1035 1035 1035 1035 1035 1035 1035 1035 
1035 1035 1035 1035 1035 1035 1035 1035 1035 
1035 1035 1035 1035 1035 1035 1035 1035 1035 
1035 1035 1035 1035 1035 1035 1035 1035 1035 
1035 1035 1035 1035 1035 1035 1035 1035 1035 
1035 1035 1035 1035 1035 1035 1035 1035 1035 
1035 1035 1035 1035 1035 1035 1035 1035 1035 
1035 1035 1035 1035 1035 1035 1035 1035 1035 
1035 1035 1035 1035 1035 1035 1035 1035 1035 
1035 1035 1035 1035 1035 1035 1035 1035 1035 
1035 1035 1035 1035 1035 1035 1035 1035 1035 
1035 1035 1035 1035 1035 1035 1035 1035 1035 
1035 1035 1035 1035 1035 1035 1035 1035 1035 
1035 1035 1035 1035 1035 1035 1035 1035 1035 
1035 1035 1035 1035 1035 1035 1035 1035 1035 
1035 1035 1035 1035 1035 1035 1035 1035 1035 
1035 1035 1035 1035 1035 1035 1035 1035 1035 
1035 1035 1035 1035 1035 1035 1035 1035 1035 
1035 1035 1035 1035 1035 1035 1035 1035 1035 
1035 1035 1035 1035 1035 1035 1035 1035 1035 
1035 1035 1035 1035 1035 1035 1035 1035 1035 
1035 1035 1035 1035 1035 1035 1035 1035 1035 
1035 1035 1035 1035 1035 1035 1035 1035 1035 
1035 1035 1035 1035 1035 1035 1035 1035 1035 
1035 1035 1035 1035 1035 1035 1035 1035 1035 
1035 1035 1035 1035 1035 1035 1035 1035 1035 
1035 1035 1035 1035 1035 1035 1035 1035 1035 
1035 1035 1035 1035 1035 1035 1035 1035 1035 
1035 1035 1035 1035 1035 1035 1035 1035 1035 
1035 1035 1035 1035 1035 1035 1035 1035 1035 
1035 1035 1035 1035 1035 1035 1035 1035 1035 
1035 1035 1035 1035 1035 1035 1035 1035 1035 
1035 1035 1035 1035 1035 1035 1035 1035 1035 
1035 1035 1035 1035 1035 1035 1035 1035 1035 
1035 1035 1035 1035 1035 1035 1035 1035 1035 
1035 1035 1035 1035 1035 1035 1035 1035 1035 
1035 1035 1035 1035 1035 1035 1035 1035 1035 
1035 1035 1035 1035 1035 1035 1035 1035 1035 
1035 1035 1035 1035 1035 1035 1035 1035 1035 
1035 1035 1035 1035 1035 1035 1035 1035 1035 
1035 1035 1035 1035 1035 1035 1035 1035 1035 
1035 1035 1035 1035 1035 1035 1035 1035 1035 
1035 1035 1035 1035 1035 1035 1035 1035 1035 
1035 1035 1035 1035 1035 1035 1035 1035 1035 
1035 1035 1035 1035 1035 1035 1035 1035 1035 
1035 1035 1035 1035 1035 1035 1035 1035 1035 
1035 1035 1035 1035 1035 1035 1035 1035 1035 
1035 1035 1035 1035 1035 1035 1035 1035 1035 
1035 1035 1035 1035 1035 1035 1035 1035 1035 
1035 1035 1035 1035 1035 1035 1035 1035 1035 
1035 1035 1035 1035 1035 1035 1035 1035 1035 
1035 1035 1035 1035 1035 1035 1035 1035 1035 
1035 1035 1035 1035 1035 1035 1035 1035 1035 
1035 1035 1035 1035 1035 1035 1035 1035 1035 
1035 1035 1035 1035 1035 1035 1035 1035 1035 
1035 1035 1035 1035 1035 1035 1035 1035 1035 
1035 1035 1035 1035 1035 1035 1035 1035 1035 
1035 1035 1035 1035 1035 1035 1035 1035 1035 
1035 1035 1035 1035 1035 1035 1035 1035 1035 
1035 1035 1035 1035 1035 1035 1035 1035 1035 
1035 1035 1035 1035 1035 1035 1035 1035 1035 
1035 1035 1035 1035 1035 1035 1035 1035 1035 
1035 1035 1035 1035 1035 1035 1035 1035 1035 
1035 1035 1035 1035 1035 1035 1035 1035 1035 
1035 1035 1035 1035 1035 1035 1035 1035 1035 
1035 1035 1035 1035 1035 1035 1035 1035 1035 
1035 1035 1035 1035 1035 1035 1035 1035 1035 
1035 1035 1035 1035 1035 1035 1035 1035 1035 
1035 1035 1035 1035 1035 1035 1035 1035 1035 
1035 1035 1035 1035 1035 1035 1035 1035 1035 
1035 1035 1035 1035 1035 1035 1035 1035 1035 
1035 1035 1035 1035 1035 1035 1035 1035 1035 
1035 1035 1035 1035 1035 1035 1035 1035 1035 
1035 1035 1035 1035 1035 1035 1035 1035 1035 
1035 1035 1035 1035 1035 1035 1035 1035 1035 
1035 1035 1035 1035 1035 1035 1035 1035 1035 
1035 1035 1035 1035 1035 1035 1035 1035 1035 
1035 1035 1035 1035 1035 1035 1035 1035 1035 
1035 1035 1035 1035 1035 1035 1035 1035 1035 
1035 1035 1035 1035 1035 1035 1035 1035 1035 
1035 1035 1035 1035 1035 1035 1035 1035 1035 
1035 1035 1035 1035 1035 1035 1035 1035 1035 
1035 1035 1035 1035 1035 1035 1035 1035 1035 
1035 1035 1035 1035 1035 1035 1035 1035 1035 
1035 1035 1035 1035 1035 1035 1035 1035 1035 
1035 1035 1035 1035 1035 1035 1035 1035 1035 
1035 1035 1035 1035 1035 1035 1035 1035 1035 
1035 1035 1035 1035 1035 1035 1035 1035 1035 
1035 1035 1035 1035 1035 1035 1035 1035 1035 
1035 1035 1035 1035 1035 1035 1035 1035 1035 
1035 1035 1035 1035 1035 1035 1035 1035 1035 
1035 1035 1035 1035 1035 1035 1035 1035 1035 
1035 1035 1035 1035 1035 1035 1035 1035 1035 
1035 1035 1035 1035 1035 1035 1035 1035 1035 
1035 1035 1035 1035 1035 1035 1035 1035 1035 
1035 1035 1035 1035 1035 1035 1035 1035 1035 
1035 1035 1035 1035 1035 1035 1035 1035 1035 
1035 1035 1035 1035 1035 1035 1035 1035 1035 
1035 1035 1035 1035 1035 1035 1035 1035 1035 
1035 1035 1035 1035 1035 1035 1035 1035 1035 
1035 1035 1035 1035 1035 1035 1035 1035 1035 
1035 1035 1035 1035 1035 1035 1035 1035 1035 
1035 1035 1035 1035 1035 1035 1035 1035 1035 
1035 1035 1035 1035 1035 1035 1035 1035 1035 
1035 1035 1035 1035 1035 1035 1035 1035 1035 
1035 1035 1035 1035 1035 1035 1035 1035 1035 
1035 1035 1035 1035 1035 1035 1035 1035 1035 
1035 1035 1035 1035 1035 1035 1035 1035 1035 
1035 1035 1035 1035 1035 1035 1035 1035 1035 
1035 1035 1035 1035 1035 1035 1035 1035 1035 
1035 1035 1035 1035 1035 1035 1035 1035 1035 
1035 1035 1035 1035 1035 1035 1035 1035 1035 
1035 1035 1035 1035 1035 1035 1035 1035 1035 
1035 1035 1035 1035 1035 1035 1035 1035 1035 
1035 1035 1035 1035 1035 1035 1035 1035 1035 
1035 1035 1035 1035 1035 1035 1035 1035 1035 
1035 1035 1035 1035 1035 1035 1035 1035 1035 
1035 1035 1035 1035 1035 1035 1035 1035 1035 
1035 1035 1035 1035 1035 1035 1035 1035 1035 
1035 1035 1035 1035 1035 1035 1035 1035 1035 
1035 1035 1035 1035 1035 1035 1035 1035 1035 
1035 1035 1035 1035 1035 1035 1035 1035 1035 
1035 1035 1035 1035 1035 1035 1035 1035 1035 
1035 1035 1035 1035 1035 1035 1035 1035 1035 
1035 1035 1035 1035 1035 1035 1035 1035 1035 
1035 1035 1035 1035 1035 1035 1035 1035 1035 
1035 1035 1035 1035 1035 1035 1035 1035 1035 
1035 1035 1035 1035 1035 1035 1035 1035 1035 
1035 1035 1035 1035 1035 1035 1035 1035 1035 
1035 1035 1035 1035 1035 1035 1035 1035 1035 
1035 1035 1035 1035 1035 1035 1035 1035 1035 
1035 1035 1035 1035 1035 1035 1035 1035 1035 
1035 1035 1035 1035 1035 1035 1035 1035 1035 
1035 1035 1035 1035 1035 1035 1035 1035 1035 
1035 1035 1035 1035 1035 1035 1035 1035 1035 
1035 1035 1035 1035 1035 1035 1035 1035 1035 
1035 1035 1035 1035 1035 1035 1035 1035 1035 
1035 1035 1035 1035 1035 1035 1035 1035 1035 
1035 1035 1035 1035 1035 1035 1035 1035 1035 
1035 1035 1035 1035 1035 1035 1035 1035 1035 
1035 1035 1035 1035 1035 1035 1035 1035 1035 
1035 1035 1035 1035 1035 1035 1035 1035 1035 
1035 1035 1035 1035 1035 1035 1035 1035 1035 
1035 1035 1035 1035 1035 1035 1035 1035 1035 
1035 1035 1035 1035 1035 1035 1035 1035 1035 
1035 1035 1035 1035 1035 1035 1035 1035 1035 
1035 1035 1035 1035 1035 1035 1035 1035 1035 
1035 1035 1035 1035 1035 1035 1035 1035 1035 
1035 1035 1035 1035 1035 1035 1035 1035 1035 
1035 1035 1035 1035 1035 1035 1035 1035 1035 
1035 1035 1035 1035 1035 1035 1035 1035 1035 
1035 1035 1035 1035 1035 1035 1035 1035 1035 
1035 1035 1035 1035 1035 1035 1035 1035 1035 
1035 1035 1035 1035 1035 1035 1035 1035 1035 
1035 1035 1035 1035 1035 1035 1035 1035 1035 
1035 1035 1035 1035 1035 1035 1035 1035 1035 
1035 1035 1035 1035 1035 1035 1035 1035 1035 
1035 1035 1035 1035 1035 1035 1035 1035 1035 
1035 1035 1035 1035 1035 1035 1035 1035 1035 
1035 1035 1035 1035 1035 1035 1035 1035 1035 
1035 1035 1035 1035 1035 1035 1035 1035 1035 
1035 1035 1035 1035 1035 1035 1035 1035 1035 
1035 1035 1035 1035 1035 1035 1035 1035 1035 
1035 1035 1035 1035 1035 1035 1035 1035 1035 
1035 1035 1035 1035 1035 1035 1035 1035 1035 
1035 1035 1035 1035 1035 1035 1035 1035 1035 
1035 1035 1035 1035 1035 1035 1035 1035 1035 
1035 1035 1035 1035 1035 1035 1035 1035 1035 
1035 1035 1035 1035 1035 1035 1035 1035 1035 
1035 1035 1035 1035 1035 1035 1035 1035 1035 
1035 1035 1035 1035 1035 1035 1035 1035 1035 
1035 1035 1035 1035 1035 1035 1035 1035 1035 
1035 1035 1035 1035 1035 1035 1035 1035 1035 
1035 1035 1035 1035 1035 1035 1035 1035 1035 
1035 1035 1035 1035 1035 1035 1035 1035 1035 
1035 1035 1035 1035 1035 1035 1035 1035 1035 
1035 1035 1035 1035 1035 1035 1035 1035 1035 
1035 1035 1035 1035 1035 1035 1035 1035 1035 
1035 1035 1035 1035 1035 1035 1035 1035 1035 
1035 1035 1035 1035 1035 1035 1035 1035 1035 
1035 1035 1035 1035 1035 1035 1035 1035 1035 
1035 1035 1035 1035 1035 1035 1035 1035 1035 
1035 1035 1035 1035 1035 1035 1035 1035 1035 
1035 1035 1035 1035 1035 1035 1035 1035 1035 
1035 1035 1035 1035 1035 1035 1035 1035 1035 
1035 1035 1035 1035 1035 1035 1035 1035 1035 
1035 1035 1035 1035 1035 1035 1035 1035 1035 
1035 1035 1035 1035 1035 1035 1035 1035 1035 
1035 1035 1035 1035 1035 1035 1035 1035 1035 
1035 1035 1035 1035 1035 1035 1035 1035 1035 
1035 1035 1035 1035 1035 1035 1035 1035 1035 
1035 1035 1035 1035 1035 1035 1035 1035 1035 
1035 1035 1035 1035 1035 1035 1035 1035 1035 
1035 1035 1035 1035 1035 1035 1035 1035 1035 
1035 1035 1035 1035 1035 1035 1035 1035 1035 
1035 1035 1035 1035 1035 1035 1035 1035 1035 
1035 1035 1035 1035 1035 1035 1035 1035 1035 
1035 1035 1035 1035 1035 1035 1035 1035 1035 
1035 1035 1035 1035 1035 1035 1035 1035 1035 
1035 1035 1035 1035 1035 1035 1035 1035 1035 
1035 1035 1035 1035 1035 1035 1035 1035 1035 
1035 1035 1035 1035 1035 1035 1035 1035 1035 
1035 1035 1035 1035 1035 1035 1035 1035 1035 
1035 1035 1035 1035 1035 1035 1035 1035 1035 
1035 1035 1035 1035 1035 1035 1035 1035 1035 
1035 1035 1035 1035 1035 1035 1035 1035 1035 
1035 1035 1035 1035 1035 1035 1035 1035 1035 
1035 1035 1035 1035 1035 1035 1035 1035 1035 
1035 1035 1035 1035 1035 1035 1035 1035 1035 
1035 1035 1035 1035 1035 1035 1035 1035 1035 
1035 1035 1035 1035 1035 1035 1035 1035 1035 
1035 1035 1035 1035 1035 1035 1035 1035 1035 
1035 1035 1035 1035 1035 1035 1035 1035 1035 
1035 1035 1035 1035 1035 1035 1035 1035 1035 
1035 1035 1035 1035 1035 1035 1035 1035 1035 
1035 1035 1035 1035 1035 1035 1035 1035 1035 
1035 1035 1035 1035 1035 1035 1035 1035 1035 
1035 1035 1035 1035 1035 1035 1035 1035 1035 
1035 1035 1035 1035 1035 1035 1035 1035 1035 
1035 1035 1035 1035 1035 1035 1035 1035 1035 
1035 1035 1035 1035 1035 1035 1035 1035 1035 
1035 1035 1035 1035 1035 1035 1035 1035 1035 
1035 1035 1035 1035 1035 1035 1035 1035 1035 
1035 1035 1035 1035 1035 1035 1035 1035 1035 
1035 1035 1035 1035 1035 1035 1035 1035 1035 
1035 1035 1035 1035 1035 1035 1035 1035 1035 
1035 1035 1035 1035 1035 1035 1035 1035 1035 
1035 1035 1035 1035 1035 1035 1035 1035 1035 
1035 1035 1035 1035 1035 1035 1035 1035 1035 
1035 1035 1035 1035 1035 1035 1035 1035 1035 
1035 1035 1035 1035 1035 1035 1035 1035 1035 
1035 1035 1035 1035 1035 1035 1035 1035 1035 
1035 1035 1035 1035 1035 1035 1035 1035 1035 
1035 1035 1035 1035 1035 1035 1035 1035 1035 
1035 1035 1035 1035 1035 1035 1035 1035 1035 
1035 1035 1035 1035 1035 1035 1035 1035 1035 
1035 1035 1035 1035 1035 1035 1035 1035 1035 
1035 1035 1035 1035 1035 1035 1035 1035 1035 
1035 1035 1035 1035 1035 1035 1035 1035 1035 
1035 1035 1035 1035 1035 1035 1035 1035 1035 
1035 1035 1035 1035 1035 1035 1035 1035 1035 
1035 1035 1035 1035 1035 1035 1035 1035 1035 
1035 1035 1035 1035 1035 1035 1035 1035 1035 
1035 1035 1035 1035 1035 1035 1035 1035 1035 
1035 1035 1035 1035 1035 1035 1035 1035 1035 
1035 1035 1035 1035 1035 1035 1035 1035 1035 
1035 1035 1035 1035 1035 1035 1035 1035 1035 
1035 1035 1035 1035 1035 1035 1035 1035 1035 
1035 1035 1035 1035 1035 1035 1035 1035 1035 
1035 1035 1035 1035 1035 1035 1035 1035 1035 
1035 1035 1035 1035 1035 1035 1035 1035 1035 
1035 1035 1035 1035 1035 1035 1035 1035 1035 
1035 1035 1035 1035 1035 1035 1035 1035 1035 
1035 1035 1035 1035 1035 1035 1035 1035 1035 
1035 1035 1035 1035 1035 1035 1035 1035 1035 
1035 1035 1035 1035 1035 1035 1035 1035 1035 
1035 1035 1035 1035 1035 1035 1035 1035 1035 
1035 1035 1035 1035 1035 1035 1035 1035 1035 
1035 1035 1035 1035 1035 1035 1035 1035 1035 
1035 1035 1035 1035 1035 1035 1035 1035 1035 
1035 1035 1035 1035 1035 1035 1035 1035 1035 
1035 1035 1035 1035 1035 1035 1035 1035 1035 
1035 1035 1035 1035 1035 1035 1035 1035 1035 
1035 1035 1035 1035 1035 1035 1035 1035 1035 
1035 1035 1035 1035 1035 1035 1035 1035 1035 
1035 1035 1035 1035 1035 1035 1035 1035 1035 
1035 1035 1035 1035 1035 1035 1035 1035 1035 