# vtk DataFile Version 4.2
vtk output
ASCII
DATASET POLYDATA
POINTS 3870 float
-41.7515 65.8898 -15.6453 -41.7408 65.3678 -15.0043 -41.2108 65.3715 -15.5339 
-42.4403 65.8354 -15.8073 -42.4096 65.5785 -15.0792 -43.0018 65.5117 -15.3995 
-40.9852 65.7836 -16.2584 -40.692 65.1548 -16.1262 -40.5152 65.4373 -16.5688 
-41.6561 65.9039 -16.4114 -42.2368 65.4533 -16.5563 -42.9446 65.2122 -16.0119 
-40.8064 65.4202 -17.0018 -41.6917 65.4186 -17.0327 -28.659 65.78 -18.473 
-28.5715 65.4052 -18.3499 -28.5055 65.4195 -18.6252 -28.8254 65.3829 -18.4077 
-30.9681 65.9562 -18.6456 -30.7678 65.2715 -18.2004 -30.3584 65.5843 -18.7646 
-31.9302 65.9936 -18.6842 -31.5483 65.614 -18.1422 -32.7196 65.8169 -18.7784 
-32.5901 65.2596 -18.0161 -33.2442 65.3574 -18.5349 -28.7594 65.3971 -18.683 
-30.5998 65.8694 -19.2965 -30.2922 65.2212 -19.425 -31.3869 65.9706 -19.4212 
-32.36 65.863 -19.4249 -33.1672 65.5221 -19.2186 -34.7202 65.6138 -19.512 
-34.5859 65.4607 -19.2764 -34.4342 65.552 -19.522 -35.0936 65.2206 -19.582 
-30.936 65.3957 -19.8666 -31.9334 65.3703 -19.9551 -32.8005 65.3666 -19.8037 
-33.7139 65.5494 -20.2748 -33.5056 65.2811 -20.7024 -33.7084 65.6558 -20.5629 
-34.6725 65.3365 -19.8978 -34.0795 65.2677 -20.6197 -33.7908 65.3905 -20.9947 
-43.0603 64.8351 -12.6749 -42.6176 64.459 -12.1529 -42.278 64.4718 -12.8234 
-43.7245 64.8354 -12.7662 -43.3787 64.5625 -12.0841 -44.1072 64.2926 -12.392 
-39.7676 64.699 -13.7886 -39.7032 64.5391 -13.281 -39.3045 64.4707 -13.7408 
-40.0489 64.4417 -13.4791 -42.7933 64.8956 -13.6438 -42.0538 64.4936 -13.5709 
-43.6486 64.9155 -13.5496 -44.1308 64.3997 -13.3076 -39.6278 64.6624 -14.3754 
-39.3385 64.3893 -14.6753 -40.153 64.4648 -14.2434 -42.0947 64.9196 -14.3368 
-41.5782 64.3255 -14.1149 -41.3026 64.6016 -14.8901 -42.9719 65.1969 -14.7201 
-43.6577 64.908 -14.5742 -44.1574 64.3959 -14.3563 -37.6574 64.7529 -15.8417 
-37.5608 64.4671 -15.2754 -37.1301 64.6521 -15.6551 -38.0679 64.3899 -15.4563 
-39.8734 64.3614 -14.8618 -40.956 64.6484 -15.5879 -43.5411 65.0365 -15.4266 
-44.1018 64.3821 -15.3135 -36.0288 64.8166 -16.6367 -35.4853 64.2394 -16.2078 
-35.2616 64.4824 -16.816 -36.9077 64.9192 -16.3337 -36.3556 64.376 -15.9173 
-37.4583 64.7823 -16.7163 -38.148 64.4305 -16.2021 -40.5428 64.4046 -16.0667 
-40.1998 64.8033 -16.6674 -42.4567 64.6191 -16.6857 -43.0019 64.3102 -16.2701 
-43.6574 64.4371 -15.8987 -32.7037 64.7947 -17.5294 -32.6238 64.2669 -17.3368 
-32.3378 64.4559 -17.7216 -33.1377 64.4357 -17.4095 -35.7389 64.8987 -17.6788 
-35.0187 64.5362 -17.5565 -36.7131 64.891 -17.4354 -37.3377 64.5257 -17.498 
-37.8531 64.3658 -16.9847 -38.7959 64.3924 -17.1637 -38.3317 64.3838 -17.7784 
-39.0333 64.7359 -17.6545 -39.8778 64.9397 -17.4173 -39.3785 64.4434 -16.9592 
-40.5185 64.954 -17.7901 -41.4121 64.9406 -17.5617 -42.0602 64.6104 -17.4071 
-28.7269 64.409 -18.2344 -28.3711 64.4918 -18.7593 -29.1819 64.4075 -18.6461 
-30.4833 64.3201 -18.1081 -30.1448 64.5518 -18.7515 -31.5737 64.5913 -18.0575 
-33.8776 65.0002 -18.6614 -33.5945 64.7368 -18.0155 -34.8974 65.0013 -18.6326 
-34.3916 64.4594 -17.9258 -35.8747 65.0323 -18.7281 -36.741 64.8787 -18.651 
-37.2551 64.4704 -18.2575 -38.5688 64.8446 -18.5857 -38.0319 64.5489 -18.6875 
-39.4986 64.8539 -18.4882 -40.2876 64.6049 -18.3873 -41.0645 64.5018 -18.1445 
-41.7429 64.3376 -18.032 -28.6764 64.6364 -19.0325 -30.2801 64.3268 -19.5444 
-33.8356 65.2196 -19.7693 -35.6355 65.0094 -19.3108 -36.4567 64.8904 -19.4463 
-37.5361 64.5463 -18.8735 -37.6626 64.8167 -19.3647 -38.638 64.8234 -19.4633 
-39.3203 64.3655 -19.6249 -39.8397 64.4484 -18.9588 -30.6367 64.6526 -19.9253 
-31.579 64.4885 -20.2222 -32.6512 64.7403 -20.1592 -33.0675 64.5709 -20.6603 
-34.55 65.0209 -20.4043 -35.0157 64.7524 -20.3518 -35.7029 64.3599 -20.0102 
-36.8981 64.5315 -19.937 -37.8437 64.4372 -20.1109 -38.6923 64.4125 -20.12 
-33.6537 64.9587 -21.4556 -33.214 64.5079 -21.5049 -34.0894 64.5853 -21.3354 
-34.5897 64.5174 -20.829 -33.6137 64.1881 -21.8809 -39.8982 63.7657 -10.7546 
-39.5236 63.3203 -10.292 -39.3901 63.5598 -10.6708 -40.0434 63.1945 -10.5137 
-42.8184 63.748 -10.8072 -42.7113 63.5037 -10.3777 -42.3055 63.5474 -10.67 
-42.989 63.4549 -10.4668 -46.6929 63.6341 -10.5048 -46.5651 63.5027 -10.2772 
-46.4295 63.5681 -10.4987 -47.0997 63.2574 -10.6061 -39.8131 63.8845 -11.479 
-39.3142 63.4073 -11.4563 -40.689 63.3735 -10.9989 -40.7902 63.8654 -11.4958 
-41.8962 63.8476 -11.2888 -41.7195 63.3116 -11.0333 -42.6864 64.1642 -11.6037 
-43.493 63.2043 -10.8623 -43.8723 63.9606 -11.5007 -44.9231 63.7718 -11.4476 
-44.5999 63.3047 -11.3119 -45.5312 63.6612 -11.6057 -45.4771 63.4356 -11.2522 
-46.6751 63.3409 -10.8627 -46.1502 63.2232 -11.59 -39.701 64.0554 -12.7141 
-39.1435 63.3496 -12.4187 -40.6695 63.9894 -12.5036 -41.7345 64.1037 -12.199 
-44.8215 63.6065 -11.8767 -44.4432 63.3647 -12.4646 -45.6782 63.2291 -11.9655 
-37.8376 63.8265 -13.7276 -37.5869 63.1343 -13.1119 -37.0005 63.5457 -13.615 
-38.8406 63.9495 -13.2861 -38.5607 63.3379 -12.9664 -40.5688 64.1117 -13.5502 
-41.4608 64.1013 -13.3667 -44.1598 63.4229 -13.633 -36.8896 63.8013 -14.3029 
-36.4655 63.3259 -13.879 -36.3043 63.3107 -14.519 -37.7606 64.1156 -14.8081 
-38.7009 64.108 -14.4645 -40.7308 64.1112 -14.5924 -44.1833 63.6192 -14.8983 
-36.8377 64.0768 -15.1666 -36.2718 63.2729 -15.529 -38.712 64.0545 -15.6314 
-39.6782 64.0187 -15.3037 -40.6039 64.0846 -15.5125 -44.0474 63.7301 -15.6346 
-33.7913 63.8185 -16.7391 -33.8703 63.3185 -16.1105 -33.2099 63.4015 -16.3384 
-34.7553 64.0309 -16.5062 -34.7867 63.5068 -16.1404 -35.7206 63.677 -15.9593 
-38.6059 64.1468 -16.787 -39.7498 64.0633 -16.2225 -42.6357 63.9363 -16.7169 
-43.0749 63.3051 -16.5006 -43.5476 63.553 -15.9506 -32.7692 63.5988 -16.8923 
-32.3185 63.4977 -17.4381 -33.9303 64.1943 -17.4939 -34.5634 64.1433 -17.1569 
-37.7826 64.1904 -17.6575 -42.3789 63.6515 -17.4802 -42.7341 63.3379 -17.1246 
-28.6481 63.256 -18.1229 -28.2873 63.5886 -18.5017 -29.8335 64.0855 -18.4113 
-29.6832 63.4381 -18.1437 -30.9888 63.5337 -18.1568 -31.5659 63.7593 -18.5099 
-31.4933 63.2976 -18.5697 -31.9691 63.6097 -18.2329 -37.7667 64.259 -18.3731 
-40.5233 64.2113 -18.8102 -41.3902 63.922 -18.7285 -42.0354 63.6878 -18.2624 
-28.5503 63.8894 -19.4865 -28.3717 63.2732 -19.25 -29.0504 63.6323 -19.3521 
-29.6808 63.7451 -18.9062 -30.1802 63.3032 -19.2817 -31.7191 63.4501 -18.7333 
-39.946 64.0791 -19.4159 -40.6175 63.8026 -19.4218 -41.2021 63.4556 -19.3935 
-41.7314 63.1547 -19.0119 -28.6668 63.3787 -19.7367 -30.8396 63.7611 -20.0879 
-31.7283 63.8872 -20.7377 -31.2018 63.3696 -20.7406 -32.4154 64.1821 -20.6042 
-34.9013 64.0485 -20.5205 -34.4199 63.6849 -20.8792 -34.9386 63.2643 -20.2259 
-35.6847 63.4753 -20.0599 -36.6421 63.7121 -20.2253 -37.6116 63.8559 -20.5312 
-37.1067 63.3382 -20.6299 -38.3908 63.9591 -20.5778 -39.1343 63.8029 -20.4017 
-39.9556 63.4502 -20.0765 -40.7176 63.2541 -19.8217 -31.69 63.7174 -21.3693 
-31.3549 63.1746 -21.4725 -32.4615 63.9931 -21.3851 -33.9783 63.5457 -21.4856 
-37.8955 63.2656 -20.9053 -38.9219 63.2617 -20.878 -32.0181 63.3967 -21.9315 
-32.9001 63.703 -22.029 -33.4406 63.2914 -21.9426 -47.7087 62.7879 -6.76894 
-47.4841 62.2563 -6.17751 -47.1419 62.6242 -6.60537 -48.0376 62.2873 -6.4179 
-46.9304 62.9147 -7.55889 -46.6801 62.5699 -6.94391 -46.168 62.5196 -7.43188 
-47.7652 62.9113 -7.66013 -48.1613 62.439 -7.21639 -46.0096 62.8685 -8.44169 
-45.5856 62.3741 -7.90353 -45.3551 62.3989 -8.584 -46.8858 63.0751 -8.72041 
-47.5975 62.9371 -8.55814 -48.1309 62.4421 -8.23299 -45.5723 62.8894 -9.4849 
-45.1284 62.3694 -9.42523 -46.6523 63.1782 -9.69839 -47.5767 62.9356 -9.57058 
-48.1031 62.3948 -9.27339 -39.5577 62.3269 -10.1423 -39.1209 62.7759 -10.6623 
-40.299 62.4079 -10.4078 -42.6768 63.2412 -10.6044 -44.0008 62.746 -10.5788 
-43.7122 62.1608 -10.1929 -43.286 62.6204 -10.5975 -44.8644 62.7156 -10.5017 
-44.6177 62.3504 -9.99901 -45.9874 63.2137 -10.6367 -47.5756 62.9712 -10.3433 
-48.071 62.2913 -10.4021 -39.0402 62.625 -11.7316 -40.6364 62.7494 -10.8004 
-41.3948 62.6166 -10.9416 -42.4992 62.6542 -10.8117 -44.3928 62.7313 -11.37 
-44.6569 63.0746 -11.721 -44.7015 62.4064 -11.2316 -45.0674 62.8365 -11.5715 
-46.6046 63.0163 -11.3578 -47.2642 62.5118 -11.5624 -47.7591 62.5119 -11.0828 
-38.9788 62.402 -12.7514 -42.7703 62.6744 -12.5545 -42.4779 62.2053 -12.6988 
-42.6129 62.4943 -12.2971 -43.0253 62.5908 -12.558 -44.638 62.5849 -11.9704 
-44.6829 62.8092 -12.6526 -45.5038 62.7641 -12.4851 -46.2151 62.7353 -12.3627 
-46.7712 62.5224 -12.0578 -36.7067 63.0446 -13.3607 -36.9426 62.4812 -13.1864 
-36.3157 62.6961 -13.7057 -37.8561 62.4432 -13.0719 -38.4752 62.7017 -12.9647 
-42.7994 62.5461 -13.0018 -43.3894 62.8207 -13.2377 -43.1668 62.4179 -13.82 
-43.7545 62.4463 -13.051 -44.9996 62.443 -13.0634 -45.8554 62.4192 -12.9057 
-36.2982 62.5559 -14.4329 -43.7566 62.9512 -14.319 -43.4096 62.4408 -14.7203 
-33.5701 62.896 -15.7501 -33.7234 62.2079 -15.2482 -33.1183 62.5141 -15.6265 
-34.2375 62.3547 -15.411 -36.573 62.5805 -15.1182 -36.7233 62.7977 -15.8133 
-37.0256 62.3902 -15.4981 -43.7885 63.0363 -15.2849 -43.3473 62.4908 -15.6157 
-32.8139 62.9382 -16.2152 -32.6448 62.1572 -16.0361 -32.3729 62.6704 -16.779 
-34.6111 62.6407 -15.8401 -35.6648 62.8064 -16.1143 -36.4943 62.7721 -16.3622 
-36.2468 62.1659 -16.6006 -37.1376 62.4936 -16.2837 -43.3528 62.2046 -16.5212 
-32.0723 62.5226 -17.6498 -36.9476 62.2578 -16.861 -42.6464 62.9043 -17.7483 
-43.0299 62.55 -17.4457 -28.9037 62.5933 -18.2805 -28.3942 62.6761 -18.5493 
-29.4746 62.9358 -18.7977 -28.9139 62.3738 -18.7336 -30.1265 62.4805 -18.4702 
-30.711 62.4527 -17.9167 -31.7867 63.04 -18.4654 -31.5522 62.5214 -18.0976 
-42.3302 62.558 -18.5862 -42.7898 62.3262 -18.1981 -28.564 62.4539 -18.9638 
-28.8465 62.8874 -19.3533 -30.3482 62.1476 -19.3465 -41.3147 62.5094 -19.7125 
-41.8153 62.3913 -19.2453 -30.7177 62.7463 -20.0529 -31.0488 62.5319 -20.7256 
-34.1974 62.4954 -20.6867 -34.8048 62.2899 -19.9275 -35.6996 62.7394 -20.1267 
-36.4999 62.901 -20.4745 -36.2296 62.1516 -20.535 -39.5836 63.0759 -20.6629 
[...]
CELL_DATA 7756
SCALARS scalars float
LOOKUP_TABLE default
1019 1019 1019 1019 1019 1019 1019 1019 1019 
1019 1019 1019 1019 1019 1019 1019 1019 1019 
1019 1019 1019 1019 1019 1019 1019 1019 1019 
1019 1019 1019 1019 1019 1019 1019 1019 1019 
1019 1019 1019 1019 1019 1019 1019 1019 1019 
1019 1019 1019 1019 1019 1019 1019 1019 1019 
1019 1019 1019 1019 1019 1019 1019 1019 1019 
1019 1019 1019 1019 1019 1019 1019 1019 1019 
1019 1019 1019 1019 1019 1019 1019 1019 1019 
1019 1019 1019 1019 1019 1019 1019 1019 1019 
1019 1019 1019 1019 1019 1019 1019 1019 1019 
1019 1019 1019 1019 1019 1019 1019 1019 1019 
1019 1019 1019 1019 1019 1019 1019 1019 1019 
1019 1019 1019 1019 1019 1019 1019 1019 1019 
1019 1019 1019 1019 1019 1019 1019 1019 1019 
1019 1019 1019 1019 1019 1019 1019 1019 1019 
1019 1019 1019 1019 1019 1019 1019 1019 1019 
1019 1019 1019 1019 1019 1019 1019 1019 1019 
1019 1019 1019 1019 1019 1019 1019 1019 1019 
1019 1019 1019 1019 1019 1019 1019 1019 1019 
1019 1019 1019 1019 1019 1019 1019 1019 1019 
1019 1019 1019 1019 1019 1019 1019 1019 1019 
1019 1019 1019 1019 1019 1019 1019 1019 1019 
1019 1019 1019 1019 1019 1019 1019 1019 1019 
1019 1019 1019 1019 1019 1019 1019 1019 1019 
1019 1019 1019 1019 1019 1019 1019 1019 1019 
1019 1019 1019 1019 1019 1019 1019 1019 1019 
1019 1019 1019 1019 1019 1019 1019 1019 1019 
1019 1019 1019 1019 1019 1019 1019 1019 1019 
1019 1019 1019 1019 1019 1019 1019 1019 1019 
1019 1019 1019 1019 1019 1019 1019 1019 1019 
1019 1019 1019 1019 1019 1019 1019 1019 1019 
1019 1019 1019 1019 1019 1019 1019 1019 1019 
1019 1019 1019 1019 1019 1019 1019 1019 1019 
1019 1019 1019 1019 1019 1019 1019 1019 1019 
1019 1019 1019 1019 1019 1019 1019 1019 1019 
1019 1019 1019 1019 1019 1019 1019 1019 1019 
1019 1019 1019 1019 1019 1019 1019 1019 1019 
1019 1019 1019 1019 1019 1019 1019 1019 1019 
1019 1019 1019 1019 1019 1019 1019 1019 1019 
1019 1019 1019 1019 1019 1019 1019 1019 1019 
1019 1019 1019 1019 1019 1019 1019 1019 1019 
1019 1019 1019 1019 1019 1019 1019 1019 1019 
1019 1019 1019 1019 1019 1019 1019 1019 1019 
1019 1019 1019 1019 1019 1019 1019 1019 1019 
1019 1019 1019 1019 1019 1019 1019 1019 1019 
1019 1019 1019 1019 1019 1019 1019 1019 1019 
1019 1019 1019 1019 1019 1019 1019 1019 1019 
1019 1019 1019 1019 1019 1019 1019 1019 1019 
1019 1019 1019 1019 1019 1019 1019 1019 1019 
1019 1019 1019 1019 1019 1019 1019 1019 1019 
1019 1019 1019 1019 1019 1019 1019 1019 1019 
1019 1019 1019 1019 1019 1019 1019 1019 1019 
1019 1019 1019 1019 1019 1019 1019 1019 1019 
1019 1019 1019 1019 1019 1019 1019 1019 1019 
1019 1019 1019 1019 1019 1019 1019 1019 1019 
1019 1019 1019 1019 1019 1019 1019 1019 1019 
1019 1019 1019 1019 1019 1019 1019 1019 1019 
1019 1019 1019 1019 1019 1019 1019 1019 1019 
1019 1019 1019 1019 1019 1019 1019 1019 1019 
1019 1019 1019 1019 1019 1019 1019 1019 1019 
1019 1019 1019 1019 1019 1019 1019 1019 1019 
1019 1019 1019 1019 1019 1019 1019 1019 1019 
1019 1019 1019 1019 1019 1019 1019 1019 1019 
1019 1019 1019 1019 1019 1019 1019 1019 1019 
1019 1019 1019 1019 1019 1019 1019 1019 1019 
1019 1019 1019 1019 1019 1019 1019 1019 1019 
1019 1019 1019 1019 1019 1019 1019 1019 1019 
1019 1019 1019 1019 1019 1019 1019 1019 1019 
1019 1019 1019 1019 1019 1019 1019 1019 1019 
1019 1019 1019 1019 1019 1019 1019 1019 1019 
1019 1019 1019 1019 1019 1019 1019 1019 1019 
1019 1019 1019 1019 1019 1019 1019 1019 1019 
1019 1019 1019 1019 1019 1019 1019 1019 1019 
1019 1019 1019 1019 1019 1019 1019 1019 1019 
1019 1019 1019 1019 1019 1019 1019 1019 1019 
1019 1019 1019 1019 1019 1019 1019 1019 1019 
1019 1019 1019 1019 1019 1019 1019 1019 1019 
1019 1019 1019 1019 1019 1019 1019 1019 1019 
1019 1019 1019 1019 1019 1019 1019 1019 1019 
1019 1019 1019 1019 1019 1019 1019 1019 1019 
1019 1019 1019 1019 1019 1019 1019 1019 1019 
1019 1019 1019 1019 1019 1019 1019 1019 1019 
1019 1019 1019 1019 1019 1019 1019 1019 1019 
1019 1019 1019 1019 1019 1019 1019 1019 1019 
1019 1019 1019 1019 1019 1019 1019 1019 1019 
1019 1019 1019 1019 1019 1019 1019 1019 1019 
1019 1019 1019 1019 1019 1019 1019 1019 1019 
1019 1019 1019 1019 1019 1019 1019 1019 1019 
1019 1019 1019 1019 1019 1019 1019 1019 1019 
1019 1019 1019 1019 1019 1019 1019 1019 1019 
1019 1019 1019 1019 1019 1019 1019 1019 1019 
1019 1019 1019 1019 1019 1019 1019 1019 1019 
1019 1019 1019 1019 1019 1019 1019 1019 1019 
1019 1019 1019 1019 1019 1019 1019 1019 1019 
1019 1019 1019 1019 1019 1019 1019 1019 1019 
1019 1019 1019 1019 1019 1019 1019 1019 1019 
1019 1019 1019 1019 1019 1019 1019 1019 1019 
1019 1019 1019 1019 1019 1019 1019 1019 1019 
1019 1019 1019 1019 1019 1019 1019 1019 1019 
1019 1019 1019 1019 1019 1019 1019 1019 1019 
1019 1019 1019 1019 1019 1019 1019 1019 1019 
1019 1019 1019 1019 1019 1019 1019 1019 1019 
1019 1019 1019 1019 1019 1019 1019 1019 1019 
1019 1019 1019 1019 1019 1019 1019 1019 1019 
1019 1019 1019 1019 1019 1019 1019 1019 1019 
1019 1019 1019 1019 1019 1019 1019 1019 1019 
1019 1019 1019 1019 1019 1019 1019 1019 1019 
1019 1019 1019 1019 1019 1019 1019 1019 1019 
1019 1019 1019 1019 1019 1019 1019 1019 1019 
1019 1019 1019 1019 1019 1019 1019 1019 1019 
1019 1019 1019 1019 1019 1019 1019 1019 1019 
1019 1019 1019 1019 1019 1019 1019 1019 1019 
1019 1019 1019 1019 1019 1019 1019 1019 1019 
1019 1019 1019 1019 1019 1019 1019 1019 1019 
1019 1019 1019 1019 1019 1019 1019 1019 1019 
1019 1019 1019 1019 1019 1019 1019 1019 1019 
1019 1019 1019 1019 1019 1019 1019 1019 1019 
1019 1019 1019 1019 1019 1019 1019 1019 1019 
1019 1019 1019 1019 1019 1019 1019 1019 1019 
1019 1019 1019 1019 1019 1019 1019 1019 1019 
1019 1019 1019 1019 1019 1019 1019 1019 1019 
1019 1019 1019 1019 1019 1019 1019 1019 1019 
1019 1019 1019 1019 1019 1019 1019 1019 1019 
1019 1019 1019 1019 1019 1019 1019 1019 1019 
1019 1019 1019 1019 1019 1019 1019 1019 1019 
1019 1019 1019 1019 1019 1019 1019 1019 1019 
1019 1019 1019 1019 1019 1019 1019 1019 1019 
1019 1019 1019 1019 1019 1019 1019 1019 1019 
1019 1019 1019 1019 1019 1019 1019 1019 1019 
1019 1019 1019 1019 1019 1019 1019 1019 1019 
1019 1019 1019 1019 1019 1019 1019 1019 1019 
1019 1019 1019 1019 1019 1019 1019 1019 1019 
1019 1019 1019 1019 1019 1019 1019 1019 1019 
1019 1019 1019 1019 1019 1019 1019 1019 1019 
1019 1019 1019 1019 1019 1019 1019 1019 1019 
1019 1019 1019 1019 1019 1019 1019 1019 1019 
1019 1019 1019 1019 1019 1019 1019 1019 1019 
1019 1019 1019 1019 1019 1019 1019 1019 1019 
1019 1019 1019 1019 1019 1019 1019 1019 1019 
1019 1019 1019 1019 1019 1019 1019 1019 1019 
1019 1019 1019 1019 1019 1019 1019 1019 1019 
1019 1019 1019 1019 1019 1019 1019 1019 1019 
1019 1019 1019 1019 1019 1019 1019 1019 1019 
1019 1019 1019 1019 1019 1019 1019 1019 1019 
1019 1019 1019 1019 1019 1019 1019 1019 1019 
1019 1019 1019 1019 1019 1019 1019 1019 1019 
1019 1019 1019 1019 1019 1019 1019 1019 1019 
1019 1019 1019 1019 1019 1019 1019 1019 1019 
1019 1019 1019 1019 1019 1019 1019 1019 1019 
1019 1019 1019 1019 1019 1019 1019 1019 1019 
1019 1019 1019 1019 1019 1019 1019 1019 1019 
1019 1019 1019 1019 1019 1019 1019 1019 1019 
1019 1019 1019 1019 1019 1019 1019 1019 1019 
1019 1019 1019 1019 1019 1019 1019 1019 1019 
1019 1019 1019 1019 1019 1019 1019 1019 1019 
1019 1019 1019 1019 1019 1019 1019 1019 1019 
1019 1019 1019 1019 1019 1019 1019 1019 1019 
1019 1019 1019 1019 1019 1019 1019 1019 1019 
1019 1019 1019 1019 1019 1019 1019 1019 1019 
1019 1019 1019 1019 1019 1019 1019 1019 1019 
1019 1019 1019 1019 1019 1019 1019 1019 1019 
1019 1019 1019 1019 1019 1019 1019 1019 1019 
1019 1019 1019 1019 1019 1019 1019 1019 1019 
1019 1019 1019 1019 1019 1019 1019 1019 1019 
1019 1019 1019 1019 1019 1019 1019 1019 1019 
1019 1019 1019 1019 1019 1019 1019 1019 1019 
1019 1019 1019 1019 1019 1019 1019 1019 1019 
1019 1019 1019 1019 1019 1019 1019 1019 1019 
1019 1019 1019 1019 1019 1019 1019 1019 1019 
1019 1019 1019 1019 1019 1019 1019 1019 1019 
1019 1019 1019 1019 1019 1019 1019 1019 1019 
1019 1019 1019 1019 1019 1019 1019 1019 1019 
1019 1019 1019 1019 1019 1019 1019 1019 1019 
1019 1019 1019 1019 1019 1019 1019 1019 1019 
1019 1019 1019 1019 1019 1019 1019 1019 1019 
1019 1019 1019 1019 1019 1019 1019 1019 1019 
1019 1019 1019 1019 1019 1019 1019 1019 1019 
1019 1019 1019 1019 1019 1019 1019 1019 1019 
1019 1019 1019 1019 1019 1019 1019 1019 1019 
1019 1019 1019 1019 1019 1019 1019 1019 1019 
1019 1019 1019 1019 1019 1019 1019 1019 1019 
1019 1019 1019 1019 1019 1019 1019 1019 1019 
1019 1019 1019 1019 1019 1019 1019 1019 1019 
1019 1019 1019 1019 1019 1019 1019 1019 1019 
1019 1019 1019 1019 1019 1019 1019 1019 1019 
1019 1019 1019 1019 1019 1019 1019 1019 1019 
1019 1019 1019 1019 1019 1019 1019 1019 1019 
1019 1019 1019 1019 1019 1019 1019 1019 1019 
1019 1019 1019 1019 1019 1019 1019 1019 1019 
1019 1019 1019 1019 1019 1019 1019 1019 1019 
1019 1019 1019 1019 1019 1019 1019 1019 1019 
1019 1019 1019 1019 1019 1019 1019 1019 1019 
1019 1019 1019 1019 1019 1019 1019 1019 1019 
1019 1019 1019 1019 1019 1019 1019 1019 1019 
1019 1019 1019 1019 1019 1019 1019 1019 1019 
1019 1019 1019 1019 1019 1019 1019 1019 1019 
1019 1019 1019 1019 1019 1019 1019 1019 1019 
1019 1019 1019 1019 1019 1019 1019 1019 1019 
1019 1019 1019 1019 1019 1019 1019 1019 1019 
1019 1019 1019 1019 1019 1019 1019 1019 1019 
1019 1019 1019 1019 1019 1019 1019 1019 1019 
1019 1019 1019 1019 1019 1019 1019 1019 1019 
1019 1019 1019 1019 1019 1019 1019 1019 1019 
1019 1019 1019 1019 1019 1019 1019 1019 1019 
1019 1019 1019 1019 1019 1019 1019 1019 1019 
1019 1019 1019 1019 1019 1019 1019 1019 1019 
1019 1019 1019 1019 1019 1019 1019 1019 1019 
1019 1019 1019 1019 1019 1019 1019 1019 1019 
1019 1019 1019 1019 1019 1019 1019 1019 1019 
1019 1019 1019 1019 1019 1019 1019 1019 1019 
1019 1019 1019 1019 1019 1019 1019 1019 1019 
1019 1019 1019 1019 1019 1019 1019 1019 1019 
1019 1019 1019 1019 1019 1019 1019 1019 1019 
1019 1019 1019 1019 1019 1019 1019 1019 1019 
1019 1019 1019 1019 1019 1019 1019 1019 1019 
1019 1019 1019 1019 1019 1019 1019 1019 1019 
1019 1019 1019 1019 1019 1019 1019 1019 1019 
1019 1019 1019 1019 1019 1019 1019 1019 1019 
1019 1019 1019 1019 1019 1019 1019 1019 1019 
1019 1019 1019 1019 1019 1019 1019 1019 1019 
1019 1019 1019 1019 1019 1019 1019 1019 1019 
1019 1019 1019 1019 1019 1019 1019 1019 1019 
1019 1019 1019 1019 1019 1019 1019 1019 1019 
1019 1019 1019 1019 1019 1019 1019 1019 1019 
1019 1019 1019 1019 1019 1019 1019 1019 1019 
1019 1019 1019 1019 1019 1019 1019 1019 1019 
1019 1019 1019 1019 1019 1019 1019 1019 1019 
1019 1019 1019 1019 1019 1019 1019 1019 1019 
1019 1019 1019 1019 1019 1019 1019 1019 1019 
1019 1019 1019 1019 1019 1019 1019 1019 1019 
1019 1019 1019 1019 1019 1019 1019 1019 1019 
1019 1019 1019 1019 1019 1019 1019 1019 1019 
1019 1019 1019 1019 1019 1019 1019 1019 1019 
1019 1019 1019 1019 1019 1019 1019 1019 1019 
1019 1019 1019 1019 1019 1019 1019 1019 1019 
1019 1019 1019 1019 1019 1019 1019 1019 1019 
1019 1019 1019 1019 1019 1019 1019 1019 1019 
1019 1019 1019 1019 1019 1019 1019 1019 1019 
1019 1019 1019 1019 1019 1019 1019 1019 1019 
1019 1019 1019 1019 1019 1019 1019 1019 1019 
1019 1019 1019 1019 1019 1019 1019 1019 1019 
1019 1019 1019 1019 1019 1019 1019 1019 1019 
1019 1019 1019 1019 1019 1019 1019 1019 1019 
1019 1019 1019 1019 1019 1019 1019 1019 1019 
1019 1019 1019 1019 1019 1019 1019 1019 1019 
1019 1019 1019 1019 1019 1019 1019 1019 1019 
1019 1019 1019 1019 1019 1019 1019 1019 1019 
1019 1019 1019 1019 1019 1019 1019 1019 1019 
1019 1019 1019 1019 1019 1019 1019 1019 1019 
1019 1019 1019 1019 1019 1019 1019 1019 1019 
1019 1019 1019 1019 1019 1019 1019 1019 1019 
1019 1019 1019 1019 1019 1019 1019 1019 1019 
1019 1019 1019 1019 1019 1019 1019 1019 1019 
1019 1019 1019 1019 1019 1019 1019 1019 1019 
1019 1019 1019 1019 1019 1019 1019 1019 1019 
1019 1019 1019 1019 1019 1019 1019 1019 1019 
1019 1019 1019 1019 1019 1019 1019 1019 1019 
1019 1019 1019 1019 1019 1019 1019 1019 1019 
1019 1019 1019 1019 1019 1019 1019 1019 1019 
1019 1019 1019 1019 1019 1019 1019 1019 1019 
1019 1019 1019 1019 1019 1019 1019 1019 1019 
1019 1019 1019 1019 1019 1019 1019 1019 1019 
1019 1019 1019 1019 1019 1019 1019 1019 1019 
1019 1019 1019 1019 1019 1019 1019 1019 1019 
1019 1019 1019 1019 1019 1019 1019 1019 1019 
1019 1019 1019 1019 1019 1019 1019 1019 1019 
1019 1019 1019 1019 1019 1019 1019 1019 1019 
1019 1019 1019 1019 1019 1019 1019 1019 1019 
1019 1019 1019 1019 1019 1019 1019 1019 1019 
1019 1019 1019 1019 1019 1019 1019 1019 1019 
1019 1019 1019 1019 1019 1019 1019 1019 1019 
1019 1019 1019 1019 1019 1019 1019 1019 1019 
1019 1019 1019 1019 1019 1019 1019 1019 1019 
1019 1019 1019 1019 1019 1019 1019 1019 1019 
1019 1019 1019 1019 1019 1019 1019 1019 1019 
1019 1019 1019 1019 1019 1019 1019 1019 1019 
1019 1019 1019 1019 1019 1019 1019 1019 1019 
1019 1019 1019 1019 1019 1019 1019 1019 1019 
1019 1019 1019 1019 1019 1019 1019 1019 1019 
1019 1019 1019 1019 1019 1019 1019 1019 1019 
1019 1019 1019 1019 1019 1019 1019 1019 1019 
1019 1019 1019 1019 1019 1019 1019 1019 1019 
1019 1019 1019 1019 1019 1019 1019 1019 1019 
1019 1019 1019 1019 1019 1019 1019 1019 1019 
1019 1019 1019 1019 1019 1019 1019 1019 1019 
1019 1019 1019 1019 1019 1019 1019 1019 1019 
1019 1019 1019 1019 1019 1019 1019 1019 1019 
1019 1019 1019 1019 1019 1019 1019 1019 1019 
1019 1019 1019 1019 1019 1019 1019 1019 1019 
1019 1019 1019 1019 1019 1019 1019 1019 1019 
1019 1019 1019 1019 1019 1019 1019 1019 1019 
1019 1019 1019 1019 1019 1019 1019 1019 1019 
1019 1019 1019 1019 1019 1019 1019 1019 1019 
1019 1019 1019 1019 1019 1019 1019 1019 1019 
1019 1019 1019 1019 1019 1019 1019 1019 1019 
1019 1019 1019 1019 1019 1019 1019 1019 1019 
1019 1019 1019 1019 1019 1019 1019 1019 1019 
1019 1019 1019 1019 1019 1019 1019 1019 1019 
1019 1019 1019 1019 1019 1019 1019 1019 1019 
1019 1019 1019 1019 1019 1019 1019 1019 1019 
1019 1019 1019 1019 1019 1019 1019 1019 1019 
1019 1019 1019 1019 1019 1019 1019 1019 1019 
1019 1019 1019 1019 1019 1019 1019 1019 1019 
1019 1019 1019 1019 1019 1019 1019 1019 1019 
1019 1019 1019 1019 1019 1019 1019 1019 1019 
1019 1019 1019 1019 1019 1019 1019 1019 1019 
1019 1019 1019 1019 1019 1019 1019 1019 1019 
1019 1019 1019 1019 1019 1019 1019 1019 1019 
1019 1019 1019 1019 1019 1019 1019 1019 1019 
1019 1019 1019 1019 1019 1019 1019 1019 1019 
1019 1019 1019 1019 1019 1019 1019 1019 1019 
1019 1019 1019 1019 1019 1019 1019 1019 1019 
1019 1019 1019 1019 1019 1019 1019 1019 1019 
1019 1019 1019 1019 1019 1019 1019 1019 1019 
1019 1019 1019 1019 1019 1019 1019 1019 1019 
1019 1019 1019 1019 1019 1019 1019 1019 1019 
1019 1019 1019 1019 1019 1019 1019 1019 1019 
1019 1019 1019 1019 1019 1019 1019 1019 1019 
1019 1019 1019 1019 1019 1019 1019 1019 1019 
1019 1019 1019 1019 1019 1019 1019 1019 1019 
1019 1019 1019 1019 1019 1019 1019 1019 1019 
1019 1019 1019 1019 1019 1019 1019 1019 1019 
1019 1019 1019 1019 1019 1019 1019 1019 1019 
1019 1019 1019 1019 1019 1019 1019 1019 1019 
1019 1019 1019 1019 1019 1019 1019 1019 1019 
1019 1019 1019 1019 1019 1019 1019 1019 1019 
1019 1019 1019 1019 1019 1019 1019 1019 1019 
1019 1019 1019 1019 1019 1019 1019 1019 1019 
1019 1019 1019 1019 1019 1019 1019 1019 1019 
1019 1019 1019 1019 1019 1019 1019 1019 1019 
1019 1019 1019 1019 1019 1019 1019 1019 1019 
1019 1019 1019 1019 1019 1019 1019 1019 1019 
1019 1019 1019 1019 1019 1019 1019 1019 1019 
1019 1019 1019 1019 1019 1019 1019 1019 1019 
1019 1019 1019 1019 1019 1019 1019 1019 1019 
1019 1019 1019 1019 1019 1019 1019 1019 1019 
1019 1019 1019 1019 1019 1019 1019 1019 1019 
1019 1019 1019 1019 1019 1019 1019 1019 1019 
1019 1019 1019 1019 1019 1019 1019 1019 1019 
1019 1019 1019 1019 1019 1019 1019 1019 1019 
1019 1019 1019 1019 1019 1019 1019 1019 1019 
1019 1019 1019 1019 1019 1019 1019 1019 1019 
1019 1019 1019 1019 1019 1019 1019 1019 1019 
1019 1019 1019 1019 1019 1019 1019 1019 1019 
1019 1019 1019 1019 1019 1019 1019 1019 1019 
1019 1019 1019 1019 1019 1019 1019 1019 1019 
1019 1019 1019 1019 1019 1019 1019 1019 1019 
1019 1019 1019 1019 1019 1019 1019 1019 1019 
1019 1019 1019 1019 1019 1019 1019 1019 1019 
1019 1019 1019 1019 1019 1019 1019 1019 1019 
1019 1019 1019 1019 1019 1019 1019 1019 1019 
1019 1019 1019 1019 1019 1019 1019 1019 1019 
1019 1019 1019 1019 1019 1019 1019 1019 1019 
1019 1019 1019 1019 1019 1019 1019 1019 1019 
1019 1019 1019 1019 1019 1019 1019 1019 1019 
1019 1019 1019 1019 1019 1019 1019 1019 1019 
1019 1019 1019 1019 1019 1019 1019 1019 1019 
1019 1019 1019 1019 1019 1019 1019 1019 1019 
1019 1019 1019 1019 1019 1019 1019 1019 1019 
1019 1019 1019 1019 1019 1019 1019 1019 1019 
1019 1019 1019 1019 1019 1019 1019 1019 1019 
1019 1019 1019 1019 1019 1019 1019 1019 1019 
1019 1019 1019 1019 1019 1019 1019 1019 1019 
1019 1019 1019 1019 1019 1019 1019 1019 1019 
1019 1019 1019 1019 1019 1019 1019 1019 1019 
1019 1019 1019 1019 1019 1019 1019 1019 1019 
1019 1019 1019 1019 1019 1019 1019 1019 1019 
1019 1019 1019 1019 1019 1019 1019 1019 1019 
1019 1019 1019 1019 1019 1019 1019 1019 1019 
1019 1019 1019 1019 1019 1019 1019 1019 1019 
1019 1019 1019 1019 1019 1019 1019 1019 1019 
1019 1019 1019 1019 1019 1019 1019 1019 1019 
1019 1019 1019 1019 1019 1019 1019 1019 1019 
1019 1019 1019 1019 1019 1019 1019 1019 1019 
1019 1019 1019 1019 1019 1019 1019 1019 1019 
1019 1019 1019 1019 1019 1019 1019 1019 1019 
1019 1019 1019 1019 1019 1019 1019 1019 1019 
1019 1019 1019 1019 1019 1019 1019 1019 1019 
1019 1019 1019 1019 1019 1019 1019 1019 1019 
1019 1019 1019 1019 1019 1019 1019 1019 1019 
1019 1019 1019 1019 1019 1019 1019 1019 1019 
1019 1019 1019 1019 1019 1019 1019 1019 1019 
1019 1019 1019 1019 1019 1019 1019 1019 1019 
1019 1019 1019 1019 1019 1019 1019 1019 1019 
1019 1019 1019 1019 1019 1019 1019 1019 1019 
1019 1019 1019 1019 1019 1019 1019 1019 1019 
1019 1019 1019 1019 1019 1019 1019 1019 1019 
1019 1019 1019 1019 1019 1019 1019 1019 1019 
1019 1019 1019 1019 1019 1019 1019 1019 1019 
1019 1019 1019 1019 1019 1019 1019 1019 1019 
1019 1019 1019 1019 1019 1019 1019 1019 1019 
1019 1019 1019 1019 1019 1019 1019 1019 1019 
1019 1019 1019 1019 1019 1019 1019 1019 1019 
1019 1019 1019 1019 1019 1019 1019 1019 1019 
1019 1019 1019 1019 1019 1019 1019 1019 1019 
1019 1019 1019 1019 1019 1019 1019 1019 1019 
1019 1019 1019 1019 1019 1019 1019 1019 1019 
1019 1019 1019 1019 1019 1019 1019 1019 1019 
1019 1019 1019 1019 1019 1019 1019 1019 1019 
1019 1019 1019 1019 1019 1019 1019 1019 1019 
1019 1019 1019 1019 1019 1019 1019 1019 1019 
1019 1019 1019 1019 1019 1019 1019 1019 1019 
1019 1019 1019 1019 1019 1019 1019 1019 1019 
1019 1019 1019 1019 1019 1019 1019 1019 1019 
1019 1019 1019 1019 1019 1019 1019 1019 1019 
1019 1019 1019 1019 1019 1019 1019 1019 1019 
1019 1019 1019 1019 1019 1019 1019 1019 1019 
1019 1019 1019 1019 1019 1019 1019 1019 1019 
1019 1019 1019 1019 1019 1019 1019 1019 1019 
1019 1019 1019 1019 1019 1019 1019 1019 1019 
1019 1019 1019 1019 1019 1019 1019 1019 1019 
1019 1019 1019 1019 1019 1019 1019 1019 1019 
1019 1019 1019 1019 1019 1019 1019 1019 1019 
1019 1019 1019 1019 1019 1019 1019 1019 1019 
1019 1019 1019 1019 1019 1019 1019 1019 1019 
1019 1019 1019 1019 1019 1019 1019 1019 1019 
1019 1019 1019 1019 1019 1019 1019 1019 1019 
1019 1019 1019 1019 1019 1019 1019 1019 1019 
1019 1019 1019 1019 1019 1019 1019 1019 1019 
1019 1019 1019 1019 1019 1019 1019 1019 1019 
1019 1019 1019 1019 1019 1019 1019 1019 1019 
1019 1019 1019 1019 1019 1019 1019 1019 1019 
1019 1019 1019 1019 1019 1019 1019 1019 1019 
1019 1019 1019 1019 1019 1019 1019 1019 1019 
1019 1019 1019 1019 1019 1019 1019 1019 1019 
1019 1019 1019 1019 1019 1019 1019 1019 1019 
1019 1019 1019 1019 1019 1019 1019 1019 1019 
1019 1019 1019 1019 1019 1019 1019 1019 1019 
1019 1019 1019 1019 1019 1019 1019 1019 1019 
1019 1019 1019 1019 1019 1019 1019 1019 1019 
1019 1019 1019 1019 1019 1019 1019 1019 1019 
1019 1019 1019 1019 1019 1019 1019 1019 1019 