# vtk DataFile Version 4.2
vtk output
ASCII
DATASET POLYDATA
POINTS 20016 float
-35.2567 -14.8336 -0.144699 -35.2502 -14.47 -0.419467 -34.9329 -14.9173 -0.253784 
-35.5427 -14.7092 -0.337839 -35.1481 -15.1516 -0.130051 -34.9864 -15.3521 -0.278943 
-35.4827 -15.105 -0.241566 -35.297 -15.4466 -0.279671 -35.1808 -12.465 -0.715228 
-35.2565 -12.0366 -1.02774 -34.8498 -12.362 -0.800592 -35.5476 -12.2779 -0.95056 
-34.7974 -12.8665 -0.65116 -34.5837 -12.5694 -0.823476 -34.3674 -12.9871 -0.886684 
-35.2105 -12.9653 -0.648065 -35.5321 -12.7355 -0.84966 -34.6795 -13.5065 -0.643414 
-34.3058 -13.6587 -0.870845 -35.1301 -13.4789 -0.634602 -35.527 -13.3422 -0.853047 
-34.5989 -14.0096 -0.660809 -34.293 -14.2506 -0.87101 -35.005 -14.0343 -0.57112 
-35.5268 -13.9713 -0.789098 -34.6233 -14.6102 -0.56635 -34.1857 -14.7463 -0.833615 
-35.8266 -14.9083 -0.592278 -35.7345 -14.4491 -0.708224 -36.0156 -14.5872 -1.04904 
-34.1924 -15.2239 -0.723816 -33.9831 -14.9969 -0.900792 -33.8611 -15.2797 -0.979289 
-34.6723 -15.3007 -0.471698 -35.7304 -15.4944 -0.547874 -36.0535 -15.1523 -0.969878 
-34.0768 -15.6482 -0.852795 -34.2412 -16.0936 -0.887224 -34.5724 -15.8688 -0.642563 
-35.2491 -15.8452 -0.482863 -35.8295 -16.0372 -0.659253 -36.0542 -15.7541 -0.94996 
-34.7066 -16.5059 -0.659587 -34.334 -16.6603 -0.904262 -35.2145 -16.5067 -0.552534 
-35.746 -16.5345 -0.647589 -36.0571 -16.352 -0.959345 -34.7408 -17.1115 -0.656616 
-34.3508 -17.2695 -0.891298 -35.1456 -17.0018 -0.554832 -35.6321 -17.1613 -0.661716 
-36.027 -16.9984 -1.01633 -34.6419 -17.7964 -0.640324 -34.2533 -17.7551 -0.825829 
-35.2358 -17.6249 -0.622321 -35.6531 -17.6842 -0.810754 -35.8891 -17.4778 -0.962512 
-33.6106 -18.404 -0.676941 -33.3852 -18.1432 -0.912955 -33.1443 -18.5254 -0.979926 
-34.1458 -18.2073 -0.63457 -33.8486 -17.9739 -0.864134 -34.4952 -18.4363 -0.636145 
-35.0348 -18.2268 -0.69066 -35.5013 -18.1102 -0.862289 -33.3905 -18.781 -0.706512 
-33.2364 -18.9111 -1.00476 -33.8863 -18.7636 -0.657417 -34.3314 -18.8383 -0.814682 
-34.8236 -18.6565 -0.856622 -35.2875 -18.489 -0.918347 -33.5073 -19.0492 -0.868478 
-33.9445 -19.1227 -0.98286 -33.9827 -20.7272 -0.768727 -33.9956 -20.5571 -0.814687 
-33.776 -20.6821 -0.948486 -34.1886 -20.6104 -0.986577 -33.9589 -20.8528 -1.05605 
-34.7628 -11.6774 -1.32624 -34.6836 -11.4455 -1.49106 -34.3821 -11.7867 -1.50747 
-35.0883 -11.7487 -1.24086 -35.0337 -11.4028 -1.48109 -35.4735 -11.6197 -1.42414 
-34.5969 -12.2353 -1.10896 -34.1787 -12.3455 -1.41855 -35.8568 -12.4777 -1.20303 
-35.7593 -12.005 -1.31563 -36.059 -12.1794 -1.63715 -34.103 -12.7826 -1.25192 
-33.9396 -12.5664 -1.58267 -33.8186 -12.9578 -1.56459 -35.8418 -13.0636 -1.17013 
-36.0763 -12.7525 -1.57019 -34.0086 -13.3363 -1.18218 -33.7159 -13.5638 -1.55339 
-35.8414 -13.6807 -1.17731 -36.0465 -13.3544 -1.57748 -34.0066 -13.9444 -1.18163 
-33.7063 -14.2489 -1.48612 -35.8839 -14.1644 -1.08162 -36.0653 -14.0319 -1.50824 
-33.9152 -14.6699 -1.13496 -33.6134 -14.7459 -1.45895 -36.1959 -14.6593 -1.52742 
-30.4981 -15.3996 -1.24275 -30.5042 -15.175 -1.55416 -30.1642 -15.367 -1.49916 
-31.1534 -15.3519 -1.23708 -30.9795 -15.0488 -1.56043 -31.6051 -15.4308 -1.32209 
-31.5627 -15.1124 -1.54591 -31.8998 -15.3213 -1.59199 -33.5745 -15.2628 -1.28895 
-33.3262 -15.0498 -1.56455 -33.1502 -15.5091 -1.52927 -36.2209 -15.3096 -1.39753 
-29.9584 -15.8343 -1.2478 -29.8021 -15.493 -1.63912 -29.5502 -15.8912 -1.56128 
-30.4532 -15.9605 -1.12276 -30.9746 -15.8641 -1.13675 -31.6204 -15.9151 -1.23531 
-31.9494 -15.7245 -1.49158 -33.4186 -15.9727 -1.28744 -32.9903 -15.9742 -1.48026 
-33.8351 -15.7651 -1.07983 -36.2184 -15.9132 -1.38292 -29.8084 -16.4411 -1.27724 
-29.5163 -16.502 -1.68617 -30.3445 -16.4773 -1.14352 -30.9654 -16.4893 -1.13862 
-31.5943 -16.4987 -1.16356 -32.1379 -16.1247 -1.44523 -32.2728 -16.5235 -1.26986 
-32.996 -16.5064 -1.30096 -32.5912 -16.1839 -1.50868 -33.5344 -16.5911 -1.23018 
-33.9119 -16.3331 -1.12343 -36.2159 -16.5178 -1.39627 -29.8285 -16.8612 -1.42023 
-30.1303 -17.2124 -1.50066 -30.2474 -16.9395 -1.27849 -30.9269 -17.0922 -1.24007 
-31.6116 -17.1174 -1.17014 -32.2298 -17.1362 -1.17898 -32.8465 -17.1385 -1.20868 
-33.4529 -17.1129 -1.21492 -33.9557 -16.9366 -1.13258 -36.2309 -17.0187 -1.46754 
-30.6101 -17.3743 -1.47546 -31.097 -17.5136 -1.43923 -31.3956 -17.8272 -1.51804 
-31.6087 -17.6574 -1.28076 -32.2306 -17.7129 -1.17562 -32.7434 -17.6378 -1.1735 
-33.3575 -17.7164 -1.11671 -33.948 -17.5066 -1.07438 -35.8538 -17.9132 -1.12202 
-36.1421 -17.55 -1.37304 -31.7346 -18.0776 -1.44001 -31.8937 -18.3769 -1.59149 
-32.1334 -18.1568 -1.30128 -32.7982 -18.1662 -1.18116 -35.7178 -18.4739 -1.18605 
-36.1301 -18.2416 -1.53821 -32.2887 -18.483 -1.58188 -32.7526 -18.5973 -1.49328 
-33.0946 -18.8948 -1.40932 -34.5995 -19.1147 -1.07391 -35.2354 -18.8383 -1.09564 
-35.6687 -19.0127 -1.31106 -36.0059 -18.8395 -1.57337 -33.5061 -19.2212 -1.2827 
-34.1171 -19.5179 -1.22149 -33.6641 -19.6974 -1.49735 -34.7073 -19.5989 -1.20295 
-35.2251 -19.4275 -1.2489 -35.6497 -19.4498 -1.43838 -35.8869 -19.2457 -1.5875 
-34.0051 -20.217 -1.16818 -33.5747 -20.2855 -1.62625 -34.5317 -19.9542 -1.23723 
-35.0395 -19.9985 -1.32072 -35.5099 -19.9031 -1.4891 -33.4919 -20.5649 -1.29265 
-33.3611 -20.5415 -1.50648 -33.3174 -20.7047 -1.46853 -34.6889 -20.4299 -1.37914 
-34.3114 -20.7688 -1.32383 -35.3012 -20.296 -1.53899 -33.6001 -20.8546 -1.40763 
-34.0464 -20.922 -1.51918 -34.4643 -21.3396 -1.50817 -34.7538 -21.4255 -1.29495 
-34.6173 -21.1048 -1.46595 -34.8758 -21.1808 -1.49556 -34.6172 -21.7568 -1.27307 
-34.4183 -21.9183 -1.66296 -35.1216 -21.5254 -1.40471 -35.0202 -21.8782 -1.27679 
-35.401 -21.8361 -1.65279 -34.8 -22.1903 -1.40808 -35.2188 -22.2429 -1.52501 
-34.8123 -9.36856 -1.84766 -34.5748 -9.06927 -2.08874 -34.3467 -9.45201 -2.06228 
-35.2287 -9.42627 -1.86344 -35.0435 -9.04078 -2.03562 -35.4192 -9.19275 -2.19662 
-34.6865 -9.86419 -1.82633 -34.2866 -10.017 -2.08111 -35.1493 -9.87309 -1.81056 
-35.4515 -9.74256 -2.11633 -34.6955 -10.4727 -1.84883 -34.2943 -10.6305 -2.08886 
-35.2738 -10.4944 -1.82741 -35.5573 -10.5026 -2.22009 -34.5826 -11.15 -1.75058 
-34.2046 -11.1271 -2.05536 -35.2878 -11.0872 -1.7075 -35.7582 -10.85 -2.00771 
-35.7989 -11.1376 -1.8973 -35.957 -11.2446 -2.11218 -34.1289 -11.569 -1.88483 
-33.9797 -11.3403 -2.21536 -33.8435 -11.7447 -2.18681 -35.8455 -11.6253 -1.70318 
-36.0493 -11.7975 -2.12716 -33.9983 -12.1092 -1.75517 -33.7111 -12.3832 -2.06661 
-36.1571 -12.4068 -1.99913 -33.5931 -13.0128 -1.93346 -36.1398 -12.9009 -2.09279 
-33.47 -13.4403 -1.89728 -33.3819 -13.1241 -2.19338 -33.2521 -13.5219 -2.18567 
-36.1921 -13.4679 -2.13691 -30.5426 -14.2223 -1.88211 -30.4063 -13.9347 -2.22937 
-30.2245 -14.2234 -2.02049 -30.734 -14.0034 -2.13474 -33.3661 -14.0244 -1.81082 
-33.0507 -14.0593 -2.1469 -36.2538 -14.0634 -2.00311 -30.4319 -14.6531 -1.90155 
-30.142 -14.6509 -2.24153 -30.9027 -14.322 -2.00787 -30.9254 -14.712 -1.85679 
-31.2645 -14.59 -2.10486 -32.9021 -14.6696 -1.91158 -32.8292 -14.4223 -2.12398 
-32.5279 -14.739 -2.11976 -33.3329 -14.6578 -1.68612 -36.3832 -14.452 -1.99025 
-36.4254 -14.9136 -1.82825 -36.6068 -14.5754 -2.24348 -29.8584 -15.2603 -1.97094 
-29.7981 -15.1844 -2.13202 -29.6251 -15.4087 -1.948 -30.3313 -15.056 -2.17466 
-30.3887 -15.2658 -1.74987 -29.9571 -15.2223 -2.13703 -30.5595 -15.2749 -2.05735 
-31.4854 -14.8787 -1.91174 -32.3764 -15.3508 -1.80845 -32.0103 -14.9895 -1.98635 
-32.939 -15.192 -1.74039 -36.4344 -15.4839 -1.77333 -36.6503 -15.149 -2.17102 
-29.5124 -15.8525 -2.02381 -30.1709 -15.3849 -1.98216 -32.3341 -15.9194 -1.65562 
-32.7239 -15.7376 -1.68978 -36.4281 -16.0877 -1.77367 -36.6433 -15.7494 -2.16115 
-29.5074 -16.3518 -2.12649 -36.4264 -16.6901 -1.77954 -36.6295 -16.3585 -2.16542 
-29.788 -17.1688 -1.69525 -29.5573 -17.0144 -2.05017 -36.4227 -17.2762 -1.76873 
-36.6289 -16.9542 -2.16566 -29.8179 -17.6795 -1.91814 -29.6281 -17.5845 -2.15744 
-30.3536 -17.7151 -1.72314 -30.9909 -17.8146 -1.66254 -36.4121 -17.8665 -1.78414 
-36.6357 -17.5467 -2.15409 -29.8365 -18.009 -2.08099 -30.12 -18.2923 -2.1476 
-30.2505 -18.2108 -1.93786 -30.8382 -18.2748 -1.87927 -31.4281 -18.2529 -1.76328 
-36.386 -18.3544 -1.88801 -36.6116 -18.196 -2.21905 -30.5377 -18.4846 -2.07553 
-31.0169 -18.4943 -2.11517 -31.6685 -18.6291 -2.11978 -32.3384 -18.7236 -1.94626 
-32.766 -19.0211 -1.80297 -32.364 -18.9992 -2.06034 -36.2571 -18.7719 -1.92597 
-36.4681 -18.6569 -2.16954 -32.413 -19.4398 -1.94633 -32.089 -19.2398 -2.15289 
-32.0118 -19.5 -2.10957 -32.9218 -19.5588 -1.81267 -33.2543 -19.3653 -1.66902 
-35.8536 -19.6954 -1.7352 -36.1414 -19.4066 -2.04674 -32.1116 -19.8155 -2.1577 
-32.5418 -20.2296 -2.12229 -32.7233 -19.9443 -1.92043 -33.2982 -19.9534 -1.80963 
-35.7385 -20.2706 -1.79944 -36.0417 -20.01 -2.07995 -33.0487 -20.3753 -2.081 
-33.4583 -20.41 -2.01267 -33.5008 -20.6707 -1.71054 -33.6222 -20.6174 -2.01113 
-34.5749 -20.928 -1.67229 -35.2613 -20.6283 -1.70017 -35.6966 -20.8122 -1.90749 
-36.0274 -20.6003 -2.23417 -33.8514 -20.952 -2.05506 -34.2595 -21.4155 -2.10816 
-35.2721 -21.1715 -1.69736 -35.6234 -21.4085 -2.03947 -35.8777 -21.0482 -2.19158 
-34.3141 -21.9044 -2.11581 -35.5553 -21.9113 -2.06769 -34.6252 -22.4226 -1.74297 
-34.3958 -22.3124 -2.12297 -35.0485 -22.5512 -1.76649 -35.4574 -22.4119 -2.10118 
-34.6915 -22.8192 -2.1424 -35.2346 -22.8527 -2.15886 -32.9957 -5.13948 -2.46774 
-32.7544 -4.84235 -2.70518 -32.5182 -5.24742 -2.6754 -33.5444 -5.23213 -2.45211 
-33.234 -4.8098 -2.66121 -33.7021 -4.98752 -2.85694 -32.4569 -5.83386 -2.68569 
-32.8734 -5.66515 -2.43658 -33.4266 -5.67036 -2.32594 -33.9424 -5.40965 -2.62732 
-33.9535 -5.73475 -2.44696 -34.1932 -5.70322 -2.777 -32.8609 -6.28211 -2.44935 
-32.4867 -6.44907 -2.6997 -33.4068 -6.27634 -2.32155 -33.9512 -6.28059 -2.39653 
-34.3176 -6.18563 -2.80898 -32.8716 -6.84834 -2.50681 -32.6013 -6.95032 -2.73662 
-33.405 -6.88497 -2.3447 -34.0602 -6.95447 -2.38542 -34.2328 -6.74485 -2.6863 
-30.4097 -7.52075 -2.57717 -30.3073 -7.37591 -2.6579 -30.1571 -7.56729 -2.73672 
[...]
CELL_DATA 40320
SCALARS scalars float
LOOKUP_TABLE default
1022 1022 1022 1022 1022 1022 1022 1022 1022 
1022 1022 1022 1022 1022 1022 1022 1022 1022 
1022 1022 1022 1022 1022 1022 1022 1022 1022 
1022 1022 1022 1022 1022 1022 1022 1022 1022 
1022 1022 1022 1022 1022 1022 1022 1022 1022 
1022 1022 1022 1022 1022 1022 1022 1022 1022 
1022 1022 1022 1022 1022 1022 1022 1022 1022 
1022 1022 1022 1022 1022 1022 1022 1022 1022 
1022 1022 1022 1022 1022 1022 1022 1022 1022 
1022 1022 1022 1022 1022 1022 1022 1022 1022 
1022 1022 1022 1022 1022 1022 1022 1022 1022 
1022 1022 1022 1022 1022 1022 1022 1022 1022 
1022 1022 1022 1022 1022 1022 1022 1022 1022 
1022 1022 1022 1022 1022 1022 1022 1022 1022 
1022 1022 1022 1022 1022 1022 1022 1022 1022 
1022 1022 1022 1022 1022 1022 1022 1022 1022 
1022 1022 1022 1022 1022 1022 1022 1022 1022 
1022 1022 1022 1022 1022 1022 1022 1022 1022 
1022 1022 1022 1022 1022 1022 1022 1022 1022 
1022 1022 1022 1022 1022 1022 1022 1022 1022 
1022 1022 1022 1022 1022 1022 1022 1022 1022 
1022 1022 1022 1022 1022 1022 1022 1022 1022 
1022 1022 1022 1022 1022 1022 1022 1022 1022 
1022 1022 1022 1022 1022 1022 1022 1022 1022 
1022 1022 1022 1022 1022 1022 1022 1022 1022 
1022 1022 1022 1022 1022 1022 1022 1022 1022 
1022 1022 1022 1022 1022 1022 1022 1022 1022 
1022 1022 1022 1022 1022 1022 1022 1022 1022 
1022 1022 1022 1022 1022 1022 1022 1022 1022 
1022 1022 1022 1022 1022 1022 1022 1022 1022 
1022 1022 1022 1022 1022 1022 1022 1022 1022 
1022 1022 1022 1022 1022 1022 1022 1022 1022 
1022 1022 1022 1022 1022 1022 1022 1022 1022 
1022 1022 1022 1022 1022 1022 1022 1022 1022 
1022 1022 1022 1022 1022 1022 1022 1022 1022 
1022 1022 1022 1022 1022 1022 1022 1022 1022 
1022 1022 1022 1022 1022 1022 1022 1022 1022 
1022 1022 1022 1022 1022 1022 1022 1022 1022 
1022 1022 1022 1022 1022 1022 1022 1022 1022 
1022 1022 1022 1022 1022 1022 1022 1022 1022 
1022 1022 1022 1022 1022 1022 1022 1022 1022 
1022 1022 1022 1022 1022 1022 1022 1022 1022 
1022 1022 1022 1022 1022 1022 1022 1022 1022 
1022 1022 1022 1022 1022 1022 1022 1022 1022 
1022 1022 1022 1022 1022 1022 1022 1022 1022 
1022 1022 1022 1022 1022 1022 1022 1022 1022 
1022 1022 1022 1022 1022 1022 1022 1022 1022 
1022 1022 1022 1022 1022 1022 1022 1022 1022 
1022 1022 1022 1022 1022 1022 1022 1022 1022 
1022 1022 1022 1022 1022 1022 1022 1022 1022 
1022 1022 1022 1022 1022 1022 1022 1022 1022 
1022 1022 1022 1022 1022 1022 1022 1022 1022 
1022 1022 1022 1022 1022 1022 1022 1022 1022 
1022 1022 1022 1022 1022 1022 1022 1022 1022 
1022 1022 1022 1022 1022 1022 1022 1022 1022 
1022 1022 1022 1022 1022 1022 1022 1022 1022 
1022 1022 1022 1022 1022 1022 1022 1022 1022 
1022 1022 1022 1022 1022 1022 1022 1022 1022 
1022 1022 1022 1022 1022 1022 1022 1022 1022 
1022 1022 1022 1022 1022 1022 1022 1022 1022 
1022 1022 1022 1022 1022 1022 1022 1022 1022 
1022 1022 1022 1022 1022 1022 1022 1022 1022 
1022 1022 1022 1022 1022 1022 1022 1022 1022 
1022 1022 1022 1022 1022 1022 1022 1022 1022 
1022 1022 1022 1022 1022 1022 1022 1022 1022 
1022 1022 1022 1022 1022 1022 1022 1022 1022 
1022 1022 1022 1022 1022 1022 1022 1022 1022 
1022 1022 1022 1022 1022 1022 1022 1022 1022 
1022 1022 1022 1022 1022 1022 1022 1022 1022 
1022 1022 1022 1022 1022 1022 1022 1022 1022 
1022 1022 1022 1022 1022 1022 1022 1022 1022 
1022 1022 1022 1022 1022 1022 1022 1022 1022 
1022 1022 1022 1022 1022 1022 1022 1022 1022 
1022 1022 1022 1022 1022 1022 1022 1022 1022 
1022 1022 1022 1022 1022 1022 1022 1022 1022 
1022 1022 1022 1022 1022 1022 1022 1022 1022 
1022 1022 1022 1022 1022 1022 1022 1022 1022 
1022 1022 1022 1022 1022 1022 1022 1022 1022 
1022 1022 1022 1022 1022 1022 1022 1022 1022 
1022 1022 1022 1022 1022 1022 1022 1022 1022 
1022 1022 1022 1022 1022 1022 1022 1022 1022 
1022 1022 1022 1022 1022 1022 1022 1022 1022 
1022 1022 1022 1022 1022 1022 1022 1022 1022 
1022 1022 1022 1022 1022 1022 1022 1022 1022 
1022 1022 1022 1022 1022 1022 1022 1022 1022 
1022 1022 1022 1022 1022 1022 1022 1022 1022 
1022 1022 1022 1022 1022 1022 1022 1022 1022 
1022 1022 1022 1022 1022 1022 1022 1022 1022 
1022 1022 1022 1022 1022 1022 1022 1022 1022 
1022 1022 1022 1022 1022 1022 1022 1022 1022 
1022 1022 1022 1022 1022 1022 1022 1022 1022 
1022 1022 1022 1022 1022 1022 1022 1022 1022 
1022 1022 1022 1022 1022 1022 1022 1022 1022 
1022 1022 1022 1022 1022 1022 1022 1022 1022 
1022 1022 1022 1022 1022 1022 1022 1022 1022 
1022 1022 1022 1022 1022 1022 1022 1022 1022 
1022 1022 1022 1022 1022 1022 1022 1022 1022 
1022 1022 1022 1022 1022 1022 1022 1022 1022 
1022 1022 1022 1022 1022 1022 1022 1022 1022 
1022 1022 1022 1022 1022 1022 1022 1022 1022 
1022 1022 1022 1022 1022 1022 1022 1022 1022 
1022 1022 1022 1022 1022 1022 1022 1022 1022 
1022 1022 1022 1022 1022 1022 1022 1022 1022 
1022 1022 1022 1022 1022 1022 1022 1022 1022 
1022 1022 1022 1022 1022 1022 1022 1022 1022 
1022 1022 1022 1022 1022 1022 1022 1022 1022 
1022 1022 1022 1022 1022 1022 1022 1022 1022 
1022 1022 1022 1022 1022 1022 1022 1022 1022 
1022 1022 1022 1022 1022 1022 1022 1022 1022 
1022 1022 1022 1022 1022 1022 1022 1022 1022 
1022 1022 1022 1022 1022 1022 1022 1022 1022 
1022 1022 1022 1022 1022 1022 1022 1022 1022 
1022 1022 1022 1022 1022 1022 1022 1022 1022 
1022 1022 1022 1022 1022 1022 1022 1022 1022 
1022 1022 1022 1022 1022 1022 1022 1022 1022 
1022 1022 1022 1022 1022 1022 1022 1022 1022 
1022 1022 1022 1022 1022 1022 1022 1022 1022 
1022 1022 1022 1022 1022 1022 1022 1022 1022 
1022 1022 1022 1022 1022 1022 1022 1022 1022 
1022 1022 1022 1022 1022 1022 1022 1022 1022 
1022 1022 1022 1022 1022 1022 1022 1022 1022 
1022 1022 1022 1022 1022 1022 1022 1022 1022 
1022 1022 1022 1022 1022 1022 1022 1022 1022 
1022 1022 1022 1022 1022 1022 1022 1022 1022 
1022 1022 1022 1022 1022 1022 1022 1022 1022 
1022 1022 1022 1022 1022 1022 1022 1022 1022 
1022 1022 1022 1022 1022 1022 1022 1022 1022 
1022 1022 1022 1022 1022 1022 1022 1022 1022 
1022 1022 1022 1022 1022 1022 1022 1022 1022 
1022 1022 1022 1022 1022 1022 1022 1022 1022 
1022 1022 1022 1022 1022 1022 1022 1022 1022 
1022 1022 1022 1022 1022 1022 1022 1022 1022 
1022 1022 1022 1022 1022 1022 1022 1022 1022 
1022 1022 1022 1022 1022 1022 1022 1022 1022 
1022 1022 1022 1022 1022 1022 1022 1022 1022 
1022 1022 1022 1022 1022 1022 1022 1022 1022 
1022 1022 1022 1022 1022 1022 1022 1022 1022 
1022 1022 1022 1022 1022 1022 1022 1022 1022 
1022 1022 1022 1022 1022 1022 1022 1022 1022 
1022 1022 1022 1022 1022 1022 1022 1022 1022 
1022 1022 1022 1022 1022 1022 1022 1022 1022 
1022 1022 1022 1022 1022 1022 1022 1022 1022 
1022 1022 1022 1022 1022 1022 1022 1022 1022 
1022 1022 1022 1022 1022 1022 1022 1022 1022 
1022 1022 1022 1022 1022 1022 1022 1022 1022 
1022 1022 1022 1022 1022 1022 1022 1022 1022 
1022 1022 1022 1022 1022 1022 1022 1022 1022 
1022 1022 1022 1022 1022 1022 1022 1022 1022 
1022 1022 1022 1022 1022 1022 1022 1022 1022 
1022 1022 1022 1022 1022 1022 1022 1022 1022 
1022 1022 1022 1022 1022 1022 1022 1022 1022 
1022 1022 1022 1022 1022 1022 1022 1022 1022 
1022 1022 1022 1022 1022 1022 1022 1022 1022 
1022 1022 1022 1022 1022 1022 1022 1022 1022 
1022 1022 1022 1022 1022 1022 1022 1022 1022 
1022 1022 1022 1022 1022 1022 1022 1022 1022 
1022 1022 1022 1022 1022 1022 1022 1022 1022 
1022 1022 1022 1022 1022 1022 1022 1022 1022 
1022 1022 1022 1022 1022 1022 1022 1022 1022 
1022 1022 1022 1022 1022 1022 1022 1022 1022 
1022 1022 1022 1022 1022 1022 1022 1022 1022 
1022 1022 1022 1022 1022 1022 1022 1022 1022 
1022 1022 1022 1022 1022 1022 1022 1022 1022 
1022 1022 1022 1022 1022 1022 1022 1022 1022 
1022 1022 1022 1022 1022 1022 1022 1022 1022 
1022 1022 1022 1022 1022 1022 1022 1022 1022 
1022 1022 1022 1022 1022 1022 1022 1022 1022 
1022 1022 1022 1022 1022 1022 1022 1022 1022 
1022 1022 1022 1022 1022 1022 1022 1022 1022 
1022 1022 1022 1022 1022 1022 1022 1022 1022 
1022 1022 1022 1022 1022 1022 1022 1022 1022 
1022 1022 1022 1022 1022 1022 1022 1022 1022 
1022 1022 1022 1022 1022 1022 1022 1022 1022 
1022 1022 1022 1022 1022 1022 1022 1022 1022 
1022 1022 1022 1022 1022 1022 1022 1022 1022 
1022 1022 1022 1022 1022 1022 1022 1022 1022 
1022 1022 1022 1022 1022 1022 1022 1022 1022 
1022 1022 1022 1022 1022 1022 1022 1022 1022 
1022 1022 1022 1022 1022 1022 1022 1022 1022 
1022 1022 1022 1022 1022 1022 1022 1022 1022 
1022 1022 1022 1022 1022 1022 1022 1022 1022 
1022 1022 1022 1022 1022 1022 1022 1022 1022 
1022 1022 1022 1022 1022 1022 1022 1022 1022 
1022 1022 1022 1022 1022 1022 1022 1022 1022 
1022 1022 1022 1022 1022 1022 1022 1022 1022 
1022 1022 1022 1022 1022 1022 1022 1022 1022 
1022 1022 1022 1022 1022 1022 1022 1022 1022 
1022 1022 1022 1022 1022 1022 1022 1022 1022 
1022 1022 1022 1022 1022 1022 1022 1022 1022 
1022 1022 1022 1022 1022 1022 1022 1022 1022 
1022 1022 1022 1022 1022 1022 1022 1022 1022 
1022 1022 1022 1022 1022 1022 1022 1022 1022 
1022 1022 1022 1022 1022 1022 1022 1022 1022 
1022 1022 1022 1022 1022 1022 1022 1022 1022 
1022 1022 1022 1022 1022 1022 1022 1022 1022 
1022 1022 1022 1022 1022 1022 1022 1022 1022 
1022 1022 1022 1022 1022 1022 1022 1022 1022 
1022 1022 1022 1022 1022 1022 1022 1022 1022 
1022 1022 1022 1022 1022 1022 1022 1022 1022 
1022 1022 1022 1022 1022 1022 1022 1022 1022 
1022 1022 1022 1022 1022 1022 1022 1022 1022 
1022 1022 1022 1022 1022 1022 1022 1022 1022 
1022 1022 1022 1022 1022 1022 1022 1022 1022 
1022 1022 1022 1022 1022 1022 1022 1022 1022 
1022 1022 1022 1022 1022 1022 1022 1022 1022 
1022 1022 1022 1022 1022 1022 1022 1022 1022 
1022 1022 1022 1022 1022 1022 1022 1022 1022 
1022 1022 1022 1022 1022 1022 1022 1022 1022 
1022 1022 1022 1022 1022 1022 1022 1022 1022 
1022 1022 1022 1022 1022 1022 1022 1022 1022 
1022 1022 1022 1022 1022 1022 1022 1022 1022 
1022 1022 1022 1022 1022 1022 1022 1022 1022 
1022 1022 1022 1022 1022 1022 1022 1022 1022 
1022 1022 1022 1022 1022 1022 1022 1022 1022 
1022 1022 1022 1022 1022 1022 1022 1022 1022 
1022 1022 1022 1022 1022 1022 1022 1022 1022 
1022 1022 1022 1022 1022 1022 1022 1022 1022 
1022 1022 1022 1022 1022 1022 1022 1022 1022 
1022 1022 1022 1022 1022 1022 1022 1022 1022 
1022 1022 1022 1022 1022 1022 1022 1022 1022 
1022 1022 1022 1022 1022 1022 1022 1022 1022 
1022 1022 1022 1022 1022 1022 1022 1022 1022 
1022 1022 1022 1022 1022 1022 1022 1022 1022 
1022 1022 1022 1022 1022 1022 1022 1022 1022 
1022 1022 1022 1022 1022 1022 1022 1022 1022 
1022 1022 1022 1022 1022 1022 1022 1022 1022 
1022 1022 1022 1022 1022 1022 1022 1022 1022 
1022 1022 1022 1022 1022 1022 1022 1022 1022 
1022 1022 1022 1022 1022 1022 1022 1022 1022 
1022 1022 1022 1022 1022 1022 1022 1022 1022 
1022 1022 1022 1022 1022 1022 1022 1022 1022 
1022 1022 1022 1022 1022 1022 1022 1022 1022 
1022 1022 1022 1022 1022 1022 1022 1022 1022 
1022 1022 1022 1022 1022 1022 1022 1022 1022 
1022 1022 1022 1022 1022 1022 1022 1022 1022 
1022 1022 1022 1022 1022 1022 1022 1022 1022 
1022 1022 1022 1022 1022 1022 1022 1022 1022 
1022 1022 1022 1022 1022 1022 1022 1022 1022 
1022 1022 1022 1022 1022 1022 1022 1022 1022 
1022 1022 1022 1022 1022 1022 1022 1022 1022 
1022 1022 1022 1022 1022 1022 1022 1022 1022 
1022 1022 1022 1022 1022 1022 1022 1022 1022 
1022 1022 1022 1022 1022 1022 1022 1022 1022 
1022 1022 1022 1022 1022 1022 1022 1022 1022 
1022 1022 1022 1022 1022 1022 1022 1022 1022 
1022 1022 1022 1022 1022 1022 1022 1022 1022 
1022 1022 1022 1022 1022 1022 1022 1022 1022 
1022 1022 1022 1022 1022 1022 1022 1022 1022 
1022 1022 1022 1022 1022 1022 1022 1022 1022 
1022 1022 1022 1022 1022 1022 1022 1022 1022 
1022 1022 1022 1022 1022 1022 1022 1022 1022 
1022 1022 1022 1022 1022 1022 1022 1022 1022 
1022 1022 1022 1022 1022 1022 1022 1022 1022 
1022 1022 1022 1022 1022 1022 1022 1022 1022 
1022 1022 1022 1022 1022 1022 1022 1022 1022 
1022 1022 1022 1022 1022 1022 1022 1022 1022 
1022 1022 1022 1022 1022 1022 1022 1022 1022 
1022 1022 1022 1022 1022 1022 1022 1022 1022 
1022 1022 1022 1022 1022 1022 1022 1022 1022 
1022 1022 1022 1022 1022 1022 1022 1022 1022 
1022 1022 1022 1022 1022 1022 1022 1022 1022 
1022 1022 1022 1022 1022 1022 1022 1022 1022 
1022 1022 1022 1022 1022 1022 1022 1022 1022 
1022 1022 1022 1022 1022 1022 1022 1022 1022 
1022 1022 1022 1022 1022 1022 1022 1022 1022 
1022 1022 1022 1022 1022 1022 1022 1022 1022 
1022 1022 1022 1022 1022 1022 1022 1022 1022 
1022 1022 1022 1022 1022 1022 1022 1022 1022 
1022 1022 1022 1022 1022 1022 1022 1022 1022 
1022 1022 1022 1022 1022 1022 1022 1022 1022 
1022 1022 1022 1022 1022 1022 1022 1022 1022 
1022 1022 1022 1022 1022 1022 1022 1022 1022 
1022 1022 1022 1022 1022 1022 1022 1022 1022 
1022 1022 1022 1022 1022 1022 1022 1022 1022 
1022 1022 1022 1022 1022 1022 1022 1022 1022 
1022 1022 1022 1022 1022 1022 1022 1022 1022 
1022 1022 1022 1022 1022 1022 1022 1022 1022 
1022 1022 1022 1022 1022 1022 1022 1022 1022 
1022 1022 1022 1022 1022 1022 1022 1022 1022 
1022 1022 1022 1022 1022 1022 1022 1022 1022 
1022 1022 1022 1022 1022 1022 1022 1022 1022 
1022 1022 1022 1022 1022 1022 1022 1022 1022 
1022 1022 1022 1022 1022 1022 1022 1022 1022 
1022 1022 1022 1022 1022 1022 1022 1022 1022 
1022 1022 1022 1022 1022 1022 1022 1022 1022 
1022 1022 1022 1022 1022 1022 1022 1022 1022 
1022 1022 1022 1022 1022 1022 1022 1022 1022 
1022 1022 1022 1022 1022 1022 1022 1022 1022 
1022 1022 1022 1022 1022 1022 1022 1022 1022 
1022 1022 1022 1022 1022 1022 1022 1022 1022 
1022 1022 1022 1022 1022 1022 1022 1022 1022 
1022 1022 1022 1022 1022 1022 1022 1022 1022 
1022 1022 1022 1022 1022 1022 1022 1022 1022 
1022 1022 1022 1022 1022 1022 1022 1022 1022 
1022 1022 1022 1022 1022 1022 1022 1022 1022 
1022 1022 1022 1022 1022 1022 1022 1022 1022 
1022 1022 1022 1022 1022 1022 1022 1022 1022 
1022 1022 1022 1022 1022 1022 1022 1022 1022 
1022 1022 1022 1022 1022 1022 1022 1022 1022 
1022 1022 1022 1022 1022 1022 1022 1022 1022 
1022 1022 1022 1022 1022 1022 1022 1022 1022 
1022 1022 1022 1022 1022 1022 1022 1022 1022 
1022 1022 1022 1022 1022 1022 1022 1022 1022 
1022 1022 1022 1022 1022 1022 1022 1022 1022 
1022 1022 1022 1022 1022 1022 1022 1022 1022 
1022 1022 1022 1022 1022 1022 1022 1022 1022 
1022 1022 1022 1022 1022 1022 1022 1022 1022 
1022 1022 1022 1022 1022 1022 1022 1022 1022 
1022 1022 1022 1022 1022 1022 1022 1022 1022 
1022 1022 1022 1022 1022 1022 1022 1022 1022 
1022 1022 1022 1022 1022 1022 1022 1022 1022 
1022 1022 1022 1022 1022 1022 1022 1022 1022 
1022 1022 1022 1022 1022 1022 1022 1022 1022 
1022 1022 1022 1022 1022 1022 1022 1022 1022 
1022 1022 1022 1022 1022 1022 1022 1022 1022 
1022 1022 1022 1022 1022 1022 1022 1022 1022 
1022 1022 1022 1022 1022 1022 1022 1022 1022 
1022 1022 1022 1022 1022 1022 1022 1022 1022 
1022 1022 1022 1022 1022 1022 1022 1022 1022 
1022 1022 1022 1022 1022 1022 1022 1022 1022 
1022 1022 1022 1022 1022 1022 1022 1022 1022 
1022 1022 1022 1022 1022 1022 1022 1022 1022 
1022 1022 1022 1022 1022 1022 1022 1022 1022 
1022 1022 1022 1022 1022 1022 1022 1022 1022 
1022 1022 1022 1022 1022 1022 1022 1022 1022 
1022 1022 1022 1022 1022 1022 1022 1022 1022 
1022 1022 1022 1022 1022 1022 1022 1022 1022 
1022 1022 1022 1022 1022 1022 1022 1022 1022 
1022 1022 1022 1022 1022 1022 1022 1022 1022 
1022 1022 1022 1022 1022 1022 1022 1022 1022 
1022 1022 1022 1022 1022 1022 1022 1022 1022 
1022 1022 1022 1022 1022 1022 1022 1022 1022 
1022 1022 1022 1022 1022 1022 1022 1022 1022 
1022 1022 1022 1022 1022 1022 1022 1022 1022 
1022 1022 1022 1022 1022 1022 1022 1022 1022 
1022 1022 1022 1022 1022 1022 1022 1022 1022 
1022 1022 1022 1022 1022 1022 1022 1022 1022 
1022 1022 1022 1022 1022 1022 1022 1022 1022 
1022 1022 1022 1022 1022 1022 1022 1022 1022 
1022 1022 1022 1022 1022 1022 1022 1022 1022 
1022 1022 1022 1022 1022 1022 1022 1022 1022 
1022 1022 1022 1022 1022 1022 1022 1022 1022 
1022 1022 1022 1022 1022 1022 1022 1022 1022 
1022 1022 1022 1022 1022 1022 1022 1022 1022 
1022 1022 1022 1022 1022 1022 1022 1022 1022 
1022 1022 1022 1022 1022 1022 1022 1022 1022 
1022 1022 1022 1022 1022 1022 1022 1022 1022 
1022 1022 1022 1022 1022 1022 1022 1022 1022 
1022 1022 1022 1022 1022 1022 1022 1022 1022 
1022 1022 1022 1022 1022 1022 1022 1022 1022 
1022 1022 1022 1022 1022 1022 1022 1022 1022 
1022 1022 1022 1022 1022 1022 1022 1022 1022 
1022 1022 1022 1022 1022 1022 1022 1022 1022 
1022 1022 1022 1022 1022 1022 1022 1022 1022 
1022 1022 1022 1022 1022 1022 1022 1022 1022 
1022 1022 1022 1022 1022 1022 1022 1022 1022 
1022 1022 1022 1022 1022 1022 1022 1022 1022 
1022 1022 1022 1022 1022 1022 1022 1022 1022 
1022 1022 1022 1022 1022 1022 1022 1022 1022 
1022 1022 1022 1022 1022 1022 1022 1022 1022 
1022 1022 1022 1022 1022 1022 1022 1022 1022 
1022 1022 1022 1022 1022 1022 1022 1022 1022 
1022 1022 1022 1022 1022 1022 1022 1022 1022 
1022 1022 1022 1022 1022 1022 1022 1022 1022 
1022 1022 1022 1022 1022 1022 1022 1022 1022 
1022 1022 1022 1022 1022 1022 1022 1022 1022 
1022 1022 1022 1022 1022 1022 1022 1022 1022 
1022 1022 1022 1022 1022 1022 1022 1022 1022 
1022 1022 1022 1022 1022 1022 1022 1022 1022 
1022 1022 1022 1022 1022 1022 1022 1022 1022 
1022 1022 1022 1022 1022 1022 1022 1022 1022 
1022 1022 1022 1022 1022 1022 1022 1022 1022 
1022 1022 1022 1022 1022 1022 1022 1022 1022 
1022 1022 1022 1022 1022 1022 1022 1022 1022 
1022 1022 1022 1022 1022 1022 1022 1022 1022 
1022 1022 1022 1022 1022 1022 1022 1022 1022 
1022 1022 1022 1022 1022 1022 1022 1022 1022 
1022 1022 1022 1022 1022 1022 1022 1022 1022 
1022 1022 1022 1022 1022 1022 1022 1022 1022 
1022 1022 1022 1022 1022 1022 1022 1022 1022 
1022 1022 1022 1022 1022 1022 1022 1022 1022 
1022 1022 1022 1022 1022 1022 1022 1022 1022 
1022 1022 1022 1022 1022 1022 1022 1022 1022 
1022 1022 1022 1022 1022 1022 1022 1022 1022 
1022 1022 1022 1022 1022 1022 1022 1022 1022 
1022 1022 1022 1022 1022 1022 1022 1022 1022 
1022 1022 1022 1022 1022 1022 1022 1022 1022 
1022 1022 1022 1022 1022 1022 1022 1022 1022 
1022 1022 1022 1022 1022 1022 1022 1022 1022 
1022 1022 1022 1022 1022 1022 1022 1022 1022 
1022 1022 1022 1022 1022 1022 1022 1022 1022 
1022 1022 1022 1022 1022 1022 1022 1022 1022 
1022 1022 1022 1022 1022 1022 1022 1022 1022 
1022 1022 1022 1022 1022 1022 1022 1022 1022 
1022 1022 1022 1022 1022 1022 1022 1022 1022 
1022 1022 1022 1022 1022 1022 1022 1022 1022 
1022 1022 1022 1022 1022 1022 1022 1022 1022 
1022 1022 1022 1022 1022 1022 1022 1022 1022 
1022 1022 1022 1022 1022 1022 1022 1022 1022 
1022 1022 1022 1022 1022 1022 1022 1022 1022 
1022 1022 1022 1022 1022 1022 1022 1022 1022 
1022 1022 1022 1022 1022 1022 1022 1022 1022 
1022 1022 1022 1022 1022 1022 1022 1022 1022 
1022 1022 1022 1022 1022 1022 1022 1022 1022 
1022 1022 1022 1022 1022 1022 1022 1022 1022 
1022 1022 1022 1022 1022 1022 1022 1022 1022 
1022 1022 1022 1022 1022 1022 1022 1022 1022 
1022 1022 1022 1022 1022 1022 1022 1022 1022 
1022 1022 1022 1022 1022 1022 1022 1022 1022 
1022 1022 1022 1022 1022 1022 1022 1022 1022 
1022 1022 1022 1022 1022 1022 1022 1022 1022 
1022 1022 1022 1022 1022 1022 1022 1022 1022 
1022 1022 1022 1022 1022 1022 1022 1022 1022 
1022 1022 1022 1022 1022 1022 1022 1022 1022 
1022 1022 1022 1022 1022 1022 1022 1022 1022 
1022 1022 1022 1022 1022 1022 1022 1022 1022 
1022 1022 1022 1022 1022 1022 1022 1022 1022 
1022 1022 1022 1022 1022 1022 1022 1022 1022 
1022 1022 1022 1022 1022 1022 1022 1022 1022 
1022 1022 1022 1022 1022 1022 1022 1022 1022 
1022 1022 1022 1022 1022 1022 1022 1022 1022 
1022 1022 1022 1022 1022 1022 1022 1022 1022 
1022 1022 1022 1022 1022 1022 1022 1022 1022 
1022 1022 1022 1022 1022 1022 1022 1022 1022 
1022 1022 1022 1022 1022 1022 1022 1022 1022 
1022 1022 1022 1022 1022 1022 1022 1022 1022 
1022 1022 1022 1022 1022 1022 1022 1022 1022 
1022 1022 1022 1022 1022 1022 1022 1022 1022 
1022 1022 1022 1022 1022 1022 1022 1022 1022 
1022 1022 1022 1022 1022 1022 1022 1022 1022 
1022 1022 1022 1022 1022 1022 1022 1022 1022 
1022 1022 1022 1022 1022 1022 1022 1022 1022 
1022 1022 1022 1022 1022 1022 1022 1022 1022 