# vtk DataFile Version 4.2
vtk output
ASCII
DATASET POLYDATA
POINTS 16336 float
38.9455 37.8441 -30.6501 39.3432 37.4637 -30.1452 39.7299 37.5471 -30.8436 
38.2586 37.8225 -30.6695 38.3822 37.3581 -29.9747 37.7541 37.4263 -30.4655 
39.2725 37.9598 -31.6664 39.9988 37.6155 -31.6287 38.4224 37.9469 -31.4737 
37.7689 37.5676 -31.2109 40.0004 37.8218 -32.4365 40.486 37.4456 -32.1035 
40.6247 37.496 -32.5318 39.1674 38.0611 -32.7175 38.4638 37.9487 -32.5331 
37.7834 37.5711 -32.2409 40.4481 37.4005 -33.0292 39.7975 37.4531 -33.7072 
39.5332 37.8386 -33.2976 38.6548 37.8468 -33.4155 37.8741 37.5374 -33.2227 
39.0024 37.5294 -33.976 38.2223 37.4499 -33.8859 42.1979 36.8613 -28.7159 
42.4785 36.4942 -28.1107 42.9869 36.613 -28.6155 41.0977 36.8951 -28.6064 
41.6115 36.5465 -27.9515 40.0386 36.8932 -28.6356 40.4329 36.4269 -27.9522 
39.0675 36.8362 -28.7377 39.3564 36.3856 -28.1725 38.6723 36.3725 -28.4054 
43.038 36.7816 -29.3847 43.5634 36.4515 -29.0425 43.6568 36.4273 -29.6474 
42.1785 37.0002 -29.6741 41.3277 37.0274 -29.5107 40.4718 37.0456 -29.3112 
39.4178 37.1578 -29.4679 38.3988 36.5993 -28.8843 38.5366 36.9661 -29.3137 
37.8701 36.3118 -29.5213 43.1953 36.5592 -30.0804 42.7707 36.418 -30.6712 
42.3787 36.8053 -30.4093 41.3584 37.0076 -30.5028 40.2829 37.1564 -30.2133 
37.2778 36.973 -30.8402 37.4818 36.7961 -30.223 37.0466 36.2354 -30.7984 
42.1722 36.5215 -31.1355 41.845 36.4439 -31.8901 41.52 36.8293 -31.3425 
40.5711 37.1782 -31.3466 37.2475 37.0208 -31.7548 36.9351 36.4543 -31.3592 
41.0784 36.9714 -32.3078 41.6098 36.3879 -32.6412 37.0965 37.0322 -32.8378 
36.6967 36.3445 -32.1976 41.066 36.6833 -33.1203 40.3518 37.0092 -33.7088 
40.8757 36.5085 -33.8701 37.3331 37.1381 -33.8589 36.4212 36.5897 -32.9813 
36.4273 36.829 -33.6345 35.9875 36.2595 -33.3444 40.181 36.8045 -34.4859 
40.6855 36.4902 -34.4496 39.3536 37.1468 -34.4911 38.1541 37.1621 -34.5596 
37.1276 37.0305 -34.7301 36.4157 36.8938 -34.537 35.7812 36.376 -34.2551 
40.3774 36.407 -35.0368 39.7783 36.5408 -35.5808 39.352 36.86 -35.4305 
38.3004 37.0487 -35.5406 37.2673 37.0342 -35.5844 36.3961 36.9002 -35.5383 
35.7654 36.5452 -35.2905 39.3869 36.4341 -36.0638 38.7721 36.5371 -36.5454 
38.4746 36.836 -36.29 37.3916 36.9154 -36.5719 36.4134 36.8928 -36.5523 
35.7534 36.5486 -36.317 38.2127 36.399 -36.9625 37.1857 36.6193 -37.2643 
36.658 36.4748 -37.7379 36.5083 36.7557 -37.3239 35.8153 36.5213 -37.2618 
36.0812 36.4415 -37.833 43.2285 35.8338 -27.5875 43.3398 35.1656 -27.1706 
43.9016 35.6078 -27.6088 42.196 36.0545 -27.5699 42.3013 35.3762 -27.1246 
41.0418 36.035 -27.474 41.2847 35.4071 -27.1201 40.198 35.862 -27.5435 
40.3537 35.3862 -27.2031 39.6923 35.3543 -27.4369 44.0684 35.8334 -28.2404 
44.3298 35.5461 -27.9549 44.7362 35.4609 -28.6472 43.3194 36.2133 -28.3296 
39.3524 35.6353 -27.8112 38.1962 36.0934 -28.64 38.555 35.7194 -28.1743 
37.9628 35.4084 -28.6385 44.2328 36.0093 -29.4578 45.0561 35.5956 -29.6293 
37.6427 35.2798 -29.34 45.0238 35.785 -30.4562 45.5446 35.4606 -30.1291 
45.6569 35.511 -30.5574 44.1601 36.0031 -30.6965 43.47 36.18 -30.4805 
37.3596 36.0876 -30.3761 37.5169 35.5635 -30.2256 45.4379 35.4198 -31.0524 
44.8353 35.5481 -31.5627 44.3565 35.8418 -31.4518 43.3208 36.011 -31.5331 
42.5752 36.1844 -31.3647 37.0618 35.382 -30.8108 36.665 35.6301 -31.4681 
44.3862 35.4318 -32.0502 43.7579 35.5371 -32.562 43.318 35.8339 -32.4444 
42.2933 36.0788 -32.4457 36.3322 35.6464 -32.1401 36.2209 36.086 -32.6979 
35.9585 35.3814 -32.5099 43.3577 35.415 -33.0626 42.7535 35.5084 -33.5804 
42.3301 35.8309 -33.4265 41.5566 36.182 -33.3516 35.6182 35.476 -33.4188 
42.3723 35.3924 -34.0577 41.7721 35.5026 -34.551 41.3472 36.0031 -34.302 
35.3772 35.7098 -34.1418 35.2976 35.9649 -34.8729 35.0099 35.249 -34.3241 
41.281 35.5058 -35.0463 40.2775 36.0304 -35.5718 40.7813 35.5036 -35.5444 
35.2591 36.0358 -35.8279 34.7977 35.3367 -35.251 40.2972 35.5043 -36.0416 
39.2759 36.0295 -36.5522 39.8034 35.5064 -36.5331 35.2573 36.0351 -36.8388 
34.7752 35.5082 -36.298 39.2913 35.5005 -37.0172 38.2067 35.8932 -37.5927 
38.7814 35.5076 -37.5051 37.3074 36.2584 -37.7102 35.4191 36.0178 -37.8521 
34.7632 35.5099 -37.2897 38.3908 35.4249 -38.0336 37.8713 35.5528 -38.8903 
37.3353 35.9419 -38.5028 36.3194 36.1519 -38.3246 35.512 35.8222 -38.7613 
34.817 35.4849 -38.2393 37.2999 35.801 -39.3749 37.7971 35.4075 -39.5784 
36.4529 35.8563 -39.3367 35.6704 35.6162 -39.4363 35.0688 35.4587 -38.9903 
37.2366 35.414 -39.906 36.3529 35.3707 -39.9667 44.3533 35.1225 -27.6555 
44.2414 34.301 -27.1231 44.8545 34.561 -27.6342 43.2835 34.4785 -26.9871 
42.5757 34.4727 -26.8779 41.5491 34.6534 -26.8379 40.5494 34.6577 -26.8447 
39.1033 34.9074 -27.5609 39.5905 34.655 -27.0516 38.7909 34.1266 -27.3074 
45.2515 34.8781 -28.4332 45.4651 34.428 -28.0635 45.9112 34.5463 -28.6607 
38.3106 34.6169 -27.988 37.6206 34.5355 -28.5641 46.0837 34.7897 -29.3454 
46.5237 34.4225 -29.1399 46.801 34.4816 -29.8814 45.4987 35.1999 -29.4456 
37.3376 34.6222 -29.0985 37.313 34.9327 -29.8755 36.9653 34.1803 -29.3189 
46.1277 35.018 -30.3211 46.7735 34.5036 -30.4826 37.284 35.1041 -30.4846 
36.7911 34.4273 -30.3044 46.3582 34.5013 -31.0487 45.3208 35.0339 -31.5652 
45.8081 34.5011 -31.5516 36.2268 35.0741 -31.7285 36.4482 34.7494 -31.104 
35.954 34.376 -31.4714 45.2926 34.5018 -32.0328 44.2671 35.0316 -32.5459 
44.777 34.5031 -32.5224 35.6265 34.4277 -32.3927 44.2903 34.5015 -33.029 
43.2699 35.0184 -33.5577 43.7843 34.5018 -33.5271 35.1963 34.4011 -33.0303 
35.2361 35.0977 -33.6941 34.8135 34.4933 -33.657 43.2966 34.4883 -34.0335 
42.2813 34.9947 -34.5568 42.7926 34.4887 -34.5291 34.5971 34.6291 -34.4351 
42.2962 34.4917 -35.0303 41.301 34.9873 -35.5295 41.8132 34.4882 -35.5182 
34.3818 34.6716 -35.1062 34.3207 34.9187 -35.848 34.0055 34.2374 -35.3197 
41.3214 34.493 -36.0054 40.3271 34.9837 -36.5182 40.8537 34.4773 -36.5013 
34.2741 35.0058 -36.779 33.7934 34.3387 -36.2661 40.3316 34.4887 -37.0045 
39.2963 35.0062 -37.4963 39.81 34.4804 -37.4999 34.259 35.0101 -37.7561 
33.7647 34.5151 -37.2888 30.3355 34.6998 -37.425 30.24 34.2201 -37.2333 
30.5688 34.3172 -37.7325 29.9315 34.4671 -37.3667 39.2982 34.492 -38.018 
38.4541 35.0412 -38.5533 38.8442 34.3239 -38.8593 34.4274 35.0166 -38.8105 
33.7592 34.5235 -38.2672 30.1741 34.5485 -37.7028 38.289 34.965 -39.2501 
38.5382 34.2832 -39.5394 35.3376 35.2161 -39.7082 34.57 34.8449 -39.7645 
33.8464 34.5078 -39.2219 38.0252 34.742 -39.8807 37.2692 34.6623 -40.2775 
36.2583 34.9159 -40.4025 36.9039 34.3763 -40.6498 35.3852 34.8414 -40.4301 
34.7187 34.6187 -40.3973 34.1288 34.4765 -39.9691 36.137 34.3074 -40.8858 
35.084 34.2957 -40.8559 41.9578 33.9085 -26.4893 42.3666 33.0963 -26.1334 
42.7444 33.661 -26.5719 40.9788 33.9877 -26.4402 41.2956 33.3179 -26.0792 
39.9908 33.9953 -26.4557 40.4103 33.4548 -26.102 39.2628 33.987 -26.6453 
39.5805 33.4261 -26.2347 38.9832 33.6119 -26.7016 46.266 33.8056 -27.6024 
46.2418 33.5057 -27.0744 46.8473 33.4984 -27.4855 45.3699 34.1203 -27.5518 
45.4153 33.5978 -26.9579 44.456 33.4807 -26.7776 43.4755 33.738 -26.8035 
38.5868 33.3067 -27.1989 47.0926 33.8034 -28.3085 47.3826 33.5152 -28.0271 
47.7782 33.466 -28.7258 46.2891 34.1625 -28.3883 38.0735 33.4739 -27.7583 
37.1664 34.0166 -28.6449 37.4748 33.6432 -28.1907 36.9376 33.3707 -28.6475 
47.2184 34.0055 -29.2989 47.9168 33.5269 -29.8421 36.8059 33.3999 -29.4897 
47.2886 33.9967 -30.3723 47.8165 33.5037 -30.4944 36.4666 33.4296 -30.1491 
36.2176 34.0668 -30.6822 36.0074 33.4202 -30.6604 47.3808 33.5024 -31.0557 
46.3411 33.9785 -31.55 46.8774 33.4716 -31.5476 35.6373 33.4306 -31.379 
46.3433 33.4868 -32.0202 45.3167 33.9801 -32.5164 45.8618 33.4717 -32.5102 
35.1898 33.3852 -31.9871 35.3119 33.965 -32.5162 34.8139 33.5028 -32.5198 
45.3443 33.4869 -32.9985 44.3221 33.9771 -33.5147 44.865 33.4653 -33.4977 
34.295 33.9294 -33.8432 34.502 33.7314 -33.0881 33.9726 33.1903 -33.2708 
44.3342 33.4768 -34.0064 43.3069 33.9804 -34.5204 43.8251 33.468 -34.5157 
34.2193 34.1657 -34.6079 33.7825 33.4279 -34.3572 43.3215 33.4794 -35.0286 
42.306 33.995 -35.5204 42.8764 33.3488 -35.581 33.5898 33.6431 -35.4543 
42.1991 33.5009 -35.9922 41.3307 33.9832 -36.4923 41.7789 33.153 -36.6617 
33.3675 33.6845 -36.1321 33.3217 33.9289 -36.8804 33.0266 33.2296 -36.3589 
41.1014 33.668 -37.053 40.333 33.9718 -37.5051 40.8685 33.4827 -37.4889 
33.2915 33.994 -37.8262 32.9626 33.3155 -37.3228 30.0554 33.3816 -37.0408 
30.8141 33.4392 -37.4324 29.4576 34.0246 -37.8108 29.5637 33.737 -37.191 
29.0511 33.2766 -37.5137 40.3298 33.4739 -38.0059 39.4419 33.8929 -38.4604 
39.8056 33.4591 -38.5093 33.2884 34.0019 -38.7967 32.8117 33.2673 -38.2893 
30.069 34.1689 -38.4597 30.8552 33.647 -38.633 29.0842 33.9686 -38.7258 
28.7406 33.2891 -38.2999 39.4711 33.4159 -38.9239 38.8623 33.7164 -39.405 
33.4681 34.008 -39.8254 32.7914 33.4542 -39.3169 30.2232 33.9263 -39.5244 
30.8632 33.4832 -39.8263 29.466 34.1037 -39.3536 28.4223 33.5542 -39.0339 
28.6282 33.8639 -39.6483 28.0406 33.2315 -39.6049 38.3534 33.6393 -40.0736 
37.5028 33.9376 -40.5249 37.9079 33.3241 -40.6107 34.2111 34.1662 -40.501 
33.5554 33.7425 -40.5533 32.8593 33.3178 -40.452 30.2959 33.7737 -40.3364 
30.6439 33.4401 -40.6547 29.4718 33.896 -40.2923 28.6397 33.3903 -40.5966 
28.1878 33.4116 -40.1091 37.1945 33.5692 -40.8826 36.3169 33.4501 -41.198 
35.3293 33.6758 -41.218 34.1611 33.4703 -41.0629 33.3964 33.3653 -40.8425 
29.9758 33.5508 -41.0008 29.2669 33.3977 -41.0761 46.2351 33.0078 -26.645 
46.509 32.2531 -26.146 46.9153 32.5805 -26.6132 45.0407 32.9985 -26.4535 
45.4826 32.3219 -26.2293 44.0305 33.0014 -26.4584 44.3361 32.511 -26.2676 
43.2361 33.1435 -26.417 43.1642 32.405 -26.1827 42.1465 32.2754 -25.946 
41.4873 32.6104 -25.9169 40.3551 32.691 -26.0787 39.2244 32.9333 -26.5695 
39.767 32.4693 -26.4197 47.3554 33.0282 -27.5044 47.3422 32.5325 -26.9869 
47.8559 32.514 -27.4924 39.3606 32.2696 -26.9294 38.4991 32.6323 -27.1972 
38.0338 32.828 -27.5625 37.8099 32.381 -27.6725 48.1968 32.8934 -28.3562 
[...]
CELL_DATA 32704
SCALARS scalars float
LOOKUP_TABLE default
2015 2015 2015 2015 2015 2015 2015 2015 2015 
2015 2015 2015 2015 2015 2015 2015 2015 2015 
2015 2015 2015 2015 2015 2015 2015 2015 2015 
2015 2015 2015 2015 2015 2015 2015 2015 2015 
2015 2015 2015 2015 2015 2015 2015 2015 2015 
2015 2015 2015 2015 2015 2015 2015 2015 2015 
2015 2015 2015 2015 2015 2015 2015 2015 2015 
2015 2015 2015 2015 2015 2015 2015 2015 2015 
2015 2015 2015 2015 2015 2015 2015 2015 2015 
2015 2015 2015 2015 2015 2015 2015 2015 2015 
2015 2015 2015 2015 2015 2015 2015 2015 2015 
2015 2015 2015 2015 2015 2015 2015 2015 2015 
2015 2015 2015 2015 2015 2015 2015 2015 2015 
2015 2015 2015 2015 2015 2015 2015 2015 2015 
2015 2015 2015 2015 2015 2015 2015 2015 2015 
2015 2015 2015 2015 2015 2015 2015 2015 2015 
2015 2015 2015 2015 2015 2015 2015 2015 2015 
2015 2015 2015 2015 2015 2015 2015 2015 2015 
2015 2015 2015 2015 2015 2015 2015 2015 2015 
2015 2015 2015 2015 2015 2015 2015 2015 2015 
2015 2015 2015 2015 2015 2015 2015 2015 2015 
2015 2015 2015 2015 2015 2015 2015 2015 2015 
2015 2015 2015 2015 2015 2015 2015 2015 2015 
2015 2015 2015 2015 2015 2015 2015 2015 2015 
2015 2015 2015 2015 2015 2015 2015 2015 2015 
2015 2015 2015 2015 2015 2015 2015 2015 2015 
2015 2015 2015 2015 2015 2015 2015 2015 2015 
2015 2015 2015 2015 2015 2015 2015 2015 2015 
2015 2015 2015 2015 2015 2015 2015 2015 2015 
2015 2015 2015 2015 2015 2015 2015 2015 2015 
2015 2015 2015 2015 2015 2015 2015 2015 2015 
2015 2015 2015 2015 2015 2015 2015 2015 2015 
2015 2015 2015 2015 2015 2015 2015 2015 2015 
2015 2015 2015 2015 2015 2015 2015 2015 2015 
2015 2015 2015 2015 2015 2015 2015 2015 2015 
2015 2015 2015 2015 2015 2015 2015 2015 2015 
2015 2015 2015 2015 2015 2015 2015 2015 2015 
2015 2015 2015 2015 2015 2015 2015 2015 2015 
2015 2015 2015 2015 2015 2015 2015 2015 2015 
2015 2015 2015 2015 2015 2015 2015 2015 2015 
2015 2015 2015 2015 2015 2015 2015 2015 2015 
2015 2015 2015 2015 2015 2015 2015 2015 2015 
2015 2015 2015 2015 2015 2015 2015 2015 2015 
2015 2015 2015 2015 2015 2015 2015 2015 2015 
2015 2015 2015 2015 2015 2015 2015 2015 2015 
2015 2015 2015 2015 2015 2015 2015 2015 2015 
2015 2015 2015 2015 2015 2015 2015 2015 2015 
2015 2015 2015 2015 2015 2015 2015 2015 2015 
2015 2015 2015 2015 2015 2015 2015 2015 2015 
2015 2015 2015 2015 2015 2015 2015 2015 2015 
2015 2015 2015 2015 2015 2015 2015 2015 2015 
2015 2015 2015 2015 2015 2015 2015 2015 2015 
2015 2015 2015 2015 2015 2015 2015 2015 2015 
2015 2015 2015 2015 2015 2015 2015 2015 2015 
2015 2015 2015 2015 2015 2015 2015 2015 2015 
2015 2015 2015 2015 2015 2015 2015 2015 2015 
2015 2015 2015 2015 2015 2015 2015 2015 2015 
2015 2015 2015 2015 2015 2015 2015 2015 2015 
2015 2015 2015 2015 2015 2015 2015 2015 2015 
2015 2015 2015 2015 2015 2015 2015 2015 2015 
2015 2015 2015 2015 2015 2015 2015 2015 2015 
2015 2015 2015 2015 2015 2015 2015 2015 2015 
2015 2015 2015 2015 2015 2015 2015 2015 2015 
2015 2015 2015 2015 2015 2015 2015 2015 2015 
2015 2015 2015 2015 2015 2015 2015 2015 2015 
2015 2015 2015 2015 2015 2015 2015 2015 2015 
2015 2015 2015 2015 2015 2015 2015 2015 2015 
2015 2015 2015 2015 2015 2015 2015 2015 2015 
2015 2015 2015 2015 2015 2015 2015 2015 2015 
2015 2015 2015 2015 2015 2015 2015 2015 2015 
2015 2015 2015 2015 2015 2015 2015 2015 2015 
2015 2015 2015 2015 2015 2015 2015 2015 2015 
2015 2015 2015 2015 2015 2015 2015 2015 2015 
2015 2015 2015 2015 2015 2015 2015 2015 2015 
2015 2015 2015 2015 2015 2015 2015 2015 2015 
2015 2015 2015 2015 2015 2015 2015 2015 2015 
2015 2015 2015 2015 2015 2015 2015 2015 2015 
2015 2015 2015 2015 2015 2015 2015 2015 2015 
2015 2015 2015 2015 2015 2015 2015 2015 2015 
2015 2015 2015 2015 2015 2015 2015 2015 2015 
2015 2015 2015 2015 2015 2015 2015 2015 2015 
2015 2015 2015 2015 2015 2015 2015 2015 2015 
2015 2015 2015 2015 2015 2015 2015 2015 2015 
2015 2015 2015 2015 2015 2015 2015 2015 2015 
2015 2015 2015 2015 2015 2015 2015 2015 2015 
2015 2015 2015 2015 2015 2015 2015 2015 2015 
2015 2015 2015 2015 2015 2015 2015 2015 2015 
2015 2015 2015 2015 2015 2015 2015 2015 2015 
2015 2015 2015 2015 2015 2015 2015 2015 2015 
2015 2015 2015 2015 2015 2015 2015 2015 2015 
2015 2015 2015 2015 2015 2015 2015 2015 2015 
2015 2015 2015 2015 2015 2015 2015 2015 2015 
2015 2015 2015 2015 2015 2015 2015 2015 2015 
2015 2015 2015 2015 2015 2015 2015 2015 2015 
2015 2015 2015 2015 2015 2015 2015 2015 2015 
2015 2015 2015 2015 2015 2015 2015 2015 2015 
2015 2015 2015 2015 2015 2015 2015 2015 2015 
2015 2015 2015 2015 2015 2015 2015 2015 2015 
2015 2015 2015 2015 2015 2015 2015 2015 2015 
2015 2015 2015 2015 2015 2015 2015 2015 2015 
2015 2015 2015 2015 2015 2015 2015 2015 2015 
2015 2015 2015 2015 2015 2015 2015 2015 2015 
2015 2015 2015 2015 2015 2015 2015 2015 2015 
2015 2015 2015 2015 2015 2015 2015 2015 2015 
2015 2015 2015 2015 2015 2015 2015 2015 2015 
2015 2015 2015 2015 2015 2015 2015 2015 2015 
2015 2015 2015 2015 2015 2015 2015 2015 2015 
2015 2015 2015 2015 2015 2015 2015 2015 2015 
2015 2015 2015 2015 2015 2015 2015 2015 2015 
2015 2015 2015 2015 2015 2015 2015 2015 2015 
2015 2015 2015 2015 2015 2015 2015 2015 2015 
2015 2015 2015 2015 2015 2015 2015 2015 2015 
2015 2015 2015 2015 2015 2015 2015 2015 2015 
2015 2015 2015 2015 2015 2015 2015 2015 2015 
2015 2015 2015 2015 2015 2015 2015 2015 2015 
2015 2015 2015 2015 2015 2015 2015 2015 2015 
2015 2015 2015 2015 2015 2015 2015 2015 2015 
2015 2015 2015 2015 2015 2015 2015 2015 2015 
2015 2015 2015 2015 2015 2015 2015 2015 2015 
2015 2015 2015 2015 2015 2015 2015 2015 2015 
2015 2015 2015 2015 2015 2015 2015 2015 2015 
2015 2015 2015 2015 2015 2015 2015 2015 2015 
2015 2015 2015 2015 2015 2015 2015 2015 2015 
2015 2015 2015 2015 2015 2015 2015 2015 2015 
2015 2015 2015 2015 2015 2015 2015 2015 2015 
2015 2015 2015 2015 2015 2015 2015 2015 2015 
2015 2015 2015 2015 2015 2015 2015 2015 2015 
2015 2015 2015 2015 2015 2015 2015 2015 2015 
2015 2015 2015 2015 2015 2015 2015 2015 2015 
2015 2015 2015 2015 2015 2015 2015 2015 2015 
2015 2015 2015 2015 2015 2015 2015 2015 2015 
2015 2015 2015 2015 2015 2015 2015 2015 2015 
2015 2015 2015 2015 2015 2015 2015 2015 2015 
2015 2015 2015 2015 2015 2015 2015 2015 2015 
2015 2015 2015 2015 2015 2015 2015 2015 2015 
2015 2015 2015 2015 2015 2015 2015 2015 2015 
2015 2015 2015 2015 2015 2015 2015 2015 2015 
2015 2015 2015 2015 2015 2015 2015 2015 2015 
2015 2015 2015 2015 2015 2015 2015 2015 2015 
2015 2015 2015 2015 2015 2015 2015 2015 2015 
2015 2015 2015 2015 2015 2015 2015 2015 2015 
2015 2015 2015 2015 2015 2015 2015 2015 2015 
2015 2015 2015 2015 2015 2015 2015 2015 2015 
2015 2015 2015 2015 2015 2015 2015 2015 2015 
2015 2015 2015 2015 2015 2015 2015 2015 2015 
2015 2015 2015 2015 2015 2015 2015 2015 2015 
2015 2015 2015 2015 2015 2015 2015 2015 2015 
2015 2015 2015 2015 2015 2015 2015 2015 2015 
2015 2015 2015 2015 2015 2015 2015 2015 2015 
2015 2015 2015 2015 2015 2015 2015 2015 2015 
2015 2015 2015 2015 2015 2015 2015 2015 2015 
2015 2015 2015 2015 2015 2015 2015 2015 2015 
2015 2015 2015 2015 2015 2015 2015 2015 2015 
2015 2015 2015 2015 2015 2015 2015 2015 2015 
2015 2015 2015 2015 2015 2015 2015 2015 2015 
2015 2015 2015 2015 2015 2015 2015 2015 2015 
2015 2015 2015 2015 2015 2015 2015 2015 2015 
2015 2015 2015 2015 2015 2015 2015 2015 2015 
2015 2015 2015 2015 2015 2015 2015 2015 2015 
2015 2015 2015 2015 2015 2015 2015 2015 2015 
2015 2015 2015 2015 2015 2015 2015 2015 2015 
2015 2015 2015 2015 2015 2015 2015 2015 2015 
2015 2015 2015 2015 2015 2015 2015 2015 2015 
2015 2015 2015 2015 2015 2015 2015 2015 2015 
2015 2015 2015 2015 2015 2015 2015 2015 2015 
2015 2015 2015 2015 2015 2015 2015 2015 2015 
2015 2015 2015 2015 2015 2015 2015 2015 2015 
2015 2015 2015 2015 2015 2015 2015 2015 2015 
2015 2015 2015 2015 2015 2015 2015 2015 2015 
2015 2015 2015 2015 2015 2015 2015 2015 2015 
2015 2015 2015 2015 2015 2015 2015 2015 2015 
2015 2015 2015 2015 2015 2015 2015 2015 2015 
2015 2015 2015 2015 2015 2015 2015 2015 2015 
2015 2015 2015 2015 2015 2015 2015 2015 2015 
2015 2015 2015 2015 2015 2015 2015 2015 2015 
2015 2015 2015 2015 2015 2015 2015 2015 2015 
2015 2015 2015 2015 2015 2015 2015 2015 2015 
2015 2015 2015 2015 2015 2015 2015 2015 2015 
2015 2015 2015 2015 2015 2015 2015 2015 2015 
2015 2015 2015 2015 2015 2015 2015 2015 2015 
2015 2015 2015 2015 2015 2015 2015 2015 2015 
2015 2015 2015 2015 2015 2015 2015 2015 2015 
2015 2015 2015 2015 2015 2015 2015 2015 2015 
2015 2015 2015 2015 2015 2015 2015 2015 2015 
2015 2015 2015 2015 2015 2015 2015 2015 2015 
2015 2015 2015 2015 2015 2015 2015 2015 2015 
2015 2015 2015 2015 2015 2015 2015 2015 2015 
2015 2015 2015 2015 2015 2015 2015 2015 2015 
2015 2015 2015 2015 2015 2015 2015 2015 2015 
2015 2015 2015 2015 2015 2015 2015 2015 2015 
2015 2015 2015 2015 2015 2015 2015 2015 2015 
2015 2015 2015 2015 2015 2015 2015 2015 2015 
2015 2015 2015 2015 2015 2015 2015 2015 2015 
2015 2015 2015 2015 2015 2015 2015 2015 2015 
2015 2015 2015 2015 2015 2015 2015 2015 2015 
2015 2015 2015 2015 2015 2015 2015 2015 2015 
2015 2015 2015 2015 2015 2015 2015 2015 2015 
2015 2015 2015 2015 2015 2015 2015 2015 2015 
2015 2015 2015 2015 2015 2015 2015 2015 2015 
2015 2015 2015 2015 2015 2015 2015 2015 2015 
2015 2015 2015 2015 2015 2015 2015 2015 2015 
2015 2015 2015 2015 2015 2015 2015 2015 2015 
2015 2015 2015 2015 2015 2015 2015 2015 2015 
2015 2015 2015 2015 2015 2015 2015 2015 2015 
2015 2015 2015 2015 2015 2015 2015 2015 2015 
2015 2015 2015 2015 2015 2015 2015 2015 2015 
2015 2015 2015 2015 2015 2015 2015 2015 2015 
2015 2015 2015 2015 2015 2015 2015 2015 2015 
2015 2015 2015 2015 2015 2015 2015 2015 2015 
2015 2015 2015 2015 2015 2015 2015 2015 2015 
2015 2015 2015 2015 2015 2015 2015 2015 2015 
2015 2015 2015 2015 2015 2015 2015 2015 2015 
2015 2015 2015 2015 2015 2015 2015 2015 2015 
2015 2015 2015 2015 2015 2015 2015 2015 2015 
2015 2015 2015 2015 2015 2015 2015 2015 2015 
2015 2015 2015 2015 2015 2015 2015 2015 2015 
2015 2015 2015 2015 2015 2015 2015 2015 2015 
2015 2015 2015 2015 2015 2015 2015 2015 2015 
2015 2015 2015 2015 2015 2015 2015 2015 2015 
2015 2015 2015 2015 2015 2015 2015 2015 2015 
2015 2015 2015 2015 2015 2015 2015 2015 2015 
2015 2015 2015 2015 2015 2015 2015 2015 2015 
2015 2015 2015 2015 2015 2015 2015 2015 2015 
2015 2015 2015 2015 2015 2015 2015 2015 2015 
2015 2015 2015 2015 2015 2015 2015 2015 2015 
2015 2015 2015 2015 2015 2015 2015 2015 2015 
2015 2015 2015 2015 2015 2015 2015 2015 2015 
2015 2015 2015 2015 2015 2015 2015 2015 2015 
2015 2015 2015 2015 2015 2015 2015 2015 2015 
2015 2015 2015 2015 2015 2015 2015 2015 2015 
2015 2015 2015 2015 2015 2015 2015 2015 2015 
2015 2015 2015 2015 2015 2015 2015 2015 2015 
2015 2015 2015 2015 2015 2015 2015 2015 2015 
2015 2015 2015 2015 2015 2015 2015 2015 2015 
2015 2015 2015 2015 2015 2015 2015 2015 2015 
2015 2015 2015 2015 2015 2015 2015 2015 2015 
2015 2015 2015 2015 2015 2015 2015 2015 2015 
2015 2015 2015 2015 2015 2015 2015 2015 2015 
2015 2015 2015 2015 2015 2015 2015 2015 2015 
2015 2015 2015 2015 2015 2015 2015 2015 2015 
2015 2015 2015 2015 2015 2015 2015 2015 2015 
2015 2015 2015 2015 2015 2015 2015 2015 2015 
2015 2015 2015 2015 2015 2015 2015 2015 2015 
2015 2015 2015 2015 2015 2015 2015 2015 2015 
2015 2015 2015 2015 2015 2015 2015 2015 2015 
2015 2015 2015 2015 2015 2015 2015 2015 2015 
2015 2015 2015 2015 2015 2015 2015 2015 2015 
2015 2015 2015 2015 2015 2015 2015 2015 2015 
2015 2015 2015 2015 2015 2015 2015 2015 2015 
2015 2015 2015 2015 2015 2015 2015 2015 2015 
2015 2015 2015 2015 2015 2015 2015 2015 2015 
2015 2015 2015 2015 2015 2015 2015 2015 2015 
2015 2015 2015 2015 2015 2015 2015 2015 2015 
2015 2015 2015 2015 2015 2015 2015 2015 2015 
2015 2015 2015 2015 2015 2015 2015 2015 2015 
2015 2015 2015 2015 2015 2015 2015 2015 2015 
2015 2015 2015 2015 2015 2015 2015 2015 2015 
2015 2015 2015 2015 2015 2015 2015 2015 2015 
2015 2015 2015 2015 2015 2015 2015 2015 2015 
2015 2015 2015 2015 2015 2015 2015 2015 2015 
2015 2015 2015 2015 2015 2015 2015 2015 2015 
2015 2015 2015 2015 2015 2015 2015 2015 2015 
2015 2015 2015 2015 2015 2015 2015 2015 2015 
2015 2015 2015 2015 2015 2015 2015 2015 2015 
2015 2015 2015 2015 2015 2015 2015 2015 2015 
2015 2015 2015 2015 2015 2015 2015 2015 2015 
2015 2015 2015 2015 2015 2015 2015 2015 2015 
2015 2015 2015 2015 2015 2015 2015 2015 2015 
2015 2015 2015 2015 2015 2015 2015 2015 2015 
2015 2015 2015 2015 2015 2015 2015 2015 2015 
2015 2015 2015 2015 2015 2015 2015 2015 2015 
2015 2015 2015 2015 2015 2015 2015 2015 2015 
2015 2015 2015 2015 2015 2015 2015 2015 2015 
2015 2015 2015 2015 2015 2015 2015 2015 2015 
2015 2015 2015 2015 2015 2015 2015 2015 2015 
2015 2015 2015 2015 2015 2015 2015 2015 2015 
2015 2015 2015 2015 2015 2015 2015 2015 2015 
2015 2015 2015 2015 2015 2015 2015 2015 2015 
2015 2015 2015 2015 2015 2015 2015 2015 2015 
2015 2015 2015 2015 2015 2015 2015 2015 2015 
2015 2015 2015 2015 2015 2015 2015 2015 2015 
2015 2015 2015 2015 2015 2015 2015 2015 2015 
2015 2015 2015 2015 2015 2015 2015 2015 2015 
2015 2015 2015 2015 2015 2015 2015 2015 2015 
2015 2015 2015 2015 2015 2015 2015 2015 2015 
2015 2015 2015 2015 2015 2015 2015 2015 2015 
2015 2015 2015 2015 2015 2015 2015 2015 2015 
2015 2015 2015 2015 2015 2015 2015 2015 2015 
2015 2015 2015 2015 2015 2015 2015 2015 2015 
2015 2015 2015 2015 2015 2015 2015 2015 2015 
2015 2015 2015 2015 2015 2015 2015 2015 2015 
2015 2015 2015 2015 2015 2015 2015 2015 2015 
2015 2015 2015 2015 2015 2015 2015 2015 2015 
2015 2015 2015 2015 2015 2015 2015 2015 2015 
2015 2015 2015 2015 2015 2015 2015 2015 2015 
2015 2015 2015 2015 2015 2015 2015 2015 2015 
2015 2015 2015 2015 2015 2015 2015 2015 2015 
2015 2015 2015 2015 2015 2015 2015 2015 2015 
2015 2015 2015 2015 2015 2015 2015 2015 2015 
2015 2015 2015 2015 2015 2015 2015 2015 2015 
2015 2015 2015 2015 2015 2015 2015 2015 2015 
2015 2015 2015 2015 2015 2015 2015 2015 2015 
2015 2015 2015 2015 2015 2015 2015 2015 2015 
2015 2015 2015 2015 2015 2015 2015 2015 2015 
2015 2015 2015 2015 2015 2015 2015 2015 2015 
2015 2015 2015 2015 2015 2015 2015 2015 2015 
2015 2015 2015 2015 2015 2015 2015 2015 2015 
2015 2015 2015 2015 2015 2015 2015 2015 2015 
2015 2015 2015 2015 2015 2015 2015 2015 2015 
2015 2015 2015 2015 2015 2015 2015 2015 2015 
2015 2015 2015 2015 2015 2015 2015 2015 2015 
2015 2015 2015 2015 2015 2015 2015 2015 2015 
2015 2015 2015 2015 2015 2015 2015 2015 2015 
2015 2015 2015 2015 2015 2015 2015 2015 2015 
2015 2015 2015 2015 2015 2015 2015 2015 2015 
2015 2015 2015 2015 2015 2015 2015 2015 2015 
2015 2015 2015 2015 2015 2015 2015 2015 2015 
2015 2015 2015 2015 2015 2015 2015 2015 2015 
2015 2015 2015 2015 2015 2015 2015 2015 2015 
2015 2015 2015 2015 2015 2015 2015 2015 2015 
2015 2015 2015 2015 2015 2015 2015 2015 2015 
2015 2015 2015 2015 2015 2015 2015 2015 2015 
2015 2015 2015 2015 2015 2015 2015 2015 2015 
2015 2015 2015 2015 2015 2015 2015 2015 2015 
2015 2015 2015 2015 2015 2015 2015 2015 2015 
2015 2015 2015 2015 2015 2015 2015 2015 2015 
2015 2015 2015 2015 2015 2015 2015 2015 2015 
2015 2015 2015 2015 2015 2015 2015 2015 2015 
2015 2015 2015 2015 2015 2015 2015 2015 2015 
2015 2015 2015 2015 2015 2015 2015 2015 2015 
2015 2015 2015 2015 2015 2015 2015 2015 2015 
2015 2015 2015 2015 2015 2015 2015 2015 2015 
2015 2015 2015 2015 2015 2015 2015 2015 2015 
2015 2015 2015 2015 2015 2015 2015 2015 2015 
2015 2015 2015 2015 2015 2015 2015 2015 2015 
2015 2015 2015 2015 2015 2015 2015 2015 2015 
2015 2015 2015 2015 2015 2015 2015 2015 2015 
2015 2015 2015 2015 2015 2015 2015 2015 2015 
2015 2015 2015 2015 2015 2015 2015 2015 2015 
2015 2015 2015 2015 2015 2015 2015 2015 2015 
2015 2015 2015 2015 2015 2015 2015 2015 2015 
2015 2015 2015 2015 2015 2015 2015 2015 2015 
2015 2015 2015 2015 2015 2015 2015 2015 2015 
2015 2015 2015 2015 2015 2015 2015 2015 2015 
2015 2015 2015 2015 2015 2015 2015 2015 2015 
2015 2015 2015 2015 2015 2015 2015 2015 2015 
2015 2015 2015 2015 2015 2015 2015 2015 2015 
2015 2015 2015 2015 2015 2015 2015 2015 2015 
2015 2015 2015 2015 2015 2015 2015 2015 2015 
2015 2015 2015 2015 2015 2015 2015 2015 2015 
2015 2015 2015 2015 2015 2015 2015 2015 2015 
2015 2015 2015 2015 2015 2015 2015 2015 2015 
2015 2015 2015 2015 2015 2015 2015 2015 2015 
2015 2015 2015 2015 2015 2015 2015 2015 2015 
2015 2015 2015 2015 2015 2015 2015 2015 2015 
2015 2015 2015 2015 2015 2015 2015 2015 2015 
2015 2015 2015 2015 2015 2015 2015 2015 2015 
2015 2015 2015 2015 2015 2015 2015 2015 2015 
2015 2015 2015 2015 2015 2015 2015 2015 2015 
2015 2015 2015 2015 2015 2015 2015 2015 2015 
2015 2015 2015 2015 2015 2015 2015 2015 2015 
2015 2015 2015 2015 2015 2015 2015 2015 2015 
2015 2015 2015 2015 2015 2015 2015 2015 2015 
2015 2015 2015 2015 2015 2015 2015 2015 2015 
2015 2015 2015 2015 2015 2015 2015 2015 2015 
2015 2015 2015 2015 2015 2015 2015 2015 2015 
2015 2015 2015 2015 2015 2015 2015 2015 2015 
2015 2015 2015 2015 2015 2015 2015 2015 2015 
2015 2015 2015 2015 2015 2015 2015 2015 2015 
2015 2015 2015 2015 2015 2015 2015 2015 2015 
2015 2015 2015 2015 2015 2015 2015 2015 2015 
2015 2015 2015 2015 2015 2015 2015 2015 2015 
2015 2015 2015 2015 2015 2015 2015 2015 2015 
2015 2015 2015 2015 2015 2015 2015 2015 2015 
2015 2015 2015 2015 2015 2015 2015 2015 2015 
2015 2015 2015 2015 2015 2015 2015 2015 2015 
2015 2015 2015 2015 2015 2015 2015 2015 2015 
2015 2015 2015 2015 2015 2015 2015 2015 2015 
2015 2015 2015 2015 2015 2015 2015 2015 2015 
2015 2015 2015 2015 2015 2015 2015 2015 2015 
2015 2015 2015 2015 2015 2015 2015 2015 2015 
2015 2015 2015 2015 2015 2015 2015 2015 2015 
2015 2015 2015 2015 2015 2015 2015 2015 2015 
2015 2015 2015 2015 2015 2015 2015 2015 2015 
2015 2015 2015 2015 2015 2015 2015 2015 2015 
2015 2015 2015 2015 2015 2015 2015 2015 2015 
2015 2015 2015 2015 2015 2015 2015 2015 2015 
2015 2015 2015 2015 2015 2015 2015 2015 2015 
2015 2015 2015 2015 2015 2015 2015 2015 2015 
2015 2015 2015 2015 2015 2015 2015 2015 2015 
2015 2015 2015 2015 2015 2015 2015 2015 2015 
2015 2015 2015 2015 2015 2015 2015 2015 2015 
2015 2015 2015 2015 2015 2015 2015 2015 2015 
2015 2015 2015 2015 2015 2015 2015 2015 2015 
2015 2015 2015 2015 2015 2015 2015 2015 2015 
2015 2015 2015 2015 2015 2015 2015 2015 2015 
2015 2015 2015 2015 2015 2015 2015 2015 2015 
2015 2015 2015 2015 2015 2015 2015 2015 2015 
2015 2015 2015 2015 2015 2015 2015 2015 2015 
2015 2015 2015 2015 2015 2015 2015 2015 2015 
2015 2015 2015 2015 2015 2015 2015 2015 2015 
2015 2015 2015 2015 2015 2015 2015 2015 2015 
2015 2015 2015 2015 2015 2015 2015 2015 2015 
2015 2015 2015 2015 2015 2015 2015 2015 2015 
2015 2015 2015 2015 2015 2015 2015 2015 2015 
2015 2015 2015 2015 2015 2015 2015 2015 2015 
2015 2015 2015 2015 2015 2015 2015 2015 2015 
2015 2015 2015 2015 2015 2015 2015 2015 2015 
2015 2015 2015 2015 2015 2015 2015 2015 2015 
2015 2015 2015 2015 2015 2015 2015 2015 2015 
2015 2015 2015 2015 2015 2015 2015 2015 2015 
2015 2015 2015 2015 2015 2015 2015 2015 2015 
2015 2015 2015 2015 2015 2015 2015 2015 2015 
2015 2015 2015 2015 2015 2015 2015 2015 2015 
2015 2015 2015 2015 2015 2015 2015 2015 2015 
2015 2015 2015 2015 2015 2015 2015 2015 2015 
2015 2015 2015 2015 2015 2015 2015 2015 2015 
2015 2015 2015 2015 2015 2015 2015 2015 2015 
2015 2015 2015 2015 2015 2015 2015 2015 2015 
2015 2015 2015 2015 2015 2015 2015 2015 2015 
2015 2015 2015 2015 2015 2015 2015 2015 2015 
2015 2015 2015 2015 2015 2015 2015 2015 2015 
2015 2015 2015 2015 2015 2015 2015 2015 2015 
2015 2015 2015 2015 2015 2015 2015 2015 2015 
2015 2015 2015 2015 2015 2015 2015 2015 2015 
2015 2015 2015 2015 2015 2015 2015 2015 2015 
2015 2015 2015 2015 2015 2015 2015 2015 2015 
2015 2015 2015 2015 2015 2015 2015 2015 2015 
2015 2015 2015 2015 2015 2015 2015 2015 2015 
2015 2015 2015 2015 2015 2015 2015 2015 2015 
2015 2015 2015 2015 2015 2015 2015 2015 2015 
2015 2015 2015 2015 2015 2015 2015 2015 2015 
2015 2015 2015 2015 2015 2015 2015 2015 2015 