# vtk DataFile Version 4.2
vtk output
ASCII
DATASET POLYDATA
POINTS 5366 float
-42.0211 -6.59028 68.8333 -42.1352 -6.12697 68.3527 -42.6643 -6.43232 68.3614 
-41.2072 -6.77095 68.9314 -41.416 -6.22279 68.4461 -40.7478 -6.45677 68.4283 
-42.011 -7.16929 68.3641 -41.65 -7.52094 68.6394 -41.5711 -7.27183 68.9474 
-40.2563 -6.8975 68.5284 -40.4813 -7.41884 68.9025 -39.3223 -7.55599 68.8432 
-39.308 -7.17627 68.4564 -38.5168 -7.58066 68.7776 -38.3276 -7.25263 68.4485 
-37.8224 -7.43142 68.4116 -41.0392 -7.75295 68.5605 -40.0276 -7.9104 68.471 
-38.9978 -7.91855 68.4612 -38.0495 -7.79548 68.3123 -46.0278 -5.5791 67.859 
-46.2981 -5.0427 67.5669 -46.7306 -5.62135 67.4847 -45.0619 -5.58722 67.9183 
-45.6248 -4.92328 67.5643 -44.0302 -5.64065 67.9066 -44.4561 -4.95004 67.4313 
-43.1943 -5.75403 67.9144 -43.4108 -5.19104 67.3772 -42.7459 -5.42637 67.3622 
-46.2055 -6.51798 67.9227 -46.86 -6.77894 67.5529 -45.2994 -6.49838 68.0684 
-44.2935 -6.50766 68.0814 -43.3923 -6.50903 68.1289 -42.4554 -5.83747 67.8118 
-41.4534 -5.8824 67.548 -40.1193 -6.57885 67.944 -40.4612 -6.17542 67.5805 
-39.6917 -6.48881 67.2985 -46.3292 -7.41425 67.8882 -46.8123 -7.83176 67.5517 
-45.4339 -7.65938 67.9606 -44.4917 -7.36516 68.0604 -43.5894 -7.58968 67.9507 
-42.6483 -7.37303 67.9791 -41.9238 -7.61604 67.3431 -41.4577 -7.26145 67.3514 
-41.3131 -7.51953 68.0312 -40.9789 -7.42897 67.1877 -39.2985 -6.87241 67.6068 
-38.2414 -7.04368 67.53 -37.3545 -7.54384 67.9688 -37.213 -7.2296 67.5418 
-36.8836 -7.53615 67.555 -46.2295 -8.23606 67.7753 -46.6991 -8.4865 67.5224 
-45.7071 -8.42819 67.6503 -45.1219 -8.33912 67.6512 -44.7751 -8.75004 67.3167 
-44.3895 -8.20789 67.7883 -43.6869 -8.41085 67.5974 -42.977 -8.16079 67.5481 
-42.3989 -7.95357 67.4952 -40.4886 -8.04456 67.5074 -39.2899 -8.22697 67.6972 
-38.2423 -8.18244 67.6972 -37.2813 -7.89119 67.6242 -46.4213 -8.82578 67.3117 
-44.0147 -8.76703 67.238 -46.2602 -4.62492 67.0566 -46.3909 -4.1247 66.1976 
-46.9323 -4.59949 66.6227 -45.082 -4.44788 67.0489 -45.2954 -4.07384 66.4061 
-44.2409 -4.52646 66.8723 -44.3503 -4.16069 66.3887 -43.7117 -4.39381 66.3732 
-47.1453 -5.24228 66.8985 -47.342 -4.97053 66.5472 -47.7197 -5.64567 66.4581 
-43.5255 -4.77222 66.7862 -41.9743 -5.50854 67.0505 -42.4537 -5.00658 66.5453 
-41.1837 -5.60044 66.7756 -41.374 -5.24163 66.3175 -40.6969 -5.45472 66.2711 
-47.3524 -6.23463 67.0143 -47.8556 -6.80006 66.5067 -40.4995 -5.8074 66.7387 
-39.1289 -6.62317 66.8374 -39.6104 -6.10263 66.6121 -38.8567 -6.39754 66.349 
-47.3526 -7.3266 67.0324 -47.8289 -7.8257 66.497 -41.4302 -7.39274 66.6234 
-41.1568 -7.27641 66.6052 -40.9856 -7.68179 66.6564 -38.4591 -6.82403 66.7111 
-37.5036 -6.86795 66.6241 -36.5475 -7.0298 66.556 -36.3294 -7.8232 67.0499 
-35.7805 -7.35621 66.1731 -47.2096 -8.37261 67.0227 -47.7169 -8.48753 66.5006 
-45.5605 -8.83962 67.3042 -43.3344 -8.64769 67.1732 -42.3405 -8.39641 66.9653 
-41.4729 -7.8432 66.6034 -41.2535 -8.41626 66.7753 -40.4503 -8.65579 66.8808 
-39.5568 -8.60952 66.9975 -38.5534 -8.59991 67.0097 -37.3852 -8.46116 67.0362 
-36.404 -8.60586 66.8999 -35.3961 -8.05243 66.5447 -35.5462 -8.54823 66.8093 
-34.8278 -8.38613 66.3515 -47.3151 -9.06352 66.4975 -46.2426 -9.3797 66.8827 
-46.7231 -9.75287 66.4517 -45.2784 -9.36705 66.8375 -44.2944 -9.20358 66.658 
-44.7853 -9.5185 66.5142 -43.1527 -9.01359 66.4434 -41.9937 -8.89769 66.3064 
-41.0078 -8.94326 66.3025 -40.0219 -8.97 66.3411 -39.1226 -8.92638 66.4524 
-38.3402 -8.84836 66.3319 -37.1613 -8.84365 66.4204 -35.9727 -8.99723 66.4241 
-34.9958 -8.93934 66.2693 -45.9583 -9.95878 66.4979 -45.1894 -9.85614 66.4213 
-47.4199 -4.65838 66.1544 -47.2911 -4.09457 65.3205 -47.9654 -4.59404 65.617 
-46.137 -3.93456 65.331 -45.278 -3.92236 65.5133 -44.2909 -3.95513 65.5326 
-42.9653 -4.48945 66.0758 -43.3336 -4.09186 65.5613 -42.2233 -4.57652 65.8115 
-42.3571 -4.19608 65.3501 -41.7285 -4.41307 65.3161 -48.1549 -5.28216 65.8775 
-48.434 -4.87523 65.356 -48.6537 -5.56058 65.363 -41.5338 -4.81078 65.7403 
-39.9731 -5.50685 66.0384 -40.5815 -5.00142 65.6469 -39.0009 -5.71449 65.9368 
-39.4231 -4.99554 65.3772 -38.0612 -5.77638 65.7484 -38.4133 -5.22885 65.3499 
-37.7444 -5.46645 65.3029 -48.3206 -6.26781 65.9883 -48.8623 -6.65245 65.4015 
-38.1907 -6.38502 66.1385 -37.2078 -5.87655 65.4113 -37.1538 -6.41022 65.9716 
-36.268 -6.68954 65.9712 -36.5115 -6.25394 65.5219 -35.8368 -6.55651 65.4589 
-48.3526 -7.33534 66.0006 -48.8582 -7.81004 65.5146 -41.2152 -7.45976 66.2936 
-35.523 -7.28021 65.5011 -34.2988 -7.85637 65.7527 -34.2273 -7.38982 65.4468 
-34.4904 -7.48451 65.4742 -34.034 -7.74302 65.386 -48.226 -8.35255 65.9918 
-48.749 -8.45258 65.4969 -37.9779 -8.58361 65.95 -38.7304 -8.63883 65.6685 
-38.2563 -8.166 65.3452 -37.4135 -8.23987 65.3859 -37.2514 -8.63165 65.8718 
-36.7761 -8.49579 65.3268 -34.9375 -7.85205 65.4973 -34.3343 -8.5825 65.9997 
-34.0194 -8.31654 65.5404 -48.3329 -9.04809 65.5087 -47.3391 -9.72897 66.0152 
-47.8795 -9.86754 65.501 -44.5171 -9.79441 66.2107 -43.6408 -9.67953 65.9315 
-42.8864 -9.4219 65.6513 -42.2432 -9.25423 65.6177 -41.2269 -9.18705 65.407 
-40.4257 -9.09169 65.6273 -39.4486 -8.95404 65.6638 -36.3454 -8.92724 65.638 
-35.3858 -9.14367 65.6804 -34.5485 -8.87245 65.3743 -47.3187 -10.3187 65.7796 
-47.6764 -10.4224 65.4973 -46.5734 -10.3892 66.0204 -45.3673 -10.4208 66.0279 
-44.3472 -10.4151 65.7996 -43.6624 -10.5695 65.3307 -43.1301 -9.91481 65.4219 
-47.2498 -10.9243 65.3681 -46.0289 -11.075 65.5536 -45.0022 -11.0604 65.5203 
-44.2783 -11.0306 65.3723 -48.2165 -4.3748 65.1031 -48.0807 -4.12993 64.3265 
-48.6612 -4.74105 64.7275 -47.1477 -3.93883 64.3201 -46.2911 -3.93341 64.4805 
-45.2625 -3.94635 64.518 -44.4009 -3.9581 64.6803 -43.3166 -4.08158 64.3717 
-42.3145 -3.98219 64.4988 -40.9836 -4.47195 65.0797 -41.3623 -4.08731 64.5419 
-40.0549 -4.49453 64.9934 -40.2781 -4.11586 64.3662 -39.2382 -4.53829 64.8424 
-39.3557 -4.19148 64.3634 -38.7166 -4.4206 64.3508 -49.0282 -5.56019 64.6273 
-38.3971 -4.82233 64.6296 -37.1478 -5.5696 64.9083 -37.6038 -5.20502 64.6888 
-36.7936 -5.32775 64.3079 -35.3758 -5.83326 64.7941 -35.2356 -5.28274 64.3916 
-35.7354 -5.30747 64.3296 -34.9503 -5.46443 64.2818 -49.2952 -6.4352 64.854 
-49.4244 -5.9126 64.3513 -49.6541 -6.58857 64.3997 -36.3291 -5.79624 64.8556 
-35.3034 -6.79222 65.0162 -34.7486 -6.21597 64.3605 -49.356 -7.29849 65.0243 
-49.738 -7.52946 64.386 -41.1234 -7.39457 64.7624 -41.7928 -7.52671 64.4086 
-41.3989 -7.16303 64.2491 -40.3053 -7.13337 64.4651 -40.1927 -7.57254 64.8308 
-39.2701 -7.1278 64.4554 -39.1388 -7.48606 64.9028 -38.343 -7.19081 64.4243 
-38.368 -7.65971 64.9062 -37.7133 -7.40836 64.384 -35.2771 -7.43628 65.1266 
-34.86 -7.48279 64.5014 -34.3484 -7.61262 65.2891 -49.2337 -8.32666 65.0107 
-49.6902 -8.59884 64.1812 -41.2269 -7.76936 64.4004 -40.3602 -8.13269 64.3837 
-39.3809 -8.25921 65.0063 -39.9715 -8.51981 64.4318 -37.3881 -7.82545 64.6338 
-36.4322 -8.20814 64.5177 -36.1496 -8.63704 64.8529 -35.6846 -8.53042 64.2474 
-34.851 -8.46348 64.5579 -34.2823 -8.24642 65.1527 -49.1034 -9.11662 64.6908 
-48.5013 -9.56656 64.9909 -48.933 -9.848 64.4971 -42.5113 -9.79224 65.2157 
-41.651 -9.74372 64.9295 -40.8907 -9.36104 64.5244 -40.1825 -8.93504 64.7978 
-35.4005 -8.894 64.7647 -48.2201 -10.3136 64.9867 -48.7593 -10.4105 64.4758 
-43.0302 -10.3777 65.084 -42.351 -10.4277 64.8002 -41.5693 -10.2254 64.2642 
-41.2426 -9.81774 64.4742 -48.3233 -11.0049 64.5021 -47.2502 -11.6154 64.8699 
-47.7449 -11.7094 64.4524 -46.4709 -11.5707 65.1735 -45.5569 -11.7294 65.0341 
-44.6232 -11.5372 64.9563 -43.9548 -11.35 64.7258 -43.1259 -11.0346 64.4235 
-42.0545 -10.8663 64.2288 -47.1321 -12.1485 64.5908 -46.6995 -12.6979 64.4522 
-46.4049 -12.2199 64.7956 -45.6838 -12.399 64.5832 -44.9517 -12.105 64.3385 
-44.3126 -11.7866 64.2755 -46.1178 -12.8241 64.4365 -48.1752 -4.13332 63.2163 
-48.8344 -4.65636 63.7664 -47.2977 -3.97384 63.4387 -46.2829 -3.97634 63.4836 
-45.4045 -3.98391 63.6658 -44.2912 -4.16427 63.7006 -43.4202 -4.45666 63.7671 
-43.8356 -4.61799 63.3357 -42.9455 -4.43201 63.6116 -42.2789 -4.09375 63.3965 
-41.3047 -3.9451 63.4939 -40.2804 -3.9706 63.4784 -39.2737 -4.00312 63.4917 
-38.1066 -4.56491 63.921 -38.4011 -4.19324 63.5415 -37.6938 -4.48535 63.2907 
-36.2612 -4.84711 63.7714 -36.2789 -4.41631 63.3802 -36.5216 -4.57688 63.3034 
-36.0341 -4.57268 63.304 -49.2867 -5.31697 63.9057 -49.3306 -5.03416 63.1417 
-49.6328 -5.75251 63.6721 -43.3376 -4.77877 63.2126 -37.2265 -4.84212 63.6777 
-36.2597 -5.36148 64.2802 -35.3447 -5.01377 63.5309 -34.579 -5.496 63.6161 
-49.8418 -6.52578 63.5375 -34.2513 -6.01276 63.6944 -34.2294 -6.82021 63.934 
-33.8691 -6.28507 63.2201 -49.8667 -7.53027 63.4967 -45.1792 -7.41912 63.8004 
-45.6825 -7.75893 63.3519 -45.2987 -7.16976 63.2786 -44.401 -7.08907 63.4837 
-44.3833 -7.47689 63.8542 -43.362 -7.11553 63.4606 -43.3596 -7.48832 63.817 
-42.2182 -7.11012 63.552 -42.4254 -7.4862 64.0027 -41.1248 -7.01697 63.3891 
-40.3084 -7.00959 63.5491 -39.3065 -6.98693 63.5681 -38.2956 -6.99063 63.5544 
-37.3826 -7.17836 63.5521 -37.1206 -7.53274 63.9242 -36.6857 -7.46369 63.2914 
-34.3138 -7.81473 63.8569 -33.8194 -7.28679 63.3464 -49.8516 -8.39407 63.3563 
-45.1051 -7.967 63.6273 -44.1444 -8.02991 63.5895 -43.1109 -8.00448 63.5499 
-42.0594 -7.96935 63.7156 -41.1013 -8.19558 63.7282 -40.5273 -8.70917 64.0314 
-41.0142 -8.67046 63.5081 -36.3511 -7.84223 63.5985 -35.1412 -8.22421 63.6896 
-35.2513 -8.61063 64.0968 -34.4898 -8.58986 63.3084 -34.387 -8.50198 63.6602 
-33.9922 -8.28126 63.4234 -49.4463 -9.48191 64.1705 -49.7545 -9.43351 63.5133 
-41.1191 -9.38859 63.9109 -41.6425 -9.58648 63.167 -41.2917 -8.9909 63.3982 
-40.3699 -9.25244 63.3784 -40.6729 -9.44787 63.4585 -40.2626 -9.50375 63.6973 
-40.0328 -9.43304 63.3368 -34.2169 -8.74684 63.472 -49.2546 -10.3074 64.0128 
-49.6766 -10.5881 63.1846 -41.2789 -10.3278 63.6393 -41.3532 -10.6778 63.8976 
-40.3926 -9.72714 63.2308 -41.1226 -10.6047 63.5256 -49.0986 -11.0821 63.7127 
-48.3396 -11.6541 64.0199 -48.905 -11.8658 63.3249 -43.7104 -11.7017 63.5426 
[...]
CELL_DATA 10752
SCALARS scalars float
LOOKUP_TABLE default
2020 2020 2020 2020 2020 2020 2020 2020 2020 
2020 2020 2020 2020 2020 2020 2020 2020 2020 
2020 2020 2020 2020 2020 2020 2020 2020 2020 
2020 2020 2020 2020 2020 2020 2020 2020 2020 
2020 2020 2020 2020 2020 2020 2020 2020 2020 
2020 2020 2020 2020 2020 2020 2020 2020 2020 
2020 2020 2020 2020 2020 2020 2020 2020 2020 
2020 2020 2020 2020 2020 2020 2020 2020 2020 
2020 2020 2020 2020 2020 2020 2020 2020 2020 
2020 2020 2020 2020 2020 2020 2020 2020 2020 
2020 2020 2020 2020 2020 2020 2020 2020 2020 
2020 2020 2020 2020 2020 2020 2020 2020 2020 
2020 2020 2020 2020 2020 2020 2020 2020 2020 
2020 2020 2020 2020 2020 2020 2020 2020 2020 
2020 2020 2020 2020 2020 2020 2020 2020 2020 
2020 2020 2020 2020 2020 2020 2020 2020 2020 
2020 2020 2020 2020 2020 2020 2020 2020 2020 
2020 2020 2020 2020 2020 2020 2020 2020 2020 
2020 2020 2020 2020 2020 2020 2020 2020 2020 
2020 2020 2020 2020 2020 2020 2020 2020 2020 
2020 2020 2020 2020 2020 2020 2020 2020 2020 
2020 2020 2020 2020 2020 2020 2020 2020 2020 
2020 2020 2020 2020 2020 2020 2020 2020 2020 
2020 2020 2020 2020 2020 2020 2020 2020 2020 
2020 2020 2020 2020 2020 2020 2020 2020 2020 
2020 2020 2020 2020 2020 2020 2020 2020 2020 
2020 2020 2020 2020 2020 2020 2020 2020 2020 
2020 2020 2020 2020 2020 2020 2020 2020 2020 
2020 2020 2020 2020 2020 2020 2020 2020 2020 
2020 2020 2020 2020 2020 2020 2020 2020 2020 
2020 2020 2020 2020 2020 2020 2020 2020 2020 
2020 2020 2020 2020 2020 2020 2020 2020 2020 
2020 2020 2020 2020 2020 2020 2020 2020 2020 
2020 2020 2020 2020 2020 2020 2020 2020 2020 
2020 2020 2020 2020 2020 2020 2020 2020 2020 
2020 2020 2020 2020 2020 2020 2020 2020 2020 
2020 2020 2020 2020 2020 2020 2020 2020 2020 
2020 2020 2020 2020 2020 2020 2020 2020 2020 
2020 2020 2020 2020 2020 2020 2020 2020 2020 
2020 2020 2020 2020 2020 2020 2020 2020 2020 
2020 2020 2020 2020 2020 2020 2020 2020 2020 
2020 2020 2020 2020 2020 2020 2020 2020 2020 
2020 2020 2020 2020 2020 2020 2020 2020 2020 
2020 2020 2020 2020 2020 2020 2020 2020 2020 
2020 2020 2020 2020 2020 2020 2020 2020 2020 
2020 2020 2020 2020 2020 2020 2020 2020 2020 
2020 2020 2020 2020 2020 2020 2020 2020 2020 
2020 2020 2020 2020 2020 2020 2020 2020 2020 
2020 2020 2020 2020 2020 2020 2020 2020 2020 
2020 2020 2020 2020 2020 2020 2020 2020 2020 
2020 2020 2020 2020 2020 2020 2020 2020 2020 
2020 2020 2020 2020 2020 2020 2020 2020 2020 
2020 2020 2020 2020 2020 2020 2020 2020 2020 
2020 2020 2020 2020 2020 2020 2020 2020 2020 
2020 2020 2020 2020 2020 2020 2020 2020 2020 
2020 2020 2020 2020 2020 2020 2020 2020 2020 
2020 2020 2020 2020 2020 2020 2020 2020 2020 
2020 2020 2020 2020 2020 2020 2020 2020 2020 
2020 2020 2020 2020 2020 2020 2020 2020 2020 
2020 2020 2020 2020 2020 2020 2020 2020 2020 
2020 2020 2020 2020 2020 2020 2020 2020 2020 
2020 2020 2020 2020 2020 2020 2020 2020 2020 
2020 2020 2020 2020 2020 2020 2020 2020 2020 
2020 2020 2020 2020 2020 2020 2020 2020 2020 
2020 2020 2020 2020 2020 2020 2020 2020 2020 
2020 2020 2020 2020 2020 2020 2020 2020 2020 
2020 2020 2020 2020 2020 2020 2020 2020 2020 
2020 2020 2020 2020 2020 2020 2020 2020 2020 
2020 2020 2020 2020 2020 2020 2020 2020 2020 
2020 2020 2020 2020 2020 2020 2020 2020 2020 
2020 2020 2020 2020 2020 2020 2020 2020 2020 
2020 2020 2020 2020 2020 2020 2020 2020 2020 
2020 2020 2020 2020 2020 2020 2020 2020 2020 
2020 2020 2020 2020 2020 2020 2020 2020 2020 
2020 2020 2020 2020 2020 2020 2020 2020 2020 
2020 2020 2020 2020 2020 2020 2020 2020 2020 
2020 2020 2020 2020 2020 2020 2020 2020 2020 
2020 2020 2020 2020 2020 2020 2020 2020 2020 
2020 2020 2020 2020 2020 2020 2020 2020 2020 
2020 2020 2020 2020 2020 2020 2020 2020 2020 
2020 2020 2020 2020 2020 2020 2020 2020 2020 
2020 2020 2020 2020 2020 2020 2020 2020 2020 
2020 2020 2020 2020 2020 2020 2020 2020 2020 
2020 2020 2020 2020 2020 2020 2020 2020 2020 
2020 2020 2020 2020 2020 2020 2020 2020 2020 
2020 2020 2020 2020 2020 2020 2020 2020 2020 
2020 2020 2020 2020 2020 2020 2020 2020 2020 
2020 2020 2020 2020 2020 2020 2020 2020 2020 
2020 2020 2020 2020 2020 2020 2020 2020 2020 
2020 2020 2020 2020 2020 2020 2020 2020 2020 
2020 2020 2020 2020 2020 2020 2020 2020 2020 
2020 2020 2020 2020 2020 2020 2020 2020 2020 
2020 2020 2020 2020 2020 2020 2020 2020 2020 
2020 2020 2020 2020 2020 2020 2020 2020 2020 
2020 2020 2020 2020 2020 2020 2020 2020 2020 
2020 2020 2020 2020 2020 2020 2020 2020 2020 
2020 2020 2020 2020 2020 2020 2020 2020 2020 
2020 2020 2020 2020 2020 2020 2020 2020 2020 
2020 2020 2020 2020 2020 2020 2020 2020 2020 
2020 2020 2020 2020 2020 2020 2020 2020 2020 
2020 2020 2020 2020 2020 2020 2020 2020 2020 
2020 2020 2020 2020 2020 2020 2020 2020 2020 
2020 2020 2020 2020 2020 2020 2020 2020 2020 
2020 2020 2020 2020 2020 2020 2020 2020 2020 
2020 2020 2020 2020 2020 2020 2020 2020 2020 
2020 2020 2020 2020 2020 2020 2020 2020 2020 
2020 2020 2020 2020 2020 2020 2020 2020 2020 
2020 2020 2020 2020 2020 2020 2020 2020 2020 
2020 2020 2020 2020 2020 2020 2020 2020 2020 
2020 2020 2020 2020 2020 2020 2020 2020 2020 
2020 2020 2020 2020 2020 2020 2020 2020 2020 
2020 2020 2020 2020 2020 2020 2020 2020 2020 
2020 2020 2020 2020 2020 2020 2020 2020 2020 
2020 2020 2020 2020 2020 2020 2020 2020 2020 
2020 2020 2020 2020 2020 2020 2020 2020 2020 
2020 2020 2020 2020 2020 2020 2020 2020 2020 
2020 2020 2020 2020 2020 2020 2020 2020 2020 
2020 2020 2020 2020 2020 2020 2020 2020 2020 
2020 2020 2020 2020 2020 2020 2020 2020 2020 
2020 2020 2020 2020 2020 2020 2020 2020 2020 
2020 2020 2020 2020 2020 2020 2020 2020 2020 
2020 2020 2020 2020 2020 2020 2020 2020 2020 
2020 2020 2020 2020 2020 2020 2020 2020 2020 
2020 2020 2020 2020 2020 2020 2020 2020 2020 
2020 2020 2020 2020 2020 2020 2020 2020 2020 
2020 2020 2020 2020 2020 2020 2020 2020 2020 
2020 2020 2020 2020 2020 2020 2020 2020 2020 
2020 2020 2020 2020 2020 2020 2020 2020 2020 
2020 2020 2020 2020 2020 2020 2020 2020 2020 
2020 2020 2020 2020 2020 2020 2020 2020 2020 
2020 2020 2020 2020 2020 2020 2020 2020 2020 
2020 2020 2020 2020 2020 2020 2020 2020 2020 
2020 2020 2020 2020 2020 2020 2020 2020 2020 
2020 2020 2020 2020 2020 2020 2020 2020 2020 
2020 2020 2020 2020 2020 2020 2020 2020 2020 
2020 2020 2020 2020 2020 2020 2020 2020 2020 
2020 2020 2020 2020 2020 2020 2020 2020 2020 
2020 2020 2020 2020 2020 2020 2020 2020 2020 
2020 2020 2020 2020 2020 2020 2020 2020 2020 
2020 2020 2020 2020 2020 2020 2020 2020 2020 
2020 2020 2020 2020 2020 2020 2020 2020 2020 
2020 2020 2020 2020 2020 2020 2020 2020 2020 
2020 2020 2020 2020 2020 2020 2020 2020 2020 
2020 2020 2020 2020 2020 2020 2020 2020 2020 
2020 2020 2020 2020 2020 2020 2020 2020 2020 
2020 2020 2020 2020 2020 2020 2020 2020 2020 
2020 2020 2020 2020 2020 2020 2020 2020 2020 
2020 2020 2020 2020 2020 2020 2020 2020 2020 
2020 2020 2020 2020 2020 2020 2020 2020 2020 
2020 2020 2020 2020 2020 2020 2020 2020 2020 
2020 2020 2020 2020 2020 2020 2020 2020 2020 
2020 2020 2020 2020 2020 2020 2020 2020 2020 
2020 2020 2020 2020 2020 2020 2020 2020 2020 
2020 2020 2020 2020 2020 2020 2020 2020 2020 
2020 2020 2020 2020 2020 2020 2020 2020 2020 
2020 2020 2020 2020 2020 2020 2020 2020 2020 
2020 2020 2020 2020 2020 2020 2020 2020 2020 
2020 2020 2020 2020 2020 2020 2020 2020 2020 
2020 2020 2020 2020 2020 2020 2020 2020 2020 
2020 2020 2020 2020 2020 2020 2020 2020 2020 
2020 2020 2020 2020 2020 2020 2020 2020 2020 
2020 2020 2020 2020 2020 2020 2020 2020 2020 
2020 2020 2020 2020 2020 2020 2020 2020 2020 
2020 2020 2020 2020 2020 2020 2020 2020 2020 
2020 2020 2020 2020 2020 2020 2020 2020 2020 
2020 2020 2020 2020 2020 2020 2020 2020 2020 
2020 2020 2020 2020 2020 2020 2020 2020 2020 
2020 2020 2020 2020 2020 2020 2020 2020 2020 
2020 2020 2020 2020 2020 2020 2020 2020 2020 
2020 2020 2020 2020 2020 2020 2020 2020 2020 
2020 2020 2020 2020 2020 2020 2020 2020 2020 
2020 2020 2020 2020 2020 2020 2020 2020 2020 
2020 2020 2020 2020 2020 2020 2020 2020 2020 
2020 2020 2020 2020 2020 2020 2020 2020 2020 
2020 2020 2020 2020 2020 2020 2020 2020 2020 
2020 2020 2020 2020 2020 2020 2020 2020 2020 
2020 2020 2020 2020 2020 2020 2020 2020 2020 
2020 2020 2020 2020 2020 2020 2020 2020 2020 
2020 2020 2020 2020 2020 2020 2020 2020 2020 
2020 2020 2020 2020 2020 2020 2020 2020 2020 
2020 2020 2020 2020 2020 2020 2020 2020 2020 
2020 2020 2020 2020 2020 2020 2020 2020 2020 
2020 2020 2020 2020 2020 2020 2020 2020 2020 
2020 2020 2020 2020 2020 2020 2020 2020 2020 
2020 2020 2020 2020 2020 2020 2020 2020 2020 
2020 2020 2020 2020 2020 2020 2020 2020 2020 
2020 2020 2020 2020 2020 2020 2020 2020 2020 
2020 2020 2020 2020 2020 2020 2020 2020 2020 
2020 2020 2020 2020 2020 2020 2020 2020 2020 
2020 2020 2020 2020 2020 2020 2020 2020 2020 
2020 2020 2020 2020 2020 2020 2020 2020 2020 
2020 2020 2020 2020 2020 2020 2020 2020 2020 
2020 2020 2020 2020 2020 2020 2020 2020 2020 
2020 2020 2020 2020 2020 2020 2020 2020 2020 
2020 2020 2020 2020 2020 2020 2020 2020 2020 
2020 2020 2020 2020 2020 2020 2020 2020 2020 
2020 2020 2020 2020 2020 2020 2020 2020 2020 
2020 2020 2020 2020 2020 2020 2020 2020 2020 
2020 2020 2020 2020 2020 2020 2020 2020 2020 
2020 2020 2020 2020 2020 2020 2020 2020 2020 
2020 2020 2020 2020 2020 2020 2020 2020 2020 
2020 2020 2020 2020 2020 2020 2020 2020 2020 
2020 2020 2020 2020 2020 2020 2020 2020 2020 
2020 2020 2020 2020 2020 2020 2020 2020 2020 
2020 2020 2020 2020 2020 2020 2020 2020 2020 
2020 2020 2020 2020 2020 2020 2020 2020 2020 
2020 2020 2020 2020 2020 2020 2020 2020 2020 
2020 2020 2020 2020 2020 2020 2020 2020 2020 
2020 2020 2020 2020 2020 2020 2020 2020 2020 
2020 2020 2020 2020 2020 2020 2020 2020 2020 
2020 2020 2020 2020 2020 2020 2020 2020 2020 
2020 2020 2020 2020 2020 2020 2020 2020 2020 
2020 2020 2020 2020 2020 2020 2020 2020 2020 
2020 2020 2020 2020 2020 2020 2020 2020 2020 
2020 2020 2020 2020 2020 2020 2020 2020 2020 
2020 2020 2020 2020 2020 2020 2020 2020 2020 
2020 2020 2020 2020 2020 2020 2020 2020 2020 
2020 2020 2020 2020 2020 2020 2020 2020 2020 
2020 2020 2020 2020 2020 2020 2020 2020 2020 
2020 2020 2020 2020 2020 2020 2020 2020 2020 
2020 2020 2020 2020 2020 2020 2020 2020 2020 
2020 2020 2020 2020 2020 2020 2020 2020 2020 
2020 2020 2020 2020 2020 2020 2020 2020 2020 
2020 2020 2020 2020 2020 2020 2020 2020 2020 
2020 2020 2020 2020 2020 2020 2020 2020 2020 
2020 2020 2020 2020 2020 2020 2020 2020 2020 
2020 2020 2020 2020 2020 2020 2020 2020 2020 
2020 2020 2020 2020 2020 2020 2020 2020 2020 
2020 2020 2020 2020 2020 2020 2020 2020 2020 
2020 2020 2020 2020 2020 2020 2020 2020 2020 
2020 2020 2020 2020 2020 2020 2020 2020 2020 
2020 2020 2020 2020 2020 2020 2020 2020 2020 
2020 2020 2020 2020 2020 2020 2020 2020 2020 
2020 2020 2020 2020 2020 2020 2020 2020 2020 
2020 2020 2020 2020 2020 2020 2020 2020 2020 
2020 2020 2020 2020 2020 2020 2020 2020 2020 
2020 2020 2020 2020 2020 2020 2020 2020 2020 
2020 2020 2020 2020 2020 2020 2020 2020 2020 
2020 2020 2020 2020 2020 2020 2020 2020 2020 
2020 2020 2020 2020 2020 2020 2020 2020 2020 
2020 2020 2020 2020 2020 2020 2020 2020 2020 
2020 2020 2020 2020 2020 2020 2020 2020 2020 
2020 2020 2020 2020 2020 2020 2020 2020 2020 
2020 2020 2020 2020 2020 2020 2020 2020 2020 
2020 2020 2020 2020 2020 2020 2020 2020 2020 
2020 2020 2020 2020 2020 2020 2020 2020 2020 
2020 2020 2020 2020 2020 2020 2020 2020 2020 
2020 2020 2020 2020 2020 2020 2020 2020 2020 
2020 2020 2020 2020 2020 2020 2020 2020 2020 
2020 2020 2020 2020 2020 2020 2020 2020 2020 
2020 2020 2020 2020 2020 2020 2020 2020 2020 
2020 2020 2020 2020 2020 2020 2020 2020 2020 
2020 2020 2020 2020 2020 2020 2020 2020 2020 
2020 2020 2020 2020 2020 2020 2020 2020 2020 
2020 2020 2020 2020 2020 2020 2020 2020 2020 
2020 2020 2020 2020 2020 2020 2020 2020 2020 
2020 2020 2020 2020 2020 2020 2020 2020 2020 
2020 2020 2020 2020 2020 2020 2020 2020 2020 
2020 2020 2020 2020 2020 2020 2020 2020 2020 
2020 2020 2020 2020 2020 2020 2020 2020 2020 
2020 2020 2020 2020 2020 2020 2020 2020 2020 
2020 2020 2020 2020 2020 2020 2020 2020 2020 
2020 2020 2020 2020 2020 2020 2020 2020 2020 
2020 2020 2020 2020 2020 2020 2020 2020 2020 
2020 2020 2020 2020 2020 2020 2020 2020 2020 
2020 2020 2020 2020 2020 2020 2020 2020 2020 
2020 2020 2020 2020 2020 2020 2020 2020 2020 
2020 2020 2020 2020 2020 2020 2020 2020 2020 
2020 2020 2020 2020 2020 2020 2020 2020 2020 
2020 2020 2020 2020 2020 2020 2020 2020 2020 
2020 2020 2020 2020 2020 2020 2020 2020 2020 
2020 2020 2020 2020 2020 2020 2020 2020 2020 
2020 2020 2020 2020 2020 2020 2020 2020 2020 
2020 2020 2020 2020 2020 2020 2020 2020 2020 
2020 2020 2020 2020 2020 2020 2020 2020 2020 
2020 2020 2020 2020 2020 2020 2020 2020 2020 
2020 2020 2020 2020 2020 2020 2020 2020 2020 
2020 2020 2020 2020 2020 2020 2020 2020 2020 
2020 2020 2020 2020 2020 2020 2020 2020 2020 
2020 2020 2020 2020 2020 2020 2020 2020 2020 
2020 2020 2020 2020 2020 2020 2020 2020 2020 
2020 2020 2020 2020 2020 2020 2020 2020 2020 
2020 2020 2020 2020 2020 2020 2020 2020 2020 
2020 2020 2020 2020 2020 2020 2020 2020 2020 
2020 2020 2020 2020 2020 2020 2020 2020 2020 
2020 2020 2020 2020 2020 2020 2020 2020 2020 
2020 2020 2020 2020 2020 2020 2020 2020 2020 
2020 2020 2020 2020 2020 2020 2020 2020 2020 
2020 2020 2020 2020 2020 2020 2020 2020 2020 
2020 2020 2020 2020 2020 2020 2020 2020 2020 
2020 2020 2020 2020 2020 2020 2020 2020 2020 
2020 2020 2020 2020 2020 2020 2020 2020 2020 
2020 2020 2020 2020 2020 2020 2020 2020 2020 
2020 2020 2020 2020 2020 2020 2020 2020 2020 
2020 2020 2020 2020 2020 2020 2020 2020 2020 
2020 2020 2020 2020 2020 2020 2020 2020 2020 
2020 2020 2020 2020 2020 2020 2020 2020 2020 
2020 2020 2020 2020 2020 2020 2020 2020 2020 
2020 2020 2020 2020 2020 2020 2020 2020 2020 
2020 2020 2020 2020 2020 2020 2020 2020 2020 
2020 2020 2020 2020 2020 2020 2020 2020 2020 
2020 2020 2020 2020 2020 2020 2020 2020 2020 
2020 2020 2020 2020 2020 2020 2020 2020 2020 
2020 2020 2020 2020 2020 2020 2020 2020 2020 
2020 2020 2020 2020 2020 2020 2020 2020 2020 
2020 2020 2020 2020 2020 2020 2020 2020 2020 
2020 2020 2020 2020 2020 2020 2020 2020 2020 
2020 2020 2020 2020 2020 2020 2020 2020 2020 
2020 2020 2020 2020 2020 2020 2020 2020 2020 
2020 2020 2020 2020 2020 2020 2020 2020 2020 
2020 2020 2020 2020 2020 2020 2020 2020 2020 
2020 2020 2020 2020 2020 2020 2020 2020 2020 
2020 2020 2020 2020 2020 2020 2020 2020 2020 
2020 2020 2020 2020 2020 2020 2020 2020 2020 
2020 2020 2020 2020 2020 2020 2020 2020 2020 
2020 2020 2020 2020 2020 2020 2020 2020 2020 
2020 2020 2020 2020 2020 2020 2020 2020 2020 
2020 2020 2020 2020 2020 2020 2020 2020 2020 
2020 2020 2020 2020 2020 2020 2020 2020 2020 
2020 2020 2020 2020 2020 2020 2020 2020 2020 
2020 2020 2020 2020 2020 2020 2020 2020 2020 
2020 2020 2020 2020 2020 2020 2020 2020 2020 
2020 2020 2020 2020 2020 2020 2020 2020 2020 
2020 2020 2020 2020 2020 2020 2020 2020 2020 
2020 2020 2020 2020 2020 2020 2020 2020 2020 
2020 2020 2020 2020 2020 2020 2020 2020 2020 
2020 2020 2020 2020 2020 2020 2020 2020 2020 
2020 2020 2020 2020 2020 2020 2020 2020 2020 
2020 2020 2020 2020 2020 2020 2020 2020 2020 
2020 2020 2020 2020 2020 2020 2020 2020 2020 
2020 2020 2020 2020 2020 2020 2020 2020 2020 
2020 2020 2020 2020 2020 2020 2020 2020 2020 
2020 2020 2020 2020 2020 2020 2020 2020 2020 
2020 2020 2020 2020 2020 2020 2020 2020 2020 
2020 2020 2020 2020 2020 2020 2020 2020 2020 
2020 2020 2020 2020 2020 2020 2020 2020 2020 
2020 2020 2020 2020 2020 2020 2020 2020 2020 
2020 2020 2020 2020 2020 2020 2020 2020 2020 
2020 2020 2020 2020 2020 2020 2020 2020 2020 
2020 2020 2020 2020 2020 2020 2020 2020 2020 
2020 2020 2020 2020 2020 2020 2020 2020 2020 
2020 2020 2020 2020 2020 2020 2020 2020 2020 
2020 2020 2020 2020 2020 2020 2020 2020 2020 
2020 2020 2020 2020 2020 2020 2020 2020 2020 
2020 2020 2020 2020 2020 2020 2020 2020 2020 
2020 2020 2020 2020 2020 2020 2020 2020 2020 
2020 2020 2020 2020 2020 2020 2020 2020 2020 
2020 2020 2020 2020 2020 2020 2020 2020 2020 
2020 2020 2020 2020 2020 2020 2020 2020 2020 
2020 2020 2020 2020 2020 2020 2020 2020 2020 
2020 2020 2020 2020 2020 2020 2020 2020 2020 
2020 2020 2020 2020 2020 2020 2020 2020 2020 
2020 2020 2020 2020 2020 2020 2020 2020 2020 
2020 2020 2020 2020 2020 2020 2020 2020 2020 
2020 2020 2020 2020 2020 2020 2020 2020 2020 
2020 2020 2020 2020 2020 2020 2020 2020 2020 
2020 2020 2020 2020 2020 2020 2020 2020 2020 
2020 2020 2020 2020 2020 2020 2020 2020 2020 
2020 2020 2020 2020 2020 2020 2020 2020 2020 
2020 2020 2020 2020 2020 2020 2020 2020 2020 
2020 2020 2020 2020 2020 2020 2020 2020 2020 
2020 2020 2020 2020 2020 2020 2020 2020 2020 
2020 2020 2020 2020 2020 2020 2020 2020 2020 
2020 2020 2020 2020 2020 2020 2020 2020 2020 
2020 2020 2020 2020 2020 2020 2020 2020 2020 
2020 2020 2020 2020 2020 2020 2020 2020 2020 
2020 2020 2020 2020 2020 2020 2020 2020 2020 
2020 2020 2020 2020 2020 2020 2020 2020 2020 
2020 2020 2020 2020 2020 2020 2020 2020 2020 
2020 2020 2020 2020 2020 2020 2020 2020 2020 
2020 2020 2020 2020 2020 2020 2020 2020 2020 
2020 2020 2020 2020 2020 2020 2020 2020 2020 
2020 2020 2020 2020 2020 2020 2020 2020 2020 
2020 2020 2020 2020 2020 2020 2020 2020 2020 
2020 2020 2020 2020 2020 2020 2020 2020 2020 
2020 2020 2020 2020 2020 2020 2020 2020 2020 
2020 2020 2020 2020 2020 2020 2020 2020 2020 
2020 2020 2020 2020 2020 2020 2020 2020 2020 
2020 2020 2020 2020 2020 2020 2020 2020 2020 
2020 2020 2020 2020 2020 2020 2020 2020 2020 
2020 2020 2020 2020 2020 2020 2020 2020 2020 
2020 2020 2020 2020 2020 2020 2020 2020 2020 
2020 2020 2020 2020 2020 2020 2020 2020 2020 
2020 2020 2020 2020 2020 2020 2020 2020 2020 
2020 2020 2020 2020 2020 2020 2020 2020 2020 
2020 2020 2020 2020 2020 2020 2020 2020 2020 
2020 2020 2020 2020 2020 2020 2020 2020 2020 
2020 2020 2020 2020 2020 2020 2020 2020 2020 
2020 2020 2020 2020 2020 2020 2020 2020 2020 
2020 2020 2020 2020 2020 2020 2020 2020 2020 
2020 2020 2020 2020 2020 2020 2020 2020 2020 
2020 2020 2020 2020 2020 2020 2020 2020 2020 
2020 2020 2020 2020 2020 2020 2020 2020 2020 
2020 2020 2020 2020 2020 2020 2020 2020 2020 
2020 2020 2020 2020 2020 2020 2020 2020 2020 
2020 2020 2020 2020 2020 2020 2020 2020 2020 
2020 2020 2020 2020 2020 2020 2020 2020 2020 
2020 2020 2020 2020 2020 2020 2020 2020 2020 
2020 2020 2020 2020 2020 2020 2020 2020 2020 
2020 2020 2020 2020 2020 2020 2020 2020 2020 
2020 2020 2020 2020 2020 2020 2020 2020 2020 
2020 2020 2020 2020 2020 2020 2020 2020 2020 
2020 2020 2020 2020 2020 2020 2020 2020 2020 
2020 2020 2020 2020 2020 2020 2020 2020 2020 
2020 2020 2020 2020 2020 2020 2020 2020 2020 
2020 2020 2020 2020 2020 2020 2020 2020 2020 
2020 2020 2020 2020 2020 2020 2020 2020 2020 
2020 2020 2020 2020 2020 2020 2020 2020 2020 
2020 2020 2020 2020 2020 2020 2020 2020 2020 
2020 2020 2020 2020 2020 2020 2020 2020 2020 
2020 2020 2020 2020 2020 2020 2020 2020 2020 
2020 2020 2020 2020 2020 2020 2020 2020 2020 
2020 2020 2020 2020 2020 2020 2020 2020 2020 
2020 2020 2020 2020 2020 2020 2020 2020 2020 
2020 2020 2020 2020 2020 2020 2020 2020 2020 
2020 2020 2020 2020 2020 2020 2020 2020 2020 
2020 2020 2020 2020 2020 2020 2020 2020 2020 
2020 2020 2020 2020 2020 2020 2020 2020 2020 
2020 2020 2020 2020 2020 2020 2020 2020 2020 
2020 2020 2020 2020 2020 2020 2020 2020 2020 
2020 2020 2020 2020 2020 2020 2020 2020 2020 
2020 2020 2020 2020 2020 2020 2020 2020 2020 
2020 2020 2020 2020 2020 2020 2020 2020 2020 
2020 2020 2020 2020 2020 2020 2020 2020 2020 
2020 2020 2020 2020 2020 2020 2020 2020 2020 
2020 2020 2020 2020 2020 2020 2020 2020 2020 
2020 2020 2020 2020 2020 2020 2020 2020 2020 
2020 2020 2020 2020 2020 2020 2020 2020 2020 
2020 2020 2020 2020 2020 2020 2020 2020 2020 
2020 2020 2020 2020 2020 2020 2020 2020 2020 
2020 2020 2020 2020 2020 2020 2020 2020 2020 
2020 2020 2020 2020 2020 2020 2020 2020 2020 
2020 2020 2020 2020 2020 2020 2020 2020 2020 