# vtk DataFile Version 4.2
vtk output
ASCII
DATASET POLYDATA
POINTS 15966 float
19.3537 -42.9304 16.0108 19.4485 -42.7654 15.9287 19.5184 -42.9265 15.9856 
19.1979 -42.8558 15.7342 19.9935 -43.4864 16.0109 20.1004 -43.27 15.8423 
20.1292 -43.6555 15.8274 19.3895 -43.132 15.8417 19.7559 -43.53 15.7985 
19.9353 -43.7497 15.8731 22.7898 -38.7973 15.5267 23.0775 -38.4752 15.3077 
23.2751 -38.8982 15.3547 22.3719 -38.8176 15.4925 22.6009 -38.4042 15.3444 
22.1882 -38.6036 15.2971 22.9158 -39.2948 15.5374 23.2763 -39.2786 15.3626 
22.435 -39.2936 15.5639 22.0657 -39.1276 15.343 23.0829 -39.64 15.3008 
22.715 -39.9517 15.3403 22.5549 -39.7641 15.4877 22.1236 -39.708 15.3394 
22.4558 -40.0942 15.2064 19.8376 -41.2129 15.5381 20.0011 -40.8797 15.2962 
20.316 -41.1752 15.3622 19.3414 -41.1959 15.4937 19.5243 -40.8087 15.3428 
19.1731 -40.9505 15.1772 20.394 -41.6454 15.5176 20.6917 -41.432 15.2694 
20.8755 -41.8875 15.313 19.8802 -41.7494 15.6428 19.4251 -41.6867 15.5786 
19.1987 -41.6405 15.1817 20.5211 -42.2868 15.5573 20.9107 -42.4479 15.3364 
20.0853 -42.1593 15.655 19.5186 -42.3263 15.7115 19.1424 -42.3011 15.4205 
20.5047 -42.8905 15.5474 20.8576 -42.8247 15.3303 19.8428 -42.8723 15.7931 
19.0476 -42.8521 15.2421 20.7563 -43.1404 15.2161 20.3957 -43.5329 15.351 
19.4631 -43.4293 15.6552 19.1499 -43.4095 15.2878 19.9959 -44.1484 15.6457 
20.2217 -44.13 15.4507 19.6864 -44.063 15.5186 19.3709 -43.844 15.3402 
20.0547 -44.5737 15.449 20.1894 -44.6707 15.143 19.7461 -44.5594 15.3373 
19.8499 -44.8777 15.1629 29.415 -33.9703 14.9236 29.6547 -33.6648 14.7115 
29.8713 -34.0601 14.7433 29.0038 -34.0096 14.8856 29.0804 -33.5791 14.6281 
28.715 -33.8897 14.6266 29.5399 -34.477 14.9669 29.9256 -34.6201 14.7289 
28.9811 -34.4973 14.9744 28.6619 -34.2896 14.7276 29.5462 -35.069 14.9539 
29.9129 -35.2252 14.7214 29.0223 -35.0629 15.0376 28.4711 -34.6735 14.7861 
28.3512 -35.0943 14.9604 27.6842 -35.2693 14.8846 27.9981 -34.8387 14.7072 
27.5484 -35.0191 14.6549 29.5239 -35.6878 14.9523 29.9093 -35.8496 14.7338 
29.0102 -35.671 15.0355 28.4074 -35.6837 15.0349 27.7828 -35.711 15.0143 
27.2814 -35.3784 14.7412 27.1584 -35.7771 14.9025 26.9437 -35.6088 14.6631 
25.9023 -35.9 14.8753 26.0837 -35.5375 14.6576 26.3294 -35.7933 14.7547 
25.7342 -35.5856 14.6674 29.523 -36.3135 14.9595 29.914 -36.4613 14.747 
28.9836 -36.3012 15.0438 28.3814 -36.309 15.0415 27.7854 -36.3034 15.0326 
27.179 -36.3024 15.0237 26.6836 -35.8483 14.7514 26.4755 -36.2227 14.9678 
25.8481 -36.4101 15.03 25.4708 -35.9203 14.757 25.4426 -36.3314 14.8992 
25.1706 -36.2249 14.6722 29.6042 -36.7779 14.8996 29.8536 -36.85 14.7446 
29.0463 -36.9158 14.9796 28.3827 -36.9204 15.044 27.7712 -36.9297 15.0329 
27.1628 -36.9322 15.0361 26.5544 -36.9171 15.0477 25.9591 -36.9252 15.0455 
25.4403 -36.9009 14.9487 25.0571 -36.728 14.706 29.5757 -37.1521 14.666 
28.9561 -37.3328 14.7934 28.722 -37.5695 14.6383 28.4931 -37.3678 14.9096 
27.9227 -37.4247 14.9417 27.2366 -37.5226 14.9601 26.5668 -37.5321 15.0335 
26.0638 -37.4561 15.0403 25.5599 -37.5594 14.9187 25.0866 -37.3078 14.7102 
22.8896 -37.6184 14.9288 23.0385 -37.2799 14.6836 23.3381 -37.566 14.7565 
22.2696 -37.6365 14.9081 22.5721 -37.2409 14.7241 22.1346 -37.3826 14.6952 
28.2506 -37.6946 14.5819 27.6679 -37.7061 14.7299 27.2072 -37.8962 14.7017 
26.8342 -38.2282 14.6898 26.6745 -37.9848 14.9067 26.0556 -38.01 14.9263 
25.6003 -38.0572 14.7671 25.2548 -37.7803 14.6806 23.4534 -37.9658 14.9024 
23.7285 -37.7871 14.611 23.7909 -38.2353 14.7221 23.0195 -38.121 15.1202 
22.3616 -38.1022 15.1136 21.7671 -37.7087 14.6276 21.743 -38.1596 14.9141 
21.4447 -38.0608 14.6056 26.3799 -38.4002 14.7304 25.8993 -38.3583 14.6965 
23.5394 -38.5262 15.038 23.8603 -38.7037 14.6356 21.7813 -38.7429 15.1071 
21.161 -38.3288 14.5855 21.1678 -38.755 14.91 20.8485 -38.6416 14.6193 
23.5779 -39.1757 15.0444 23.7786 -39.167 14.5567 21.692 -39.4574 15.1146 
21.174 -39.3027 15.0106 20.6932 -38.9387 14.755 20.5641 -39.356 14.904 
20.3507 -39.1884 14.6824 23.4702 -39.5916 14.8531 23.0004 -39.9568 15.052 
23.286 -39.9305 14.5245 21.803 -40.1009 15.077 21.1715 -39.9126 14.9967 
20.5547 -39.8924 14.9886 20.0855 -39.5362 14.7474 19.9185 -39.9602 14.9054 
19.7137 -39.7882 14.6823 22.8553 -40.2623 14.8452 22.3002 -40.4898 14.9406 
22.7272 -40.5108 14.7352 21.6851 -40.6277 14.9945 21.1737 -40.5155 14.9962 
20.6507 -40.3854 14.9961 20.0084 -40.4859 15.0885 19.4337 -40.1409 14.7732 
19.417 -40.4717 15.0347 19.112 -40.5843 14.7002 22.4867 -40.8084 14.64 
22.0514 -41.2061 14.6657 21.8123 -41.0365 14.8887 21.2688 -40.9936 14.9958 
20.6098 -40.963 15.098 19.1471 -41.2607 14.7113 21.6772 -41.4643 14.7655 
21.5325 -41.9064 14.7281 21.1903 -41.5199 15.0104 19.3907 -41.5822 14.8598 
19.4801 -41.666 14.7131 19.4121 -41.5117 14.706 21.2065 -42.1636 15.0248 
21.4998 -42.4864 14.6123 19.3464 -41.8272 14.8101 19.0913 -42.3462 14.7951 
21.1363 -42.772 15.025 21.3674 -43.0388 14.5543 19.0537 -43.0439 14.8142 
21.0343 -43.2535 14.8344 20.7002 -43.4558 14.9689 20.8873 -43.5112 14.7227 
19.0617 -43.4246 14.6089 20.7057 -43.7457 14.6953 20.4064 -44.2397 14.7751 
19.3715 -44.3399 15.0738 19.0529 -43.9448 14.7007 20.2525 -44.8681 14.6184 
19.4772 -44.7476 15.0149 19.0972 -44.5504 14.7225 19.9173 -45.0555 14.8272 
19.4166 -44.957 14.7893 30.017 -32.758 14.3252 30.1713 -32.4339 14.1466 
30.4506 -32.7779 14.098 29.4814 -32.8462 14.3191 29.7929 -32.4228 14.1438 
29.3389 -32.5924 14.0931 30.2096 -33.1825 14.3452 30.5235 -33.4458 14.1259 
29.6716 -33.2654 14.5115 28.9539 -32.9148 14.0316 29.135 -33.1981 14.3855 
28.6952 -33.2882 14.1289 30.1211 -33.7102 14.4413 30.4996 -34.0508 14.1119 
28.2937 -34.0916 14.366 28.5192 -33.6345 14.2636 28.1528 -33.7931 14.0522 
30.2079 -34.3235 14.4196 30.4927 -34.646 14.1015 28.2579 -34.4981 14.5588 
27.8669 -34.0955 14.1242 27.704 -34.5473 14.3905 27.0454 -34.5888 14.3169 
27.3826 -34.1838 14.1079 26.4532 -34.58 14.3241 26.7657 -34.1866 14.1196 
25.8922 -34.6448 14.3016 26.0706 -34.1776 14.0139 25.666 -34.4369 14.0553 
30.2078 -34.9211 14.4122 30.4914 -35.2443 14.111 27.1183 -35.1268 14.4997 
26.6725 -34.9984 14.4104 26.0248 -35.1669 14.4728 25.4543 -34.6888 14.1766 
25.3461 -35.0943 14.3606 24.7015 -35.245 14.3056 24.8776 -34.8049 14.007 
24.4663 -35.06 14.0527 30.2067 -35.5292 14.4217 30.5096 -35.8508 14.1102 
26.5424 -35.4917 14.5479 25.3266 -35.6981 14.5292 24.7899 -35.6971 14.4259 
24.2415 -35.2963 14.1905 24.1409 -35.706 14.3601 23.6003 -35.8364 14.2721 
23.6636 -35.3907 14.0292 23.3103 -35.7019 14.0445 30.2195 -36.1574 14.4262 
30.517 -36.4757 14.0073 24.7683 -36.3661 14.4791 24.1951 -36.3016 14.4069 
23.5615 -36.3369 14.343 23.2468 -36.1141 14.1244 30.1311 -36.7817 14.43 
30.3714 -36.9174 13.9805 24.6757 -37.0645 14.4895 24.1679 -36.9007 14.4067 
23.6682 -36.7912 14.4053 23.0439 -36.5022 14.1707 22.9881 -36.8982 14.4202 
22.2193 -37.0012 14.4312 22.5281 -36.6005 14.1277 21.7744 -37.0258 14.2846 
21.8318 -36.5903 13.9928 21.4886 -36.8957 14.0148 30.0466 -37.2106 14.2001 
29.6554 -37.4711 14.3403 29.8841 -37.6333 13.9333 29.1878 -37.5294 14.4891 
24.8745 -37.6377 14.5027 24.244 -37.5952 14.36 23.5577 -37.28 14.5126 
21.8744 -37.3335 14.4851 21.4974 -37.3602 14.1915 29.4339 -37.7824 14.142 
28.8295 -37.8204 14.2221 28.2897 -37.8907 14.119 27.7385 -37.9073 14.3299 
27.2052 -38.2046 14.4397 27.5403 -38.3019 14.0135 25.3987 -38.196 14.536 
24.8488 -38.1407 14.3214 24.4981 -38.0828 14.0263 24.1562 -37.8046 13.9415 
23.9239 -38.0505 14.2213 21.204 -38.1114 14.3887 21.3161 -37.8448 14.2654 
20.9805 -38.0639 14.137 27.2091 -38.5699 14.267 27.3642 -38.7039 13.9582 
26.761 -38.6207 14.4374 26.047 -38.6696 14.4407 25.4106 -38.643 14.3085 
24.9864 -38.7478 14.0261 24.7333 -38.4396 14.0248 23.8452 -38.6891 14.031 
20.3976 -38.7956 14.4403 20.6866 -38.3812 14.2448 19.8652 -38.8573 14.2646 
20.2021 -38.4218 14.0873 19.7556 -38.5854 14.0515 27.0194 -38.8967 14.0574 
26.5106 -38.9467 14.1447 25.9311 -39.0432 14.0731 25.3722 -39.027 14.0537 
23.6779 -39.1235 14.1629 23.5849 -39.4314 14.4625 23.4416 -39.4038 14.082 
19.8966 -39.3296 14.515 19.4676 -38.941 14.1393 19.3229 -39.3834 14.3167 
19.1127 -39.2105 14.0919 23.3073 -39.8144 14.0062 19.2903 -39.933 14.5353 
18.8523 -39.5711 14.1627 18.8354 -39.9559 14.301 18.5576 -39.7929 13.9845 
22.9851 -40.4702 14.5041 23.205 -40.3675 14.0246 18.8536 -40.4827 14.3348 
18.5579 -40.4142 13.9779 22.8647 -40.8089 14.217 22.4084 -41.1945 14.4193 
22.7095 -41.1999 14.0425 18.8895 -41.1471 14.0743 18.6992 -40.8728 14.007 
22.3289 -41.6651 14.3038 22.5788 -41.631 13.9275 21.9463 -41.6027 14.5504 
19.1802 -41.7339 14.5327 18.8694 -41.4904 14.2172 18.7623 -41.8514 14.2433 
18.644 -41.8346 14.0437 22.3002 -42.0235 14.1324 22.0489 -42.3168 13.9503 
21.8993 -42.1297 14.39 18.8688 -42.2647 14.31 18.6375 -42.1585 14.1079 
21.7468 -42.5223 14.1747 21.5693 -42.8449 14.1203 19.0123 -42.8564 14.1853 
18.8 -42.4622 13.9939 21.1302 -43.4836 14.4982 21.4057 -43.3792 14.0134 
19.0115 -43.4977 14.027 21.0397 -43.8181 14.1974 20.6846 -44.074 14.3705 
20.8584 -44.1363 13.9151 18.8129 -43.8861 14.1515 18.7393 -44.2858 14.3624 
18.5926 -44.0858 13.9768 20.5611 -44.3206 14.1678 20.3908 -44.6385 14.1334 
18.8419 -44.8941 14.4383 18.4212 -44.6063 13.9569 19.9384 -45.3444 14.4425 
20.1895 -45.1248 14.0508 19.3972 -45.2796 14.5433 18.9365 -45.4797 14.3146 
18.5647 -45.2786 14.0364 19.859 -45.5741 14.0166 19.5594 -45.9097 14.0327 
19.4722 -45.7504 14.2974 19.1428 -45.8724 14.1832 18.8939 -45.7585 13.9099 
19.3944 -46.0189 14.1504 30.1688 -32.1844 13.8451 30.166 -31.8301 13.5326 
30.5082 -32.0551 13.5116 29.4427 -32.1798 13.8386 29.7344 -31.7705 13.5331 
28.9691 -32.2307 13.6848 29.0275 -31.7778 13.4149 28.6774 -32.1114 13.4374 
30.7079 -32.551 13.7394 30.8489 -32.3367 13.4061 30.9933 -32.7583 13.4417 
29.0688 -32.5437 13.8846 28.6733 -32.5756 13.5943 30.8151 -33.133 13.8186 
31.1075 -33.3761 13.4581 28.1939 -33.3995 13.8391 28.3713 -32.9993 13.5821 
27.6704 -33.4396 13.687 27.8347 -33.1202 13.4293 27.4505 -33.239 13.4263 
[...]
CELL_DATA 31956
SCALARS scalars float
LOOKUP_TABLE default
2030 2030 2030 2030 2030 2030 2030 2030 2030 
2030 2030 2030 2030 2030 2030 2030 2030 2030 
2030 2030 2030 2030 2030 2030 2030 2030 2030 
2030 2030 2030 2030 2030 2030 2030 2030 2030 
2030 2030 2030 2030 2030 2030 2030 2030 2030 
2030 2030 2030 2030 2030 2030 2030 2030 2030 
2030 2030 2030 2030 2030 2030 2030 2030 2030 
2030 2030 2030 2030 2030 2030 2030 2030 2030 
2030 2030 2030 2030 2030 2030 2030 2030 2030 
2030 2030 2030 2030 2030 2030 2030 2030 2030 
2030 2030 2030 2030 2030 2030 2030 2030 2030 
2030 2030 2030 2030 2030 2030 2030 2030 2030 
2030 2030 2030 2030 2030 2030 2030 2030 2030 
2030 2030 2030 2030 2030 2030 2030 2030 2030 
2030 2030 2030 2030 2030 2030 2030 2030 2030 
2030 2030 2030 2030 2030 2030 2030 2030 2030 
2030 2030 2030 2030 2030 2030 2030 2030 2030 
2030 2030 2030 2030 2030 2030 2030 2030 2030 
2030 2030 2030 2030 2030 2030 2030 2030 2030 
2030 2030 2030 2030 2030 2030 2030 2030 2030 
2030 2030 2030 2030 2030 2030 2030 2030 2030 
2030 2030 2030 2030 2030 2030 2030 2030 2030 
2030 2030 2030 2030 2030 2030 2030 2030 2030 
2030 2030 2030 2030 2030 2030 2030 2030 2030 
2030 2030 2030 2030 2030 2030 2030 2030 2030 
2030 2030 2030 2030 2030 2030 2030 2030 2030 
2030 2030 2030 2030 2030 2030 2030 2030 2030 
2030 2030 2030 2030 2030 2030 2030 2030 2030 
2030 2030 2030 2030 2030 2030 2030 2030 2030 
2030 2030 2030 2030 2030 2030 2030 2030 2030 
2030 2030 2030 2030 2030 2030 2030 2030 2030 
2030 2030 2030 2030 2030 2030 2030 2030 2030 
2030 2030 2030 2030 2030 2030 2030 2030 2030 
2030 2030 2030 2030 2030 2030 2030 2030 2030 
2030 2030 2030 2030 2030 2030 2030 2030 2030 
2030 2030 2030 2030 2030 2030 2030 2030 2030 
2030 2030 2030 2030 2030 2030 2030 2030 2030 
2030 2030 2030 2030 2030 2030 2030 2030 2030 
2030 2030 2030 2030 2030 2030 2030 2030 2030 
2030 2030 2030 2030 2030 2030 2030 2030 2030 
2030 2030 2030 2030 2030 2030 2030 2030 2030 
2030 2030 2030 2030 2030 2030 2030 2030 2030 
2030 2030 2030 2030 2030 2030 2030 2030 2030 
2030 2030 2030 2030 2030 2030 2030 2030 2030 
2030 2030 2030 2030 2030 2030 2030 2030 2030 
2030 2030 2030 2030 2030 2030 2030 2030 2030 
2030 2030 2030 2030 2030 2030 2030 2030 2030 
2030 2030 2030 2030 2030 2030 2030 2030 2030 
2030 2030 2030 2030 2030 2030 2030 2030 2030 
2030 2030 2030 2030 2030 2030 2030 2030 2030 
2030 2030 2030 2030 2030 2030 2030 2030 2030 
2030 2030 2030 2030 2030 2030 2030 2030 2030 
2030 2030 2030 2030 2030 2030 2030 2030 2030 
2030 2030 2030 2030 2030 2030 2030 2030 2030 
2030 2030 2030 2030 2030 2030 2030 2030 2030 
2030 2030 2030 2030 2030 2030 2030 2030 2030 
2030 2030 2030 2030 2030 2030 2030 2030 2030 
2030 2030 2030 2030 2030 2030 2030 2030 2030 
2030 2030 2030 2030 2030 2030 2030 2030 2030 
2030 2030 2030 2030 2030 2030 2030 2030 2030 
2030 2030 2030 2030 2030 2030 2030 2030 2030 
2030 2030 2030 2030 2030 2030 2030 2030 2030 
2030 2030 2030 2030 2030 2030 2030 2030 2030 
2030 2030 2030 2030 2030 2030 2030 2030 2030 
2030 2030 2030 2030 2030 2030 2030 2030 2030 
2030 2030 2030 2030 2030 2030 2030 2030 2030 
2030 2030 2030 2030 2030 2030 2030 2030 2030 
2030 2030 2030 2030 2030 2030 2030 2030 2030 
2030 2030 2030 2030 2030 2030 2030 2030 2030 
2030 2030 2030 2030 2030 2030 2030 2030 2030 
2030 2030 2030 2030 2030 2030 2030 2030 2030 
2030 2030 2030 2030 2030 2030 2030 2030 2030 
2030 2030 2030 2030 2030 2030 2030 2030 2030 
2030 2030 2030 2030 2030 2030 2030 2030 2030 
2030 2030 2030 2030 2030 2030 2030 2030 2030 
2030 2030 2030 2030 2030 2030 2030 2030 2030 
2030 2030 2030 2030 2030 2030 2030 2030 2030 
2030 2030 2030 2030 2030 2030 2030 2030 2030 
2030 2030 2030 2030 2030 2030 2030 2030 2030 
2030 2030 2030 2030 2030 2030 2030 2030 2030 
2030 2030 2030 2030 2030 2030 2030 2030 2030 
2030 2030 2030 2030 2030 2030 2030 2030 2030 
2030 2030 2030 2030 2030 2030 2030 2030 2030 
2030 2030 2030 2030 2030 2030 2030 2030 2030 
2030 2030 2030 2030 2030 2030 2030 2030 2030 
2030 2030 2030 2030 2030 2030 2030 2030 2030 
2030 2030 2030 2030 2030 2030 2030 2030 2030 
2030 2030 2030 2030 2030 2030 2030 2030 2030 
2030 2030 2030 2030 2030 2030 2030 2030 2030 
2030 2030 2030 2030 2030 2030 2030 2030 2030 
2030 2030 2030 2030 2030 2030 2030 2030 2030 
2030 2030 2030 2030 2030 2030 2030 2030 2030 
2030 2030 2030 2030 2030 2030 2030 2030 2030 
2030 2030 2030 2030 2030 2030 2030 2030 2030 
2030 2030 2030 2030 2030 2030 2030 2030 2030 
2030 2030 2030 2030 2030 2030 2030 2030 2030 
2030 2030 2030 2030 2030 2030 2030 2030 2030 
2030 2030 2030 2030 2030 2030 2030 2030 2030 
2030 2030 2030 2030 2030 2030 2030 2030 2030 
2030 2030 2030 2030 2030 2030 2030 2030 2030 
2030 2030 2030 2030 2030 2030 2030 2030 2030 
2030 2030 2030 2030 2030 2030 2030 2030 2030 
2030 2030 2030 2030 2030 2030 2030 2030 2030 
2030 2030 2030 2030 2030 2030 2030 2030 2030 
2030 2030 2030 2030 2030 2030 2030 2030 2030 
2030 2030 2030 2030 2030 2030 2030 2030 2030 
2030 2030 2030 2030 2030 2030 2030 2030 2030 
2030 2030 2030 2030 2030 2030 2030 2030 2030 
2030 2030 2030 2030 2030 2030 2030 2030 2030 
2030 2030 2030 2030 2030 2030 2030 2030 2030 
2030 2030 2030 2030 2030 2030 2030 2030 2030 
2030 2030 2030 2030 2030 2030 2030 2030 2030 
2030 2030 2030 2030 2030 2030 2030 2030 2030 
2030 2030 2030 2030 2030 2030 2030 2030 2030 
2030 2030 2030 2030 2030 2030 2030 2030 2030 
2030 2030 2030 2030 2030 2030 2030 2030 2030 
2030 2030 2030 2030 2030 2030 2030 2030 2030 
2030 2030 2030 2030 2030 2030 2030 2030 2030 
2030 2030 2030 2030 2030 2030 2030 2030 2030 
2030 2030 2030 2030 2030 2030 2030 2030 2030 
2030 2030 2030 2030 2030 2030 2030 2030 2030 
2030 2030 2030 2030 2030 2030 2030 2030 2030 
2030 2030 2030 2030 2030 2030 2030 2030 2030 
2030 2030 2030 2030 2030 2030 2030 2030 2030 
2030 2030 2030 2030 2030 2030 2030 2030 2030 
2030 2030 2030 2030 2030 2030 2030 2030 2030 
2030 2030 2030 2030 2030 2030 2030 2030 2030 
2030 2030 2030 2030 2030 2030 2030 2030 2030 
2030 2030 2030 2030 2030 2030 2030 2030 2030 
2030 2030 2030 2030 2030 2030 2030 2030 2030 
2030 2030 2030 2030 2030 2030 2030 2030 2030 
2030 2030 2030 2030 2030 2030 2030 2030 2030 
2030 2030 2030 2030 2030 2030 2030 2030 2030 
2030 2030 2030 2030 2030 2030 2030 2030 2030 
2030 2030 2030 2030 2030 2030 2030 2030 2030 
2030 2030 2030 2030 2030 2030 2030 2030 2030 
2030 2030 2030 2030 2030 2030 2030 2030 2030 
2030 2030 2030 2030 2030 2030 2030 2030 2030 
2030 2030 2030 2030 2030 2030 2030 2030 2030 
2030 2030 2030 2030 2030 2030 2030 2030 2030 
2030 2030 2030 2030 2030 2030 2030 2030 2030 
2030 2030 2030 2030 2030 2030 2030 2030 2030 
2030 2030 2030 2030 2030 2030 2030 2030 2030 
2030 2030 2030 2030 2030 2030 2030 2030 2030 
2030 2030 2030 2030 2030 2030 2030 2030 2030 
2030 2030 2030 2030 2030 2030 2030 2030 2030 
2030 2030 2030 2030 2030 2030 2030 2030 2030 
2030 2030 2030 2030 2030 2030 2030 2030 2030 
2030 2030 2030 2030 2030 2030 2030 2030 2030 
2030 2030 2030 2030 2030 2030 2030 2030 2030 
2030 2030 2030 2030 2030 2030 2030 2030 2030 
2030 2030 2030 2030 2030 2030 2030 2030 2030 
2030 2030 2030 2030 2030 2030 2030 2030 2030 
2030 2030 2030 2030 2030 2030 2030 2030 2030 
2030 2030 2030 2030 2030 2030 2030 2030 2030 
2030 2030 2030 2030 2030 2030 2030 2030 2030 
2030 2030 2030 2030 2030 2030 2030 2030 2030 
2030 2030 2030 2030 2030 2030 2030 2030 2030 
2030 2030 2030 2030 2030 2030 2030 2030 2030 
2030 2030 2030 2030 2030 2030 2030 2030 2030 
2030 2030 2030 2030 2030 2030 2030 2030 2030 
2030 2030 2030 2030 2030 2030 2030 2030 2030 
2030 2030 2030 2030 2030 2030 2030 2030 2030 
2030 2030 2030 2030 2030 2030 2030 2030 2030 
2030 2030 2030 2030 2030 2030 2030 2030 2030 
2030 2030 2030 2030 2030 2030 2030 2030 2030 
2030 2030 2030 2030 2030 2030 2030 2030 2030 
2030 2030 2030 2030 2030 2030 2030 2030 2030 
2030 2030 2030 2030 2030 2030 2030 2030 2030 
2030 2030 2030 2030 2030 2030 2030 2030 2030 
2030 2030 2030 2030 2030 2030 2030 2030 2030 
2030 2030 2030 2030 2030 2030 2030 2030 2030 
2030 2030 2030 2030 2030 2030 2030 2030 2030 
2030 2030 2030 2030 2030 2030 2030 2030 2030 
2030 2030 2030 2030 2030 2030 2030 2030 2030 
2030 2030 2030 2030 2030 2030 2030 2030 2030 
2030 2030 2030 2030 2030 2030 2030 2030 2030 
2030 2030 2030 2030 2030 2030 2030 2030 2030 
2030 2030 2030 2030 2030 2030 2030 2030 2030 
2030 2030 2030 2030 2030 2030 2030 2030 2030 
2030 2030 2030 2030 2030 2030 2030 2030 2030 
2030 2030 2030 2030 2030 2030 2030 2030 2030 
2030 2030 2030 2030 2030 2030 2030 2030 2030 
2030 2030 2030 2030 2030 2030 2030 2030 2030 
2030 2030 2030 2030 2030 2030 2030 2030 2030 
2030 2030 2030 2030 2030 2030 2030 2030 2030 
2030 2030 2030 2030 2030 2030 2030 2030 2030 
2030 2030 2030 2030 2030 2030 2030 2030 2030 
2030 2030 2030 2030 2030 2030 2030 2030 2030 
2030 2030 2030 2030 2030 2030 2030 2030 2030 
2030 2030 2030 2030 2030 2030 2030 2030 2030 
2030 2030 2030 2030 2030 2030 2030 2030 2030 
2030 2030 2030 2030 2030 2030 2030 2030 2030 
2030 2030 2030 2030 2030 2030 2030 2030 2030 
2030 2030 2030 2030 2030 2030 2030 2030 2030 
2030 2030 2030 2030 2030 2030 2030 2030 2030 
2030 2030 2030 2030 2030 2030 2030 2030 2030 
2030 2030 2030 2030 2030 2030 2030 2030 2030 
2030 2030 2030 2030 2030 2030 2030 2030 2030 
2030 2030 2030 2030 2030 2030 2030 2030 2030 
2030 2030 2030 2030 2030 2030 2030 2030 2030 
2030 2030 2030 2030 2030 2030 2030 2030 2030 
2030 2030 2030 2030 2030 2030 2030 2030 2030 
2030 2030 2030 2030 2030 2030 2030 2030 2030 
2030 2030 2030 2030 2030 2030 2030 2030 2030 
2030 2030 2030 2030 2030 2030 2030 2030 2030 
2030 2030 2030 2030 2030 2030 2030 2030 2030 
2030 2030 2030 2030 2030 2030 2030 2030 2030 
2030 2030 2030 2030 2030 2030 2030 2030 2030 
2030 2030 2030 2030 2030 2030 2030 2030 2030 
2030 2030 2030 2030 2030 2030 2030 2030 2030 
2030 2030 2030 2030 2030 2030 2030 2030 2030 
2030 2030 2030 2030 2030 2030 2030 2030 2030 
2030 2030 2030 2030 2030 2030 2030 2030 2030 
2030 2030 2030 2030 2030 2030 2030 2030 2030 
2030 2030 2030 2030 2030 2030 2030 2030 2030 
2030 2030 2030 2030 2030 2030 2030 2030 2030 
2030 2030 2030 2030 2030 2030 2030 2030 2030 
2030 2030 2030 2030 2030 2030 2030 2030 2030 
2030 2030 2030 2030 2030 2030 2030 2030 2030 
2030 2030 2030 2030 2030 2030 2030 2030 2030 
2030 2030 2030 2030 2030 2030 2030 2030 2030 
2030 2030 2030 2030 2030 2030 2030 2030 2030 
2030 2030 2030 2030 2030 2030 2030 2030 2030 
2030 2030 2030 2030 2030 2030 2030 2030 2030 
2030 2030 2030 2030 2030 2030 2030 2030 2030 
2030 2030 2030 2030 2030 2030 2030 2030 2030 
2030 2030 2030 2030 2030 2030 2030 2030 2030 
2030 2030 2030 2030 2030 2030 2030 2030 2030 
2030 2030 2030 2030 2030 2030 2030 2030 2030 
2030 2030 2030 2030 2030 2030 2030 2030 2030 
2030 2030 2030 2030 2030 2030 2030 2030 2030 
2030 2030 2030 2030 2030 2030 2030 2030 2030 
2030 2030 2030 2030 2030 2030 2030 2030 2030 
2030 2030 2030 2030 2030 2030 2030 2030 2030 
2030 2030 2030 2030 2030 2030 2030 2030 2030 
2030 2030 2030 2030 2030 2030 2030 2030 2030 
2030 2030 2030 2030 2030 2030 2030 2030 2030 
2030 2030 2030 2030 2030 2030 2030 2030 2030 
2030 2030 2030 2030 2030 2030 2030 2030 2030 
2030 2030 2030 2030 2030 2030 2030 2030 2030 
2030 2030 2030 2030 2030 2030 2030 2030 2030 
2030 2030 2030 2030 2030 2030 2030 2030 2030 
2030 2030 2030 2030 2030 2030 2030 2030 2030 
2030 2030 2030 2030 2030 2030 2030 2030 2030 
2030 2030 2030 2030 2030 2030 2030 2030 2030 
2030 2030 2030 2030 2030 2030 2030 2030 2030 
2030 2030 2030 2030 2030 2030 2030 2030 2030 
2030 2030 2030 2030 2030 2030 2030 2030 2030 
2030 2030 2030 2030 2030 2030 2030 2030 2030 
2030 2030 2030 2030 2030 2030 2030 2030 2030 
2030 2030 2030 2030 2030 2030 2030 2030 2030 
2030 2030 2030 2030 2030 2030 2030 2030 2030 
2030 2030 2030 2030 2030 2030 2030 2030 2030 
2030 2030 2030 2030 2030 2030 2030 2030 2030 
2030 2030 2030 2030 2030 2030 2030 2030 2030 
2030 2030 2030 2030 2030 2030 2030 2030 2030 
2030 2030 2030 2030 2030 2030 2030 2030 2030 
2030 2030 2030 2030 2030 2030 2030 2030 2030 
2030 2030 2030 2030 2030 2030 2030 2030 2030 
2030 2030 2030 2030 2030 2030 2030 2030 2030 
2030 2030 2030 2030 2030 2030 2030 2030 2030 
2030 2030 2030 2030 2030 2030 2030 2030 2030 
2030 2030 2030 2030 2030 2030 2030 2030 2030 
2030 2030 2030 2030 2030 2030 2030 2030 2030 
2030 2030 2030 2030 2030 2030 2030 2030 2030 
2030 2030 2030 2030 2030 2030 2030 2030 2030 
2030 2030 2030 2030 2030 2030 2030 2030 2030 
2030 2030 2030 2030 2030 2030 2030 2030 2030 
2030 2030 2030 2030 2030 2030 2030 2030 2030 
2030 2030 2030 2030 2030 2030 2030 2030 2030 
2030 2030 2030 2030 2030 2030 2030 2030 2030 
2030 2030 2030 2030 2030 2030 2030 2030 2030 
2030 2030 2030 2030 2030 2030 2030 2030 2030 
2030 2030 2030 2030 2030 2030 2030 2030 2030 
2030 2030 2030 2030 2030 2030 2030 2030 2030 
2030 2030 2030 2030 2030 2030 2030 2030 2030 
2030 2030 2030 2030 2030 2030 2030 2030 2030 
2030 2030 2030 2030 2030 2030 2030 2030 2030 
2030 2030 2030 2030 2030 2030 2030 2030 2030 
2030 2030 2030 2030 2030 2030 2030 2030 2030 
2030 2030 2030 2030 2030 2030 2030 2030 2030 
2030 2030 2030 2030 2030 2030 2030 2030 2030 
2030 2030 2030 2030 2030 2030 2030 2030 2030 
2030 2030 2030 2030 2030 2030 2030 2030 2030 
2030 2030 2030 2030 2030 2030 2030 2030 2030 
2030 2030 2030 2030 2030 2030 2030 2030 2030 
2030 2030 2030 2030 2030 2030 2030 2030 2030 
2030 2030 2030 2030 2030 2030 2030 2030 2030 
2030 2030 2030 2030 2030 2030 2030 2030 2030 
2030 2030 2030 2030 2030 2030 2030 2030 2030 
2030 2030 2030 2030 2030 2030 2030 2030 2030 
2030 2030 2030 2030 2030 2030 2030 2030 2030 
2030 2030 2030 2030 2030 2030 2030 2030 2030 
2030 2030 2030 2030 2030 2030 2030 2030 2030 
2030 2030 2030 2030 2030 2030 2030 2030 2030 
2030 2030 2030 2030 2030 2030 2030 2030 2030 
2030 2030 2030 2030 2030 2030 2030 2030 2030 
2030 2030 2030 2030 2030 2030 2030 2030 2030 
2030 2030 2030 2030 2030 2030 2030 2030 2030 
2030 2030 2030 2030 2030 2030 2030 2030 2030 
2030 2030 2030 2030 2030 2030 2030 2030 2030 
2030 2030 2030 2030 2030 2030 2030 2030 2030 
2030 2030 2030 2030 2030 2030 2030 2030 2030 
2030 2030 2030 2030 2030 2030 2030 2030 2030 
2030 2030 2030 2030 2030 2030 2030 2030 2030 
2030 2030 2030 2030 2030 2030 2030 2030 2030 
2030 2030 2030 2030 2030 2030 2030 2030 2030 
2030 2030 2030 2030 2030 2030 2030 2030 2030 
2030 2030 2030 2030 2030 2030 2030 2030 2030 
2030 2030 2030 2030 2030 2030 2030 2030 2030 
2030 2030 2030 2030 2030 2030 2030 2030 2030 
2030 2030 2030 2030 2030 2030 2030 2030 2030 
2030 2030 2030 2030 2030 2030 2030 2030 2030 
2030 2030 2030 2030 2030 2030 2030 2030 2030 
2030 2030 2030 2030 2030 2030 2030 2030 2030 
2030 2030 2030 2030 2030 2030 2030 2030 2030 
2030 2030 2030 2030 2030 2030 2030 2030 2030 
2030 2030 2030 2030 2030 2030 2030 2030 2030 
2030 2030 2030 2030 2030 2030 2030 2030 2030 
2030 2030 2030 2030 2030 2030 2030 2030 2030 
2030 2030 2030 2030 2030 2030 2030 2030 2030 
2030 2030 2030 2030 2030 2030 2030 2030 2030 
2030 2030 2030 2030 2030 2030 2030 2030 2030 
2030 2030 2030 2030 2030 2030 2030 2030 2030 
2030 2030 2030 2030 2030 2030 2030 2030 2030 
2030 2030 2030 2030 2030 2030 2030 2030 2030 
2030 2030 2030 2030 2030 2030 2030 2030 2030 
2030 2030 2030 2030 2030 2030 2030 2030 2030 
2030 2030 2030 2030 2030 2030 2030 2030 2030 
2030 2030 2030 2030 2030 2030 2030 2030 2030 
2030 2030 2030 2030 2030 2030 2030 2030 2030 
2030 2030 2030 2030 2030 2030 2030 2030 2030 
2030 2030 2030 2030 2030 2030 2030 2030 2030 
2030 2030 2030 2030 2030 2030 2030 2030 2030 
2030 2030 2030 2030 2030 2030 2030 2030 2030 
2030 2030 2030 2030 2030 2030 2030 2030 2030 
2030 2030 2030 2030 2030 2030 2030 2030 2030 
2030 2030 2030 2030 2030 2030 2030 2030 2030 
2030 2030 2030 2030 2030 2030 2030 2030 2030 
2030 2030 2030 2030 2030 2030 2030 2030 2030 
2030 2030 2030 2030 2030 2030 2030 2030 2030 
2030 2030 2030 2030 2030 2030 2030 2030 2030 
2030 2030 2030 2030 2030 2030 2030 2030 2030 
2030 2030 2030 2030 2030 2030 2030 2030 2030 
2030 2030 2030 2030 2030 2030 2030 2030 2030 
2030 2030 2030 2030 2030 2030 2030 2030 2030 
2030 2030 2030 2030 2030 2030 2030 2030 2030 
2030 2030 2030 2030 2030 2030 2030 2030 2030 
2030 2030 2030 2030 2030 2030 2030 2030 2030 
2030 2030 2030 2030 2030 2030 2030 2030 2030 
2030 2030 2030 2030 2030 2030 2030 2030 2030 
2030 2030 2030 2030 2030 2030 2030 2030 2030 
2030 2030 2030 2030 2030 2030 2030 2030 2030 
2030 2030 2030 2030 2030 2030 2030 2030 2030 
2030 2030 2030 2030 2030 2030 2030 2030 2030 
2030 2030 2030 2030 2030 2030 2030 2030 2030 
2030 2030 2030 2030 2030 2030 2030 2030 2030 
2030 2030 2030 2030 2030 2030 2030 2030 2030 
2030 2030 2030 2030 2030 2030 2030 2030 2030 
2030 2030 2030 2030 2030 2030 2030 2030 2030 
2030 2030 2030 2030 2030 2030 2030 2030 2030 
2030 2030 2030 2030 2030 2030 2030 2030 2030 
2030 2030 2030 2030 2030 2030 2030 2030 2030 
2030 2030 2030 2030 2030 2030 2030 2030 2030 
2030 2030 2030 2030 2030 2030 2030 2030 2030 
2030 2030 2030 2030 2030 2030 2030 2030 2030 
2030 2030 2030 2030 2030 2030 2030 2030 2030 
2030 2030 2030 2030 2030 2030 2030 2030 2030 
2030 2030 2030 2030 2030 2030 2030 2030 2030 
2030 2030 2030 2030 2030 2030 2030 2030 2030 
2030 2030 2030 2030 2030 2030 2030 2030 2030 
2030 2030 2030 2030 2030 2030 2030 2030 2030 
2030 2030 2030 2030 2030 2030 2030 2030 2030 
2030 2030 2030 2030 2030 2030 2030 2030 2030 
2030 2030 2030 2030 2030 2030 2030 2030 2030 
2030 2030 2030 2030 2030 2030 2030 2030 2030 
2030 2030 2030 2030 2030 2030 2030 2030 2030 
2030 2030 2030 2030 2030 2030 2030 2030 2030 
2030 2030 2030 2030 2030 2030 2030 2030 2030 
2030 2030 2030 2030 2030 2030 2030 2030 2030 
2030 2030 2030 2030 2030 2030 2030 2030 2030 
2030 2030 2030 2030 2030 2030 2030 2030 2030 
2030 2030 2030 2030 2030 2030 2030 2030 2030 
2030 2030 2030 2030 2030 2030 2030 2030 2030 
2030 2030 2030 2030 2030 2030 2030 2030 2030 
2030 2030 2030 2030 2030 2030 2030 2030 2030 
2030 2030 2030 2030 2030 2030 2030 2030 2030 
2030 2030 2030 2030 2030 2030 2030 2030 2030 
2030 2030 2030 2030 2030 2030 2030 2030 2030 
2030 2030 2030 2030 2030 2030 2030 2030 2030 
2030 2030 2030 2030 2030 2030 2030 2030 2030 
2030 2030 2030 2030 2030 2030 2030 2030 2030 
2030 2030 2030 2030 2030 2030 2030 2030 2030 
2030 2030 2030 2030 2030 2030 2030 2030 2030 
2030 2030 2030 2030 2030 2030 2030 2030 2030 
2030 2030 2030 2030 2030 2030 2030 2030 2030 
2030 2030 2030 2030 2030 2030 2030 2030 2030 
2030 2030 2030 2030 2030 2030 2030 2030 2030 
2030 2030 2030 2030 2030 2030 2030 2030 2030 
2030 2030 2030 2030 2030 2030 2030 2030 2030 
2030 2030 2030 2030 2030 2030 2030 2030 2030 
2030 2030 2030 2030 2030 2030 2030 2030 2030 
2030 2030 2030 2030 2030 2030 2030 2030 2030 
2030 2030 2030 2030 2030 2030 2030 2030 2030 
2030 2030 2030 2030 2030 2030 2030 2030 2030 
2030 2030 2030 2030 2030 2030 2030 2030 2030 
2030 2030 2030 2030 2030 2030 2030 2030 2030 
2030 2030 2030 2030 2030 2030 2030 2030 2030 
2030 2030 2030 2030 2030 2030 2030 2030 2030 
2030 2030 2030 2030 2030 2030 2030 2030 2030 
2030 2030 2030 2030 2030 2030 2030 2030 2030 
2030 2030 2030 2030 2030 2030 2030 2030 2030 
2030 2030 2030 2030 2030 2030 2030 2030 2030 
2030 2030 2030 2030 2030 2030 2030 2030 2030 
2030 2030 2030 2030 2030 2030 2030 2030 2030 
2030 2030 2030 2030 2030 2030 2030 2030 2030 
2030 2030 2030 2030 2030 2030 2030 2030 2030 
2030 2030 2030 2030 2030 2030 2030 2030 2030 
2030 2030 2030 2030 2030 2030 2030 2030 2030 
2030 2030 2030 2030 2030 2030 2030 2030 2030 
2030 2030 2030 2030 2030 2030 2030 2030 2030 
2030 2030 2030 2030 2030 2030 2030 2030 2030 
2030 2030 2030 2030 2030 2030 2030 2030 2030 
2030 2030 2030 2030 2030 2030 2030 2030 2030 
2030 2030 2030 2030 2030 2030 2030 2030 2030 
2030 2030 2030 2030 2030 2030 2030 2030 2030 
2030 2030 2030 2030 2030 2030 2030 2030 2030 
2030 2030 2030 2030 2030 2030 2030 2030 2030 
2030 2030 2030 2030 2030 2030 2030 2030 2030 
2030 2030 2030 2030 2030 2030 2030 2030 2030 
2030 2030 2030 2030 2030 2030 2030 2030 2030 
2030 2030 2030 2030 2030 2030 2030 2030 2030 