# vtk DataFile Version 4.2
vtk output
ASCII
DATASET POLYDATA
POINTS 17734 float
-39.6765 19.7244 -32.4924 -39.5732 19.2483 -32.254 -39.3638 19.6108 -32.5004 
-40.1097 19.435 -32.4645 -39.5641 19.384 -32.7756 -35.7442 18.7882 -31.7693 
-35.6896 18.5434 -31.3513 -35.21 18.3235 -31.6649 -35.9375 18.3914 -31.5202 
-35.5733 18.7828 -32.3082 -35.355 18.2619 -32.7354 -36.0745 18.4167 -32.1894 
-38.9026 19.0768 -32.5139 -38.5851 18.379 -32.1954 -38.3457 18.4348 -32.6589 
-39.6301 18.2416 -31.9247 -40.5428 18.9806 -32.842 -40.644 18.6132 -32.2122 
-41.3191 18.3608 -32.5238 -35.7742 18.5109 -32.7959 -38.8807 18.7037 -33.0737 
-39.7225 18.8588 -33.3825 -39.2375 18.3841 -33.7211 -40.4802 18.7354 -33.5334 
-41.1969 18.4815 -33.1977 -40.0276 18.4354 -34 -40.8035 18.4104 -33.8604 
-41.8548 18.7559 -34.7985 -41.77 18.5605 -34.2951 -41.3728 18.5128 -34.783 
-42.0762 18.2914 -34.3493 -35.9604 18.9091 -35.6857 -35.6873 18.3154 -35.2737 
-35.3836 18.5771 -35.7645 -36.6519 18.818 -35.7877 -36.3701 18.3195 -35.0799 
-37.083 18.2003 -35.4067 -41.2788 18.3911 -35.6369 -41.7132 18.763 -35.3757 
-42.0797 18.4412 -35.2566 -35.6158 18.8913 -36.2935 -35.3589 18.2381 -36.4397 
-36.3119 18.9172 -36.4455 -37.1322 18.3244 -36.2352 -38.7383 18.6682 -36.6129 
-38.7148 18.5771 -36.3268 -38.3862 18.3429 -36.569 -39.0017 18.4757 -36.4604 
-41.6877 18.2452 -35.8711 -35.967 18.4401 -36.8956 -36.8668 18.3046 -36.9183 
-38.8519 18.1712 -36.9016 -34.861 17.8422 -30.7636 -34.7309 17.2224 -30.0943 
-34.2102 17.2943 -30.863 -35.2893 17.3964 -30.3989 -38.9707 17.8187 -30.6098 
-38.6035 17.3348 -30.2572 -38.4386 17.3295 -30.5973 -39.678 17.8169 -30.7533 
-39.2843 17.492 -30.3141 -39.8657 17.3947 -30.6965 -34.5872 17.8445 -31.2878 
-34.4225 17.2294 -31.5387 -35.5867 17.9272 -31.0148 -36.162 17.3867 -31.4808 
-38.9079 17.4892 -30.9778 -39.2394 17.5092 -31.4843 -39.6088 17.8732 -31.3465 
-40.2002 17.471 -31.2454 -34.7535 17.5733 -31.8321 -35.0585 17.4818 -32.4473 
-36.7743 17.4601 -32.1503 -36.6754 18.0319 -32.7852 -37.7819 18.0359 -32.6533 
-37.7503 17.4895 -32.1892 -38.8135 17.4761 -31.9065 -40.6877 17.6594 -31.8529 
-41.8143 17.8908 -32.8102 -41.5481 17.6952 -32.222 -42.0508 17.2074 -32.5225 
-35.9104 17.9947 -33.4503 -35.3179 17.3819 -33.4165 -36.807 17.9533 -33.6705 
-37.6254 17.9388 -33.5048 -38.5075 18.1117 -33.4668 -41.5706 18.2214 -33.81 
-42.1832 17.4424 -33.3985 -35.8652 17.5308 -34.1109 -36.1089 17.6205 -34.6076 
-36.6974 17.8903 -34.4623 -37.6965 17.8509 -34.4542 -38.675 17.9131 -34.5171 
-39.6295 18.0474 -34.5084 -40.6716 18.1998 -34.4462 -42.2814 17.529 -34.5369 
-35.6618 17.6237 -35.0177 -35.1696 17.7532 -35.7817 -37.6717 17.6315 -35.2132 
-37.4815 17.6597 -35.6866 -37.9608 17.4849 -35.7334 -38.6053 18.0168 -35.7462 
-39.5757 17.9454 -35.4305 -40.5083 18.0076 -35.5623 -42.0672 17.6149 -35.4991 
-35.2494 17.5056 -36.7106 -37.6432 17.5656 -35.971 -37.7652 17.9678 -36.4258 
-39.6209 17.9841 -36.3727 -40.1869 17.5669 -36.477 -40.7536 17.4877 -36.1634 
-41.4873 17.3179 -35.9546 -35.8715 17.4363 -37.1678 -36.6927 17.5084 -37.1783 
-37.8598 17.6588 -37.0501 -38.7044 17.4937 -37.1532 -39.4089 17.3534 -36.9128 
-32.6664 16.6783 -28.4522 -32.7061 16.2367 -28.242 -32.411 16.2962 -28.7221 
-33.0558 16.4429 -28.3871 -32.7827 16.5007 -28.7174 -33.913 16.3233 -29.1045 
-33.2514 16.4499 -29.6882 -33.8914 16.7582 -29.5012 -34.4333 16.9169 -29.6145 
-34.6308 16.3576 -29.1691 -35.2086 16.5003 -29.4869 -33.7812 16.9358 -30.1754 
-33.2127 16.4933 -30.4129 -35.7701 17.1259 -30.6356 -35.5475 16.7409 -30.0275 
-36.0441 16.3461 -30.4662 -38.8664 16.4384 -30.0087 -38.311 16.42 -30.4218 
-39.3093 16.9789 -30.7521 -39.2297 16.32 -30.4381 -40.7067 16.6313 -30.7686 
-40.4532 16.2104 -30.2859 -40.2538 16.4731 -30.549 -40.9798 16.2263 -30.5247 
-32.6012 16.6525 -31.618 -32.5376 16.3727 -31.203 -32.4005 16.2429 -31.4949 
-33.578 16.5347 -30.9218 -32.9747 16.293 -31.6569 -34.1944 16.5502 -31.5828 
-36.2917 16.2185 -31.4233 -38.7737 16.6213 -30.7656 -40.0473 16.7993 -30.9404 
-39.2569 16.5995 -31.4012 -40.7986 16.951 -31.4532 -41.2449 16.2297 -31.2973 
-32.6476 16.4538 -31.8006 -34.707 16.7721 -32.1176 -34.9375 16.6782 -32.8322 
-36.7857 16.4859 -31.9984 -37.6606 16.4652 -32.1229 -38.5523 16.4405 -31.9357 
-41.5949 16.7614 -32.0277 -42.1426 16.4133 -32.6456 -33.989 16.7296 -33.703 
-33.6552 16.2821 -33.0513 -33.326 16.3458 -33.5993 -34.8246 16.848 -33.6533 
-34.3682 16.4014 -33.0005 -42.2707 16.4489 -33.5461 -33.7519 16.8355 -34.5463 
-33.2888 16.3475 -34.484 -34.5141 16.95 -34.4005 -35.3663 17.1711 -34.4226 
-42.0849 16.6086 -34.6548 -33.7258 16.8617 -35.5606 -33.315 16.5051 -35.5767 
-34.6819 17.1179 -35.2642 -37.7363 17.2865 -35.5767 -41.8325 16.9271 -35.4792 
-41.3763 16.5348 -35.523 -41.7554 16.4785 -35.1082 -33.6882 16.7886 -36.5232 
-33.3689 16.4517 -36.3607 -34.6122 17.0993 -36.5116 -39.9242 17.0258 -36.5919 
-39.2942 16.5832 -36.7054 -39.6522 16.3212 -36.2875 -40.5995 16.4162 -35.9482 
-33.7097 16.5438 -37.0463 -34.2194 16.3988 -37.5237 -34.4181 16.7511 -37.3987 
-35.3644 16.9016 -37.504 -35.9766 16.5911 -37.6061 -36.3968 16.3919 -37.2755 
-37.3735 16.3787 -37.0276 -38.5269 16.6738 -36.958 -34.9164 16.4949 -37.857 
-35.5051 16.3721 -37.8498 -32.5792 15.2803 -28.051 -32.1133 15.4892 -28.6347 
-33.509 16.0894 -28.7646 -33.5459 15.6147 -28.1483 -34.2972 15.3432 -28.4066 
-32.7001 16.181 -29.3095 -32.2467 15.672 -29.5114 -34.6698 15.5879 -28.8077 
-35.8156 16.0488 -29.6373 -35.4729 15.679 -29.1675 -36.0192 15.3875 -29.6445 
-38.6174 15.8012 -29.4837 -38.7199 15.1928 -28.963 -38.2443 15.5703 -29.6347 
-39.1653 15.5008 -29.4857 -32.8319 16.1412 -30.563 -32.1702 15.6293 -30.6029 
-36.2773 15.4141 -30.507 -38.2228 15.2138 -30.4342 -39.5261 16.1142 -30.7489 
-39.8136 15.6743 -30.017 -40.7116 15.6675 -30.172 -41.0931 15.4713 -30.6463 
-32.2651 15.3623 -31.277 -33.67 16.129 -31.6295 -36.3818 15.5112 -31.3821 
-38.6878 15.6783 -30.9463 -39.0248 15.5011 -31.4941 -41.3966 15.2252 -31.2845 
-32.8817 15.6062 -31.9116 -33.6632 16.0011 -32.3807 -33.3245 15.5808 -32.696 
-34.4314 16.1852 -32.3069 -36.7624 15.5711 -31.9384 -37.6737 15.4635 -32.1517 
-38.583 15.4087 -32.0011 -41.857 15.4755 -31.9432 -42.2818 15.379 -32.7554 
-33.3049 15.6345 -33.4514 -42.0708 15.6401 -33.7237 -33.4904 15.655 -34.0818 
-33.5517 15.9262 -34.8647 -33.9048 15.2066 -34.2828 -41.6125 15.9575 -34.6833 
-41.2075 15.4289 -34.7186 -41.6807 15.1212 -34.081 -33.7507 15.9821 -35.8701 
-34.169 15.273 -35.2114 -40.9234 15.8915 -35.3333 -40.2769 15.6022 -35.6552 
-40.5095 15.1223 -35.1328 -33.8504 16.1862 -36.8476 -34.6661 15.2379 -35.9759 
-34.7059 15.7684 -36.7584 -35.2384 15.2417 -36.5212 -37.9843 15.8194 -36.5853 
-37.2356 15.5402 -36.655 -37.5917 15.3186 -36.229 -38.5657 15.4948 -36.0716 
-38.7858 16.061 -36.52 -39.6134 15.5747 -35.8901 -34.7648 16.1383 -37.5405 
-35.7548 15.5948 -36.9877 -35.6335 16.0596 -37.4663 -36.6015 15.5533 -36.8891 
-31.7607 14.9669 -28.3526 -31.8299 14.371 -28.1248 -31.3629 14.238 -28.7201 
-32.793 14.3831 -27.9343 -33.6756 14.5458 -27.9671 -34.9005 14.8556 -28.5375 
-34.4729 14.663 -28.1854 -35.1866 14.1069 -28.4983 -38.6488 14.7734 -28.4209 
-38.6917 14.1829 -28.1986 -38.2795 14.7268 -28.7478 -39.1606 14.5087 -28.4359 
-31.6592 14.6746 -28.8652 -31.8512 14.5187 -29.7831 -35.5584 14.7249 -28.9863 
-36.2229 14.364 -29.6194 -38.0667 14.5172 -29.5266 -39.8478 14.8906 -29.5995 
-39.4948 14.7375 -29.0581 -40.1398 14.0804 -29.3728 -31.8016 14.7803 -30.5574 
-31.6124 14.442 -30.2269 -31.515 14.4545 -30.4568 -36.5744 14.5723 -30.2221 
-36.6198 14.9429 -30.9126 -36.9072 14.2654 -30.5473 -38.3225 14.2492 -30.3101 
-40.64 14.6107 -30.05 -41.2984 14.4933 -30.6489 -31.7278 14.4406 -30.6752 
-32.5625 14.288 -31.2057 -32.6197 15.0002 -31.5467 -33.0506 14.6282 -31.603 
-36.7727 15.0199 -31.6186 -37.1876 14.3078 -31.2736 -38.8386 14.4812 -31.0045 
-39.2227 14.4637 -31.646 -41.5872 14.5451 -31.1611 -41.6501 14.8991 -31.5527 
-42.0221 14.4898 -31.4999 -33.6645 14.445 -31.9894 -33.6615 14.8709 -32.8196 
-34.1658 14.2351 -32.4933 -37.5918 14.5915 -31.98 -38.8015 14.3585 -32.0255 
-42.8376 14.7388 -32.5953 -42.5389 14.6754 -32.0391 -43.7274 14.6864 -32.5708 
-43.4018 14.4573 -32.0184 -44.5165 14.6845 -32.6298 -44.3553 14.502 -32.0951 
-44.997 14.47 -32.4004 -33.6795 15.1306 -33.5552 -34.1602 14.5199 -33.4078 
-42.2474 14.7562 -33.3339 -43.0236 14.4807 -33.0901 -43.9857 14.4853 -33.0512 
-44.8275 14.4545 -32.8973 -34.3559 14.5688 -34.4695 -41.0993 14.7403 -34.5287 
-41.6907 14.1439 -33.9887 -34.581 14.6058 -35.1649 -34.6244 14.9146 -35.5585 
-35.0021 14.5155 -35.5263 -36.7298 14.7094 -35.6948 -36.0782 14.4979 -35.7361 
-36.5717 14.3381 -35.208 -37.3916 14.4271 -35.0256 -37.7399 14.9125 -35.6497 
-38.414 14.4538 -34.9944 -38.9191 14.9473 -35.5386 -39.5584 14.5302 -35.0254 
-39.7704 15.0947 -35.5132 -40.4156 14.4531 -34.7858 -35.4391 14.6846 -36.0025 
-36.0134 14.9772 -36.4088 -36.8772 15.1018 -36.3008 -31.8277 13.3304 -28.167 
-31.29 13.56 -28.6267 -32.631 13.5204 -27.9527 -33.7045 13.4907 -27.9488 
-34.728 13.5636 -28.108 -35.4161 13.3425 -28.4176 -38.7591 13.2171 -28.095 
-38.2294 13.7647 -28.612 -39.7477 14.0873 -28.6561 -39.4048 13.6813 -28.1775 
-39.9909 13.3629 -28.6664 -31.5323 14.0155 -29.3334 -31.2978 13.3236 -29.546 
-35.8946 13.4767 -28.8991 -36.3975 13.3885 -29.4309 -38.2784 13.4347 -29.413 
-40.3739 13.1847 -29.2722 -31.8132 14.1177 -30.5788 -31.6721 13.5481 -29.9502 
-31.8423 13.4792 -30.605 -36.8447 13.5224 -29.9242 -37.3008 13.5627 -30.5853 
-38.5829 13.6093 -30.1395 -38.6759 13.9566 -30.5833 -39.0107 13.3346 -30.4146 
-40.6634 13.631 -29.7929 -41.978 13.9537 -30.7409 -41.3608 13.6147 -30.0624 
-42.9494 13.7928 -30.6448 -42.3637 13.4386 -30.0394 -43.9591 13.8468 -30.6475 
-43.5289 13.3674 -30.0124 -44.9193 13.8042 -30.738 -44.5686 13.386 -30.2039 
-45.254 13.3507 -30.4161 -32.137 13.6075 -31.6081 -32.8071 13.9253 -31.8132 
-33.329 13.7006 -31.6151 -33.8523 13.3011 -31.1517 -33.4884 13.9877 -31.405 
-34.1105 13.6075 -31.5222 -37.7832 13.3385 -31.0822 -37.789 13.8786 -31.7001 
[...]
CELL_DATA 35572
SCALARS scalars float
LOOKUP_TABLE default
1009 1009 1009 1009 1009 1009 1009 1009 1009 
1009 1009 1009 1009 1009 1009 1009 1009 1009 
1009 1009 1009 1009 1009 1009 1009 1009 1009 
1009 1009 1009 1009 1009 1009 1009 1009 1009 
1009 1009 1009 1009 1009 1009 1009 1009 1009 
1009 1009 1009 1009 1009 1009 1009 1009 1009 
1009 1009 1009 1009 1009 1009 1009 1009 1009 
1009 1009 1009 1009 1009 1009 1009 1009 1009 
1009 1009 1009 1009 1009 1009 1009 1009 1009 
1009 1009 1009 1009 1009 1009 1009 1009 1009 
1009 1009 1009 1009 1009 1009 1009 1009 1009 
1009 1009 1009 1009 1009 1009 1009 1009 1009 
1009 1009 1009 1009 1009 1009 1009 1009 1009 
1009 1009 1009 1009 1009 1009 1009 1009 1009 
1009 1009 1009 1009 1009 1009 1009 1009 1009 
1009 1009 1009 1009 1009 1009 1009 1009 1009 
1009 1009 1009 1009 1009 1009 1009 1009 1009 
1009 1009 1009 1009 1009 1009 1009 1009 1009 
1009 1009 1009 1009 1009 1009 1009 1009 1009 
1009 1009 1009 1009 1009 1009 1009 1009 1009 
1009 1009 1009 1009 1009 1009 1009 1009 1009 
1009 1009 1009 1009 1009 1009 1009 1009 1009 
1009 1009 1009 1009 1009 1009 1009 1009 1009 
1009 1009 1009 1009 1009 1009 1009 1009 1009 
1009 1009 1009 1009 1009 1009 1009 1009 1009 
1009 1009 1009 1009 1009 1009 1009 1009 1009 
1009 1009 1009 1009 1009 1009 1009 1009 1009 
1009 1009 1009 1009 1009 1009 1009 1009 1009 
1009 1009 1009 1009 1009 1009 1009 1009 1009 
1009 1009 1009 1009 1009 1009 1009 1009 1009 
1009 1009 1009 1009 1009 1009 1009 1009 1009 
1009 1009 1009 1009 1009 1009 1009 1009 1009 
1009 1009 1009 1009 1009 1009 1009 1009 1009 
1009 1009 1009 1009 1009 1009 1009 1009 1009 
1009 1009 1009 1009 1009 1009 1009 1009 1009 
1009 1009 1009 1009 1009 1009 1009 1009 1009 
1009 1009 1009 1009 1009 1009 1009 1009 1009 
1009 1009 1009 1009 1009 1009 1009 1009 1009 
1009 1009 1009 1009 1009 1009 1009 1009 1009 
1009 1009 1009 1009 1009 1009 1009 1009 1009 
1009 1009 1009 1009 1009 1009 1009 1009 1009 
1009 1009 1009 1009 1009 1009 1009 1009 1009 
1009 1009 1009 1009 1009 1009 1009 1009 1009 
1009 1009 1009 1009 1009 1009 1009 1009 1009 
1009 1009 1009 1009 1009 1009 1009 1009 1009 
1009 1009 1009 1009 1009 1009 1009 1009 1009 
1009 1009 1009 1009 1009 1009 1009 1009 1009 
1009 1009 1009 1009 1009 1009 1009 1009 1009 
1009 1009 1009 1009 1009 1009 1009 1009 1009 
1009 1009 1009 1009 1009 1009 1009 1009 1009 
1009 1009 1009 1009 1009 1009 1009 1009 1009 
1009 1009 1009 1009 1009 1009 1009 1009 1009 
1009 1009 1009 1009 1009 1009 1009 1009 1009 
1009 1009 1009 1009 1009 1009 1009 1009 1009 
1009 1009 1009 1009 1009 1009 1009 1009 1009 
1009 1009 1009 1009 1009 1009 1009 1009 1009 
1009 1009 1009 1009 1009 1009 1009 1009 1009 
1009 1009 1009 1009 1009 1009 1009 1009 1009 
1009 1009 1009 1009 1009 1009 1009 1009 1009 
1009 1009 1009 1009 1009 1009 1009 1009 1009 
1009 1009 1009 1009 1009 1009 1009 1009 1009 
1009 1009 1009 1009 1009 1009 1009 1009 1009 
1009 1009 1009 1009 1009 1009 1009 1009 1009 
1009 1009 1009 1009 1009 1009 1009 1009 1009 
1009 1009 1009 1009 1009 1009 1009 1009 1009 
1009 1009 1009 1009 1009 1009 1009 1009 1009 
1009 1009 1009 1009 1009 1009 1009 1009 1009 
1009 1009 1009 1009 1009 1009 1009 1009 1009 
1009 1009 1009 1009 1009 1009 1009 1009 1009 
1009 1009 1009 1009 1009 1009 1009 1009 1009 
1009 1009 1009 1009 1009 1009 1009 1009 1009 
1009 1009 1009 1009 1009 1009 1009 1009 1009 
1009 1009 1009 1009 1009 1009 1009 1009 1009 
1009 1009 1009 1009 1009 1009 1009 1009 1009 
1009 1009 1009 1009 1009 1009 1009 1009 1009 
1009 1009 1009 1009 1009 1009 1009 1009 1009 
1009 1009 1009 1009 1009 1009 1009 1009 1009 
1009 1009 1009 1009 1009 1009 1009 1009 1009 
1009 1009 1009 1009 1009 1009 1009 1009 1009 
1009 1009 1009 1009 1009 1009 1009 1009 1009 
1009 1009 1009 1009 1009 1009 1009 1009 1009 
1009 1009 1009 1009 1009 1009 1009 1009 1009 
1009 1009 1009 1009 1009 1009 1009 1009 1009 
1009 1009 1009 1009 1009 1009 1009 1009 1009 
1009 1009 1009 1009 1009 1009 1009 1009 1009 
1009 1009 1009 1009 1009 1009 1009 1009 1009 
1009 1009 1009 1009 1009 1009 1009 1009 1009 
1009 1009 1009 1009 1009 1009 1009 1009 1009 
1009 1009 1009 1009 1009 1009 1009 1009 1009 
1009 1009 1009 1009 1009 1009 1009 1009 1009 
1009 1009 1009 1009 1009 1009 1009 1009 1009 
1009 1009 1009 1009 1009 1009 1009 1009 1009 
1009 1009 1009 1009 1009 1009 1009 1009 1009 
1009 1009 1009 1009 1009 1009 1009 1009 1009 
1009 1009 1009 1009 1009 1009 1009 1009 1009 
1009 1009 1009 1009 1009 1009 1009 1009 1009 
1009 1009 1009 1009 1009 1009 1009 1009 1009 
1009 1009 1009 1009 1009 1009 1009 1009 1009 
1009 1009 1009 1009 1009 1009 1009 1009 1009 
1009 1009 1009 1009 1009 1009 1009 1009 1009 
1009 1009 1009 1009 1009 1009 1009 1009 1009 
1009 1009 1009 1009 1009 1009 1009 1009 1009 
1009 1009 1009 1009 1009 1009 1009 1009 1009 
1009 1009 1009 1009 1009 1009 1009 1009 1009 
1009 1009 1009 1009 1009 1009 1009 1009 1009 
1009 1009 1009 1009 1009 1009 1009 1009 1009 
1009 1009 1009 1009 1009 1009 1009 1009 1009 
1009 1009 1009 1009 1009 1009 1009 1009 1009 
1009 1009 1009 1009 1009 1009 1009 1009 1009 
1009 1009 1009 1009 1009 1009 1009 1009 1009 
1009 1009 1009 1009 1009 1009 1009 1009 1009 
1009 1009 1009 1009 1009 1009 1009 1009 1009 
1009 1009 1009 1009 1009 1009 1009 1009 1009 
1009 1009 1009 1009 1009 1009 1009 1009 1009 
1009 1009 1009 1009 1009 1009 1009 1009 1009 
1009 1009 1009 1009 1009 1009 1009 1009 1009 
1009 1009 1009 1009 1009 1009 1009 1009 1009 
1009 1009 1009 1009 1009 1009 1009 1009 1009 
1009 1009 1009 1009 1009 1009 1009 1009 1009 
1009 1009 1009 1009 1009 1009 1009 1009 1009 
1009 1009 1009 1009 1009 1009 1009 1009 1009 
1009 1009 1009 1009 1009 1009 1009 1009 1009 
1009 1009 1009 1009 1009 1009 1009 1009 1009 
1009 1009 1009 1009 1009 1009 1009 1009 1009 
1009 1009 1009 1009 1009 1009 1009 1009 1009 
1009 1009 1009 1009 1009 1009 1009 1009 1009 
1009 1009 1009 1009 1009 1009 1009 1009 1009 
1009 1009 1009 1009 1009 1009 1009 1009 1009 
1009 1009 1009 1009 1009 1009 1009 1009 1009 
1009 1009 1009 1009 1009 1009 1009 1009 1009 
1009 1009 1009 1009 1009 1009 1009 1009 1009 
1009 1009 1009 1009 1009 1009 1009 1009 1009 
1009 1009 1009 1009 1009 1009 1009 1009 1009 
1009 1009 1009 1009 1009 1009 1009 1009 1009 
1009 1009 1009 1009 1009 1009 1009 1009 1009 
1009 1009 1009 1009 1009 1009 1009 1009 1009 
1009 1009 1009 1009 1009 1009 1009 1009 1009 
1009 1009 1009 1009 1009 1009 1009 1009 1009 
1009 1009 1009 1009 1009 1009 1009 1009 1009 
1009 1009 1009 1009 1009 1009 1009 1009 1009 
1009 1009 1009 1009 1009 1009 1009 1009 1009 
1009 1009 1009 1009 1009 1009 1009 1009 1009 
1009 1009 1009 1009 1009 1009 1009 1009 1009 
1009 1009 1009 1009 1009 1009 1009 1009 1009 
1009 1009 1009 1009 1009 1009 1009 1009 1009 
1009 1009 1009 1009 1009 1009 1009 1009 1009 
1009 1009 1009 1009 1009 1009 1009 1009 1009 
1009 1009 1009 1009 1009 1009 1009 1009 1009 
1009 1009 1009 1009 1009 1009 1009 1009 1009 
1009 1009 1009 1009 1009 1009 1009 1009 1009 
1009 1009 1009 1009 1009 1009 1009 1009 1009 
1009 1009 1009 1009 1009 1009 1009 1009 1009 
1009 1009 1009 1009 1009 1009 1009 1009 1009 
1009 1009 1009 1009 1009 1009 1009 1009 1009 
1009 1009 1009 1009 1009 1009 1009 1009 1009 
1009 1009 1009 1009 1009 1009 1009 1009 1009 
1009 1009 1009 1009 1009 1009 1009 1009 1009 
1009 1009 1009 1009 1009 1009 1009 1009 1009 
1009 1009 1009 1009 1009 1009 1009 1009 1009 
1009 1009 1009 1009 1009 1009 1009 1009 1009 
1009 1009 1009 1009 1009 1009 1009 1009 1009 
1009 1009 1009 1009 1009 1009 1009 1009 1009 
1009 1009 1009 1009 1009 1009 1009 1009 1009 
1009 1009 1009 1009 1009 1009 1009 1009 1009 
1009 1009 1009 1009 1009 1009 1009 1009 1009 
1009 1009 1009 1009 1009 1009 1009 1009 1009 
1009 1009 1009 1009 1009 1009 1009 1009 1009 
1009 1009 1009 1009 1009 1009 1009 1009 1009 
1009 1009 1009 1009 1009 1009 1009 1009 1009 
1009 1009 1009 1009 1009 1009 1009 1009 1009 
1009 1009 1009 1009 1009 1009 1009 1009 1009 
1009 1009 1009 1009 1009 1009 1009 1009 1009 
1009 1009 1009 1009 1009 1009 1009 1009 1009 
1009 1009 1009 1009 1009 1009 1009 1009 1009 
1009 1009 1009 1009 1009 1009 1009 1009 1009 
1009 1009 1009 1009 1009 1009 1009 1009 1009 
1009 1009 1009 1009 1009 1009 1009 1009 1009 
1009 1009 1009 1009 1009 1009 1009 1009 1009 
1009 1009 1009 1009 1009 1009 1009 1009 1009 
1009 1009 1009 1009 1009 1009 1009 1009 1009 
1009 1009 1009 1009 1009 1009 1009 1009 1009 
1009 1009 1009 1009 1009 1009 1009 1009 1009 
1009 1009 1009 1009 1009 1009 1009 1009 1009 
1009 1009 1009 1009 1009 1009 1009 1009 1009 
1009 1009 1009 1009 1009 1009 1009 1009 1009 
1009 1009 1009 1009 1009 1009 1009 1009 1009 
1009 1009 1009 1009 1009 1009 1009 1009 1009 
1009 1009 1009 1009 1009 1009 1009 1009 1009 
1009 1009 1009 1009 1009 1009 1009 1009 1009 
1009 1009 1009 1009 1009 1009 1009 1009 1009 
1009 1009 1009 1009 1009 1009 1009 1009 1009 
1009 1009 1009 1009 1009 1009 1009 1009 1009 
1009 1009 1009 1009 1009 1009 1009 1009 1009 
1009 1009 1009 1009 1009 1009 1009 1009 1009 
1009 1009 1009 1009 1009 1009 1009 1009 1009 
1009 1009 1009 1009 1009 1009 1009 1009 1009 
1009 1009 1009 1009 1009 1009 1009 1009 1009 
1009 1009 1009 1009 1009 1009 1009 1009 1009 
1009 1009 1009 1009 1009 1009 1009 1009 1009 
1009 1009 1009 1009 1009 1009 1009 1009 1009 
1009 1009 1009 1009 1009 1009 1009 1009 1009 
1009 1009 1009 1009 1009 1009 1009 1009 1009 
1009 1009 1009 1009 1009 1009 1009 1009 1009 
1009 1009 1009 1009 1009 1009 1009 1009 1009 
1009 1009 1009 1009 1009 1009 1009 1009 1009 
1009 1009 1009 1009 1009 1009 1009 1009 1009 
1009 1009 1009 1009 1009 1009 1009 1009 1009 
1009 1009 1009 1009 1009 1009 1009 1009 1009 
1009 1009 1009 1009 1009 1009 1009 1009 1009 
1009 1009 1009 1009 1009 1009 1009 1009 1009 
1009 1009 1009 1009 1009 1009 1009 1009 1009 
1009 1009 1009 1009 1009 1009 1009 1009 1009 
1009 1009 1009 1009 1009 1009 1009 1009 1009 
1009 1009 1009 1009 1009 1009 1009 1009 1009 
1009 1009 1009 1009 1009 1009 1009 1009 1009 
1009 1009 1009 1009 1009 1009 1009 1009 1009 
1009 1009 1009 1009 1009 1009 1009 1009 1009 
1009 1009 1009 1009 1009 1009 1009 1009 1009 
1009 1009 1009 1009 1009 1009 1009 1009 1009 
1009 1009 1009 1009 1009 1009 1009 1009 1009 
1009 1009 1009 1009 1009 1009 1009 1009 1009 
1009 1009 1009 1009 1009 1009 1009 1009 1009 
1009 1009 1009 1009 1009 1009 1009 1009 1009 
1009 1009 1009 1009 1009 1009 1009 1009 1009 
1009 1009 1009 1009 1009 1009 1009 1009 1009 
1009 1009 1009 1009 1009 1009 1009 1009 1009 
1009 1009 1009 1009 1009 1009 1009 1009 1009 
1009 1009 1009 1009 1009 1009 1009 1009 1009 
1009 1009 1009 1009 1009 1009 1009 1009 1009 
1009 1009 1009 1009 1009 1009 1009 1009 1009 
1009 1009 1009 1009 1009 1009 1009 1009 1009 
1009 1009 1009 1009 1009 1009 1009 1009 1009 
1009 1009 1009 1009 1009 1009 1009 1009 1009 
1009 1009 1009 1009 1009 1009 1009 1009 1009 
1009 1009 1009 1009 1009 1009 1009 1009 1009 
1009 1009 1009 1009 1009 1009 1009 1009 1009 
1009 1009 1009 1009 1009 1009 1009 1009 1009 
1009 1009 1009 1009 1009 1009 1009 1009 1009 
1009 1009 1009 1009 1009 1009 1009 1009 1009 
1009 1009 1009 1009 1009 1009 1009 1009 1009 
1009 1009 1009 1009 1009 1009 1009 1009 1009 
1009 1009 1009 1009 1009 1009 1009 1009 1009 
1009 1009 1009 1009 1009 1009 1009 1009 1009 
1009 1009 1009 1009 1009 1009 1009 1009 1009 
1009 1009 1009 1009 1009 1009 1009 1009 1009 
1009 1009 1009 1009 1009 1009 1009 1009 1009 
1009 1009 1009 1009 1009 1009 1009 1009 1009 
1009 1009 1009 1009 1009 1009 1009 1009 1009 
1009 1009 1009 1009 1009 1009 1009 1009 1009 
1009 1009 1009 1009 1009 1009 1009 1009 1009 
1009 1009 1009 1009 1009 1009 1009 1009 1009 
1009 1009 1009 1009 1009 1009 1009 1009 1009 
1009 1009 1009 1009 1009 1009 1009 1009 1009 
1009 1009 1009 1009 1009 1009 1009 1009 1009 
1009 1009 1009 1009 1009 1009 1009 1009 1009 
1009 1009 1009 1009 1009 1009 1009 1009 1009 
1009 1009 1009 1009 1009 1009 1009 1009 1009 
1009 1009 1009 1009 1009 1009 1009 1009 1009 
1009 1009 1009 1009 1009 1009 1009 1009 1009 
1009 1009 1009 1009 1009 1009 1009 1009 1009 
1009 1009 1009 1009 1009 1009 1009 1009 1009 
1009 1009 1009 1009 1009 1009 1009 1009 1009 
1009 1009 1009 1009 1009 1009 1009 1009 1009 
1009 1009 1009 1009 1009 1009 1009 1009 1009 
1009 1009 1009 1009 1009 1009 1009 1009 1009 
1009 1009 1009 1009 1009 1009 1009 1009 1009 
1009 1009 1009 1009 1009 1009 1009 1009 1009 
1009 1009 1009 1009 1009 1009 1009 1009 1009 
1009 1009 1009 1009 1009 1009 1009 1009 1009 
1009 1009 1009 1009 1009 1009 1009 1009 1009 
1009 1009 1009 1009 1009 1009 1009 1009 1009 
1009 1009 1009 1009 1009 1009 1009 1009 1009 
1009 1009 1009 1009 1009 1009 1009 1009 1009 
1009 1009 1009 1009 1009 1009 1009 1009 1009 
1009 1009 1009 1009 1009 1009 1009 1009 1009 
1009 1009 1009 1009 1009 1009 1009 1009 1009 
1009 1009 1009 1009 1009 1009 1009 1009 1009 
1009 1009 1009 1009 1009 1009 1009 1009 1009 
1009 1009 1009 1009 1009 1009 1009 1009 1009 
1009 1009 1009 1009 1009 1009 1009 1009 1009 
1009 1009 1009 1009 1009 1009 1009 1009 1009 
1009 1009 1009 1009 1009 1009 1009 1009 1009 
1009 1009 1009 1009 1009 1009 1009 1009 1009 
1009 1009 1009 1009 1009 1009 1009 1009 1009 
1009 1009 1009 1009 1009 1009 1009 1009 1009 
1009 1009 1009 1009 1009 1009 1009 1009 1009 
1009 1009 1009 1009 1009 1009 1009 1009 1009 
1009 1009 1009 1009 1009 1009 1009 1009 1009 
1009 1009 1009 1009 1009 1009 1009 1009 1009 
1009 1009 1009 1009 1009 1009 1009 1009 1009 
1009 1009 1009 1009 1009 1009 1009 1009 1009 
1009 1009 1009 1009 1009 1009 1009 1009 1009 
1009 1009 1009 1009 1009 1009 1009 1009 1009 
1009 1009 1009 1009 1009 1009 1009 1009 1009 
1009 1009 1009 1009 1009 1009 1009 1009 1009 
1009 1009 1009 1009 1009 1009 1009 1009 1009 
1009 1009 1009 1009 1009 1009 1009 1009 1009 
1009 1009 1009 1009 1009 1009 1009 1009 1009 
1009 1009 1009 1009 1009 1009 1009 1009 1009 
1009 1009 1009 1009 1009 1009 1009 1009 1009 
1009 1009 1009 1009 1009 1009 1009 1009 1009 
1009 1009 1009 1009 1009 1009 1009 1009 1009 
1009 1009 1009 1009 1009 1009 1009 1009 1009 
1009 1009 1009 1009 1009 1009 1009 1009 1009 
1009 1009 1009 1009 1009 1009 1009 1009 1009 
1009 1009 1009 1009 1009 1009 1009 1009 1009 
1009 1009 1009 1009 1009 1009 1009 1009 1009 
1009 1009 1009 1009 1009 1009 1009 1009 1009 
1009 1009 1009 1009 1009 1009 1009 1009 1009 
1009 1009 1009 1009 1009 1009 1009 1009 1009 
1009 1009 1009 1009 1009 1009 1009 1009 1009 
1009 1009 1009 1009 1009 1009 1009 1009 1009 
1009 1009 1009 1009 1009 1009 1009 1009 1009 
1009 1009 1009 1009 1009 1009 1009 1009 1009 
1009 1009 1009 1009 1009 1009 1009 1009 1009 
1009 1009 1009 1009 1009 1009 1009 1009 1009 
1009 1009 1009 1009 1009 1009 1009 1009 1009 
1009 1009 1009 1009 1009 1009 1009 1009 1009 
1009 1009 1009 1009 1009 1009 1009 1009 1009 
1009 1009 1009 1009 1009 1009 1009 1009 1009 
1009 1009 1009 1009 1009 1009 1009 1009 1009 
1009 1009 1009 1009 1009 1009 1009 1009 1009 
1009 1009 1009 1009 1009 1009 1009 1009 1009 
1009 1009 1009 1009 1009 1009 1009 1009 1009 
1009 1009 1009 1009 1009 1009 1009 1009 1009 
1009 1009 1009 1009 1009 1009 1009 1009 1009 
1009 1009 1009 1009 1009 1009 1009 1009 1009 
1009 1009 1009 1009 1009 1009 1009 1009 1009 
1009 1009 1009 1009 1009 1009 1009 1009 1009 
1009 1009 1009 1009 1009 1009 1009 1009 1009 
1009 1009 1009 1009 1009 1009 1009 1009 1009 
1009 1009 1009 1009 1009 1009 1009 1009 1009 
1009 1009 1009 1009 1009 1009 1009 1009 1009 
1009 1009 1009 1009 1009 1009 1009 1009 1009 
1009 1009 1009 1009 1009 1009 1009 1009 1009 
1009 1009 1009 1009 1009 1009 1009 1009 1009 
1009 1009 1009 1009 1009 1009 1009 1009 1009 
1009 1009 1009 1009 1009 1009 1009 1009 1009 
1009 1009 1009 1009 1009 1009 1009 1009 1009 
1009 1009 1009 1009 1009 1009 1009 1009 1009 
1009 1009 1009 1009 1009 1009 1009 1009 1009 
1009 1009 1009 1009 1009 1009 1009 1009 1009 
1009 1009 1009 1009 1009 1009 1009 1009 1009 
1009 1009 1009 1009 1009 1009 1009 1009 1009 
1009 1009 1009 1009 1009 1009 1009 1009 1009 
1009 1009 1009 1009 1009 1009 1009 1009 1009 
1009 1009 1009 1009 1009 1009 1009 1009 1009 
1009 1009 1009 1009 1009 1009 1009 1009 1009 
1009 1009 1009 1009 1009 1009 1009 1009 1009 
1009 1009 1009 1009 1009 1009 1009 1009 1009 
1009 1009 1009 1009 1009 1009 1009 1009 1009 
1009 1009 1009 1009 1009 1009 1009 1009 1009 
1009 1009 1009 1009 1009 1009 1009 1009 1009 
1009 1009 1009 1009 1009 1009 1009 1009 1009 
1009 1009 1009 1009 1009 1009 1009 1009 1009 
1009 1009 1009 1009 1009 1009 1009 1009 1009 
1009 1009 1009 1009 1009 1009 1009 1009 1009 
1009 1009 1009 1009 1009 1009 1009 1009 1009 
1009 1009 1009 1009 1009 1009 1009 1009 1009 
1009 1009 1009 1009 1009 1009 1009 1009 1009 
1009 1009 1009 1009 1009 1009 1009 1009 1009 
1009 1009 1009 1009 1009 1009 1009 1009 1009 
1009 1009 1009 1009 1009 1009 1009 1009 1009 
1009 1009 1009 1009 1009 1009 1009 1009 1009 
1009 1009 1009 1009 1009 1009 1009 1009 1009 
1009 1009 1009 1009 1009 1009 1009 1009 1009 
1009 1009 1009 1009 1009 1009 1009 1009 1009 
1009 1009 1009 1009 1009 1009 1009 1009 1009 
1009 1009 1009 1009 1009 1009 1009 1009 1009 
1009 1009 1009 1009 1009 1009 1009 1009 1009 
1009 1009 1009 1009 1009 1009 1009 1009 1009 
1009 1009 1009 1009 1009 1009 1009 1009 1009 
1009 1009 1009 1009 1009 1009 1009 1009 1009 
1009 1009 1009 1009 1009 1009 1009 1009 1009 
1009 1009 1009 1009 1009 1009 1009 1009 1009 
1009 1009 1009 1009 1009 1009 1009 1009 1009 
1009 1009 1009 1009 1009 1009 1009 1009 1009 
1009 1009 1009 1009 1009 1009 1009 1009 1009 
1009 1009 1009 1009 1009 1009 1009 1009 1009 
1009 1009 1009 1009 1009 1009 1009 1009 1009 
1009 1009 1009 1009 1009 1009 1009 1009 1009 
1009 1009 1009 1009 1009 1009 1009 1009 1009 
1009 1009 1009 1009 1009 1009 1009 1009 1009 
1009 1009 1009 1009 1009 1009 1009 1009 1009 
1009 1009 1009 1009 1009 1009 1009 1009 1009 
1009 1009 1009 1009 1009 1009 1009 1009 1009 
1009 1009 1009 1009 1009 1009 1009 1009 1009 
1009 1009 1009 1009 1009 1009 1009 1009 1009 
1009 1009 1009 1009 1009 1009 1009 1009 1009 
1009 1009 1009 1009 1009 1009 1009 1009 1009 
1009 1009 1009 1009 1009 1009 1009 1009 1009 
1009 1009 1009 1009 1009 1009 1009 1009 1009 
1009 1009 1009 1009 1009 1009 1009 1009 1009 
1009 1009 1009 1009 1009 1009 1009 1009 1009 
1009 1009 1009 1009 1009 1009 1009 1009 1009 
1009 1009 1009 1009 1009 1009 1009 1009 1009 
1009 1009 1009 1009 1009 1009 1009 1009 1009 
1009 1009 1009 1009 1009 1009 1009 1009 1009 
1009 1009 1009 1009 1009 1009 1009 1009 1009 
1009 1009 1009 1009 1009 1009 1009 1009 1009 
1009 1009 1009 1009 1009 1009 1009 1009 1009 
1009 1009 1009 1009 1009 1009 1009 1009 1009 
1009 1009 1009 1009 1009 1009 1009 1009 1009 
1009 1009 1009 1009 1009 1009 1009 1009 1009 
1009 1009 1009 1009 1009 1009 1009 1009 1009 
1009 1009 1009 1009 1009 1009 1009 1009 1009 
1009 1009 1009 1009 1009 1009 1009 1009 1009 
1009 1009 1009 1009 1009 1009 1009 1009 1009 
1009 1009 1009 1009 1009 1009 1009 1009 1009 
1009 1009 1009 1009 1009 1009 1009 1009 1009 
1009 1009 1009 1009 1009 1009 1009 1009 1009 
1009 1009 1009 1009 1009 1009 1009 1009 1009 
1009 1009 1009 1009 1009 1009 1009 1009 1009 
1009 1009 1009 1009 1009 1009 1009 1009 1009 
1009 1009 1009 1009 1009 1009 1009 1009 1009 
1009 1009 1009 1009 1009 1009 1009 1009 1009 
1009 1009 1009 1009 1009 1009 1009 1009 1009 
1009 1009 1009 1009 1009 1009 1009 1009 1009 
1009 1009 1009 1009 1009 1009 1009 1009 1009 
1009 1009 1009 1009 1009 1009 1009 1009 1009 
1009 1009 1009 1009 1009 1009 1009 1009 1009 
1009 1009 1009 1009 1009 1009 1009 1009 1009 
1009 1009 1009 1009 1009 1009 1009 1009 1009 
1009 1009 1009 1009 1009 1009 1009 1009 1009 
1009 1009 1009 1009 1009 1009 1009 1009 1009 
1009 1009 1009 1009 1009 1009 1009 1009 1009 
1009 1009 1009 1009 1009 1009 1009 1009 1009 
1009 1009 1009 1009 1009 1009 1009 1009 1009 
1009 1009 1009 1009 1009 1009 1009 1009 1009 
1009 1009 1009 1009 1009 1009 1009 1009 1009 
1009 1009 1009 1009 1009 1009 1009 1009 1009 
1009 1009 1009 1009 1009 1009 1009 1009 1009 
1009 1009 1009 1009 1009 1009 1009 1009 1009 