# vtk DataFile Version 4.2
vtk output
ASCII
DATASET POLYDATA
POINTS 4014 float
20.5326 -35.2445 38.2664 20.581 -34.9247 38.1787 20.8139 -35.1991 38.1482 
20.3519 -35.1163 38.0403 20.6491 -35.5729 38.2702 20.8599 -35.6417 38.181 
20.3848 -35.6902 38.0494 20.7652 -35.8847 38.0602 20.6064 -33.4405 37.6758 
20.5758 -33.1764 37.5428 20.7995 -33.3246 37.5245 20.449 -33.4071 37.375 
20.9738 -33.7704 37.7016 21.2125 -33.5466 37.3667 21.3432 -34.0175 37.3705 
20.4442 -33.9635 37.7874 20.2757 -33.9099 37.4192 21.1172 -34.2067 37.583 
21.0792 -34.5609 37.5724 20.6589 -34.5584 37.8837 20.0545 -34.2442 37.6008 
20.0525 -34.5278 37.7219 19.8327 -34.6659 37.3744 21.0993 -34.9798 37.7501 
21.2741 -34.7389 37.4151 21.3913 -35.1461 37.4285 20.0779 -35.0326 37.7383 
19.7839 -35.0633 37.4104 21.1367 -35.584 37.8604 21.4241 -35.752 37.3251 
20.0974 -35.5443 37.6892 19.885 -35.4475 37.4143 21.0693 -36.0669 37.6739 
20.4674 -36.321 37.8301 20.9374 -36.521 37.4415 20.0766 -36.0263 37.6521 
19.9728 -36.482 37.6824 19.7886 -36.2068 37.347 20.4907 -36.9048 37.7405 
20.7572 -36.9259 37.3999 20.0506 -36.9459 37.7826 19.7458 -36.779 37.4377 
20.4831 -37.2427 37.5609 20.2589 -37.5694 37.3623 20.1314 -37.399 37.7201 
19.8007 -37.347 37.4855 19.9378 -37.6675 37.4081 21.6089 -33.3453 37.1171 
21.8513 -33.087 36.7623 21.9955 -33.2702 36.9608 21.1335 -33.3123 37.1408 
21.3264 -33.1441 36.9331 20.574 -33.225 37.3854 20.9272 -33.2805 36.7279 
21.972 -33.5399 36.8554 21.5943 -33.9152 36.9314 20.7063 -33.4297 37.1077 
20.3762 -33.816 36.8904 21.2723 -34.3934 37.3584 21.4452 -34.5328 37.0895 
20.0157 -34.4111 37.2737 20.1423 -34.3076 36.8184 21.5027 -35.104 36.9134 
19.9064 -34.6721 37.0039 19.7035 -35.0031 36.9963 21.5058 -35.605 36.8054 
19.9011 -35.8049 37.3548 19.6635 -35.637 37.046 21.2819 -36.2429 37.2746 
21.4296 -36.2674 36.7874 19.5915 -36.3298 36.9775 21.1991 -36.5644 37.02 
20.9778 -36.823 37.0641 19.5948 -36.9586 37.0037 20.7329 -37.24 37.0076 
20.4195 -37.6039 36.8952 19.6916 -37.4869 37.0242 18.8071 -37.5257 36.9993 
18.8142 -37.3963 36.9055 19.0783 -37.4745 36.7763 18.5792 -37.4157 36.8629 
19.9674 -37.7412 36.8578 18.7272 -37.6732 36.7475 22.264 -33.2891 36.6533 
22.4119 -33.0191 36.2994 22.5263 -33.3438 36.2199 21.8241 -32.9027 36.2632 
21.2969 -33.055 36.4794 20.8409 -33.1926 36.2162 22.2465 -33.6064 36.4006 
21.8949 -33.8465 36.575 22.0334 -33.9053 36.1155 20.5856 -33.5688 36.4791 
20.2941 -33.9207 36.3557 19.4029 -34.1004 36.4609 19.4665 -33.7237 36.2699 
19.7332 -34.0104 36.3551 19.1687 -33.7482 36.1624 21.7318 -34.0942 36.3541 
21.5496 -34.4913 36.3886 20.039 -34.1612 36.3736 19.7613 -34.5343 36.6362 
19.363 -34.6151 36.5267 19.1364 -34.3215 36.2543 21.4761 -35.0879 36.3006 
19.4432 -35.1929 36.6214 19.1692 -34.9529 36.2556 21.4814 -35.6886 36.3103 
19.3952 -35.8899 36.6031 19.1876 -35.5614 36.2253 21.5015 -36.226 36.2026 
19.391 -36.5006 36.5848 19.1132 -36.1395 36.1881 21.1733 -36.867 36.7083 
21.3894 -36.7906 36.2015 19.343 -37.1133 36.6536 19.0641 -36.6847 36.3049 
18.1613 -37.123 36.5225 18.2879 -36.7451 36.2424 18.4808 -36.8973 36.3352 
17.9288 -36.8062 36.0982 21.0623 -37.2276 36.4071 20.7226 -37.4979 36.5869 
20.8643 -37.5307 36.1289 19.5135 -37.5559 36.7325 18.7939 -37.113 36.5461 
18.2286 -37.5172 36.7189 17.6318 -37.1699 36.3266 17.6299 -37.4639 36.5206 
17.1069 -37.5603 36.4365 17.1895 -37.2576 36.2313 16.7709 -37.541 36.2072 
20.4115 -37.7365 36.3538 19.9026 -37.8303 36.2282 19.3193 -37.7642 36.4005 
18.6962 -37.8068 36.2259 18.0986 -37.7403 36.3428 17.3716 -37.7306 36.2753 
16.9881 -37.7013 36.2994 24.8107 -31.515 35.8082 24.7742 -31.2755 35.5934 
24.982 -31.5042 35.759 24.5589 -31.4675 35.6452 24.8718 -31.671 35.6287 
24.1564 -31.9426 35.7551 24.3147 -32.0292 35.696 24.1681 -32.0965 35.8019 
24.037 -32.0321 35.7029 24.2537 -32.2647 35.5935 22.8149 -32.7649 35.8951 
23.039 -32.4992 35.6852 23.1823 -32.7072 35.7127 22.2439 -32.7093 36.0031 
22.4735 -32.4052 35.6568 21.7502 -32.7413 35.9008 21.8489 -32.5369 35.6215 
21.4482 -32.6565 35.6097 20.5488 -32.8912 35.8566 20.656 -32.5282 35.5002 
20.8931 -32.7008 35.7009 20.2179 -32.6379 35.6115 23.1591 -32.9564 35.611 
22.7727 -33.1777 35.882 21.2245 -32.8603 35.9171 20.4158 -33.4293 36.0888 
19.9169 -32.8774 35.6738 19.962 -33.2042 35.9156 19.4424 -33.4137 36.0125 
19.5086 -33.1052 35.7288 19.1662 -33.3504 35.686 22.5061 -33.6066 35.7796 
22.1488 -33.9103 35.7547 19.9228 -33.6987 36.1319 18.9797 -33.9045 35.65 
21.8719 -34.1895 35.7528 21.561 -34.6839 35.652 19.0602 -34.587 35.8558 
21.4628 -35.2012 35.8002 19.0965 -35.1217 35.743 14.6019 -35.0606 35.839 
14.6637 -34.942 35.6326 14.7273 -35.2154 35.6116 14.4761 -35.0972 35.5597 
21.5564 -35.7717 35.7147 19.0362 -35.7119 35.6453 14.5413 -35.3313 35.6725 
21.5709 -36.4838 35.67 18.7188 -36.0365 35.6866 18.7282 -36.3498 36.0059 
18.292 -36.4505 35.9993 18.2528 -36.1193 35.6438 17.9138 -36.3685 35.6827 
16.3162 -36.3695 35.9253 16.442 -36.0435 35.5184 16.7789 -36.3452 35.736 
15.6697 -36.325 35.969 15.9082 -36.0431 35.7504 15.0332 -36.3424 35.97 
15.228 -36.0753 35.6433 14.4945 -36.2862 35.9455 14.5806 -36.0301 35.7111 
14.1433 -36.4297 35.8686 14.0305 -36.1011 35.6523 13.7358 -36.2568 35.616 
21.4156 -36.93 35.6154 18.6444 -36.7084 36.1821 17.7448 -36.7326 35.69 
16.7927 -36.8928 35.9839 17.1148 -36.6268 35.6529 17.2535 -36.9531 35.8033 
16.2962 -36.9564 36.0377 15.8228 -36.8606 36.0374 15.2078 -36.8731 36.0491 
14.5112 -36.8519 35.9835 14.1431 -36.7845 35.7836 13.8696 -36.5411 35.682 
21.199 -37.2301 35.86 20.9276 -37.5351 35.5545 17.5499 -37.0369 35.914 
16.3356 -37.4894 36.0736 15.7939 -37.5079 36.0493 15.1979 -37.5088 36.0539 
14.5836 -37.5057 36.0504 14.0225 -37.0869 35.7954 13.9887 -37.4383 35.9625 
13.5019 -37.6958 35.8795 13.5616 -37.2537 35.7405 13.1739 -37.4539 35.5441 
20.5175 -37.7383 35.7003 19.996 -37.814 35.7069 19.4006 -37.8127 35.6871 
18.7814 -37.8118 35.7005 18.2716 -37.8178 35.8061 17.6228 -37.8793 35.7299 
16.9545 -37.8798 35.9438 16.4452 -37.9466 35.9595 16.7096 -38.1484 35.6432 
15.8479 -38.1115 35.9806 15.1795 -38.1359 36.0524 14.664 -38.0467 36.0584 
14.0625 -38.1112 35.9627 13.556 -38.1823 35.6528 13.2646 -37.8835 35.6702 
16.3075 -38.2942 35.6495 15.8392 -38.5127 35.7077 15.5637 -38.784 35.6611 
15.309 -38.6018 35.9344 14.6537 -38.6081 35.9502 14.1887 -38.6699 35.7916 
13.8858 -38.4998 35.6714 15.0722 -38.964 35.5995 14.4494 -38.9508 35.5748 
25.2498 -30.432 35.3092 25.2693 -30.0262 35.0176 25.6378 -30.3789 35.1426 
25.0341 -30.2299 35.0526 25.4301 -30.8034 35.3863 25.7327 -31.0756 35.0465 
24.7826 -30.5198 35.0309 25.0154 -30.8863 35.4122 24.5062 -30.8972 35.1309 
25.2734 -31.3598 35.4547 25.6053 -31.6509 34.9536 24.1665 -31.6937 35.522 
24.265 -31.2018 35.2868 23.4172 -31.5623 35.3507 23.7265 -31.1708 35.1162 
22.8016 -31.556 35.3399 23.1335 -31.1639 35.1094 22.3659 -31.6295 35.2715 
22.5864 -31.3329 35.062 22.2586 -31.582 35.1094 25.2624 -31.8527 35.2384 
24.7326 -32.0523 35.4365 25.1211 -32.1393 35.1312 23.7484 -32.1346 35.5134 
23.0419 -32.0887 35.5013 22.4052 -31.9927 35.3831 22.0682 -31.9028 35.0418 
24.8163 -32.435 35.1065 24.1477 -32.5984 35.3418 24.5367 -32.7726 35.0073 
23.5102 -32.6409 35.4638 21.9057 -32.2785 35.2732 21.0992 -32.6339 35.5494 
21.2531 -32.4025 35.2469 20.5663 -32.3029 35.0453 19.8539 -32.6948 35.3898 
20.1288 -32.4883 35.2316 19.7039 -32.6744 34.9332 24.1169 -32.9012 35.0449 
23.56 -33.0769 35.1399 23.0242 -33.3017 35.4184 23.336 -33.3358 34.9923 
19.4487 -32.9647 35.2971 19.0335 -33.3461 35.0619 22.921 -33.5933 35.0845 
22.3652 -33.893 35.4104 22.6255 -33.8817 34.9076 18.7828 -33.6814 35.1724 
18.7959 -33.9736 35.2763 18.6461 -33.8309 34.9782 22.1931 -34.1742 35.1657 
21.8318 -34.4295 35.3177 22.0185 -34.5698 34.8954 18.9952 -34.4801 35.3126 
18.7633 -34.1386 34.9056 21.7095 -34.7198 35.1597 21.5996 -35.15 35.2914 
19.0999 -35.1277 35.1337 14.6065 -34.9141 35.1647 14.7964 -35.0521 35.2604 
14.303 -35.0951 34.9861 21.7422 -35.6405 35.2951 21.826 -35.3326 35.0112 
21.9732 -35.7357 35.0147 19.0441 -35.6408 34.9519 14.6429 -35.7495 35.4466 
14.8418 -35.5165 35.0914 14.2896 -35.5889 35.17 21.797 -36.1271 35.3595 
22.0122 -36.3374 34.8997 18.7084 -35.9328 35.1318 18.1736 -35.9867 35.1306 
17.5158 -36.3594 35.3936 17.6116 -36.0502 35.1363 17.0713 -36.3078 35.4595 
16.9121 -36.0381 35.0775 16.2847 -35.9668 35.012 15.7591 -36.0597 35.2945 
15.2493 -36.2867 35.2746 15.4209 -36.3534 34.9066 14.9538 -36.1287 35.1026 
14.1042 -35.9265 35.2526 13.4435 -36.4953 35.3948 13.5654 -36.0241 35.0947 
13.1657 -36.1772 34.9456 21.7691 -36.5788 35.2164 21.5606 -36.8435 35.2615 
17.4523 -36.7357 35.5537 15.105 -36.4872 34.9569 13.7577 -36.863 35.6068 
13.3428 -36.971 35.4947 13.1005 -36.8463 35.1286 21.3382 -37.2317 35.1835 
21.014 -37.5712 35.066 13.0302 -37.4219 35.0466 20.592 -37.7414 35.0315 
20.0012 -37.8016 35.1081 19.4839 -37.8057 35.1793 18.8463 -37.8643 35.0852 
18.1447 -37.9083 35.282 17.6152 -38.0497 35.2708 17.911 -38.1326 34.989 
17.1637 -38.1086 35.4441 13.3086 -38.129 35.4699 13.1315 -37.9231 35.19 
17.5264 -38.2742 35.0138 16.8714 -38.4159 35.1477 16.1759 -38.5477 35.1206 
15.8981 -38.685 35.4091 15.9766 -38.7009 35.1499 14.049 -38.7998 35.4837 
13.773 -38.6194 35.2858 13.4643 -38.3659 35.0228 15.6056 -38.8964 35.2005 
15.0844 -39.0696 35.0256 14.6734 -39.0766 35.1871 14.1753 -38.9173 35.0434 
25.5197 -29.828 34.8338 25.575 -29.5105 34.3906 25.7597 -29.7343 34.598 
25.1719 -29.7156 34.4343 25.9011 -30.1371 34.7878 26.0481 -29.9026 34.4496 
26.2094 -30.3159 34.4373 24.8019 -30.2743 34.828 24.8276 -30.0589 34.5694 
24.4964 -30.3029 34.5168 26.0125 -30.6976 34.8048 26.2281 -30.9445 34.3189 
23.9978 -30.876 34.8503 24.2638 -30.5888 34.6533 23.4306 -30.8618 34.7969 
23.7103 -30.5788 34.4974 22.9101 -30.9755 34.7809 23.0214 -30.5745 34.393 
22.6711 -30.8854 34.4262 25.9986 -31.1836 34.6324 25.8588 -31.5775 34.5934 
22.5387 -31.2971 34.5795 22.2913 -31.6144 34.804 25.385 -32.0992 34.8782 
25.6884 -31.9797 34.5806 22.3375 -31.6298 34.5039 21.9547 -31.7728 34.5556 
[...]
CELL_DATA 8040
SCALARS scalars float
LOOKUP_TABLE default
2019 2019 2019 2019 2019 2019 2019 2019 2019 
2019 2019 2019 2019 2019 2019 2019 2019 2019 
2019 2019 2019 2019 2019 2019 2019 2019 2019 
2019 2019 2019 2019 2019 2019 2019 2019 2019 
2019 2019 2019 2019 2019 2019 2019 2019 2019 
2019 2019 2019 2019 2019 2019 2019 2019 2019 
2019 2019 2019 2019 2019 2019 2019 2019 2019 
2019 2019 2019 2019 2019 2019 2019 2019 2019 
2019 2019 2019 2019 2019 2019 2019 2019 2019 
2019 2019 2019 2019 2019 2019 2019 2019 2019 
2019 2019 2019 2019 2019 2019 2019 2019 2019 
2019 2019 2019 2019 2019 2019 2019 2019 2019 
2019 2019 2019 2019 2019 2019 2019 2019 2019 
2019 2019 2019 2019 2019 2019 2019 2019 2019 
2019 2019 2019 2019 2019 2019 2019 2019 2019 
2019 2019 2019 2019 2019 2019 2019 2019 2019 
2019 2019 2019 2019 2019 2019 2019 2019 2019 
2019 2019 2019 2019 2019 2019 2019 2019 2019 
2019 2019 2019 2019 2019 2019 2019 2019 2019 
2019 2019 2019 2019 2019 2019 2019 2019 2019 
2019 2019 2019 2019 2019 2019 2019 2019 2019 
2019 2019 2019 2019 2019 2019 2019 2019 2019 
2019 2019 2019 2019 2019 2019 2019 2019 2019 
2019 2019 2019 2019 2019 2019 2019 2019 2019 
2019 2019 2019 2019 2019 2019 2019 2019 2019 
2019 2019 2019 2019 2019 2019 2019 2019 2019 
2019 2019 2019 2019 2019 2019 2019 2019 2019 
2019 2019 2019 2019 2019 2019 2019 2019 2019 
2019 2019 2019 2019 2019 2019 2019 2019 2019 
2019 2019 2019 2019 2019 2019 2019 2019 2019 
2019 2019 2019 2019 2019 2019 2019 2019 2019 
2019 2019 2019 2019 2019 2019 2019 2019 2019 
2019 2019 2019 2019 2019 2019 2019 2019 2019 
2019 2019 2019 2019 2019 2019 2019 2019 2019 
2019 2019 2019 2019 2019 2019 2019 2019 2019 
2019 2019 2019 2019 2019 2019 2019 2019 2019 
2019 2019 2019 2019 2019 2019 2019 2019 2019 
2019 2019 2019 2019 2019 2019 2019 2019 2019 
2019 2019 2019 2019 2019 2019 2019 2019 2019 
2019 2019 2019 2019 2019 2019 2019 2019 2019 
2019 2019 2019 2019 2019 2019 2019 2019 2019 
2019 2019 2019 2019 2019 2019 2019 2019 2019 
2019 2019 2019 2019 2019 2019 2019 2019 2019 
2019 2019 2019 2019 2019 2019 2019 2019 2019 
2019 2019 2019 2019 2019 2019 2019 2019 2019 
2019 2019 2019 2019 2019 2019 2019 2019 2019 
2019 2019 2019 2019 2019 2019 2019 2019 2019 
2019 2019 2019 2019 2019 2019 2019 2019 2019 
2019 2019 2019 2019 2019 2019 2019 2019 2019 
2019 2019 2019 2019 2019 2019 2019 2019 2019 
2019 2019 2019 2019 2019 2019 2019 2019 2019 
2019 2019 2019 2019 2019 2019 2019 2019 2019 
2019 2019 2019 2019 2019 2019 2019 2019 2019 
2019 2019 2019 2019 2019 2019 2019 2019 2019 
2019 2019 2019 2019 2019 2019 2019 2019 2019 
2019 2019 2019 2019 2019 2019 2019 2019 2019 
2019 2019 2019 2019 2019 2019 2019 2019 2019 
2019 2019 2019 2019 2019 2019 2019 2019 2019 
2019 2019 2019 2019 2019 2019 2019 2019 2019 
2019 2019 2019 2019 2019 2019 2019 2019 2019 
2019 2019 2019 2019 2019 2019 2019 2019 2019 
2019 2019 2019 2019 2019 2019 2019 2019 2019 
2019 2019 2019 2019 2019 2019 2019 2019 2019 
2019 2019 2019 2019 2019 2019 2019 2019 2019 
2019 2019 2019 2019 2019 2019 2019 2019 2019 
2019 2019 2019 2019 2019 2019 2019 2019 2019 
2019 2019 2019 2019 2019 2019 2019 2019 2019 
2019 2019 2019 2019 2019 2019 2019 2019 2019 
2019 2019 2019 2019 2019 2019 2019 2019 2019 
2019 2019 2019 2019 2019 2019 2019 2019 2019 
2019 2019 2019 2019 2019 2019 2019 2019 2019 
2019 2019 2019 2019 2019 2019 2019 2019 2019 
2019 2019 2019 2019 2019 2019 2019 2019 2019 
2019 2019 2019 2019 2019 2019 2019 2019 2019 
2019 2019 2019 2019 2019 2019 2019 2019 2019 
2019 2019 2019 2019 2019 2019 2019 2019 2019 
2019 2019 2019 2019 2019 2019 2019 2019 2019 
2019 2019 2019 2019 2019 2019 2019 2019 2019 
2019 2019 2019 2019 2019 2019 2019 2019 2019 
2019 2019 2019 2019 2019 2019 2019 2019 2019 
2019 2019 2019 2019 2019 2019 2019 2019 2019 
2019 2019 2019 2019 2019 2019 2019 2019 2019 
2019 2019 2019 2019 2019 2019 2019 2019 2019 
2019 2019 2019 2019 2019 2019 2019 2019 2019 
2019 2019 2019 2019 2019 2019 2019 2019 2019 
2019 2019 2019 2019 2019 2019 2019 2019 2019 
2019 2019 2019 2019 2019 2019 2019 2019 2019 
2019 2019 2019 2019 2019 2019 2019 2019 2019 
2019 2019 2019 2019 2019 2019 2019 2019 2019 
2019 2019 2019 2019 2019 2019 2019 2019 2019 
2019 2019 2019 2019 2019 2019 2019 2019 2019 
2019 2019 2019 2019 2019 2019 2019 2019 2019 
2019 2019 2019 2019 2019 2019 2019 2019 2019 
2019 2019 2019 2019 2019 2019 2019 2019 2019 
2019 2019 2019 2019 2019 2019 2019 2019 2019 
2019 2019 2019 2019 2019 2019 2019 2019 2019 
2019 2019 2019 2019 2019 2019 2019 2019 2019 
2019 2019 2019 2019 2019 2019 2019 2019 2019 
2019 2019 2019 2019 2019 2019 2019 2019 2019 
2019 2019 2019 2019 2019 2019 2019 2019 2019 
2019 2019 2019 2019 2019 2019 2019 2019 2019 
2019 2019 2019 2019 2019 2019 2019 2019 2019 
2019 2019 2019 2019 2019 2019 2019 2019 2019 
2019 2019 2019 2019 2019 2019 2019 2019 2019 
2019 2019 2019 2019 2019 2019 2019 2019 2019 
2019 2019 2019 2019 2019 2019 2019 2019 2019 
2019 2019 2019 2019 2019 2019 2019 2019 2019 
2019 2019 2019 2019 2019 2019 2019 2019 2019 
2019 2019 2019 2019 2019 2019 2019 2019 2019 
2019 2019 2019 2019 2019 2019 2019 2019 2019 
2019 2019 2019 2019 2019 2019 2019 2019 2019 
2019 2019 2019 2019 2019 2019 2019 2019 2019 
2019 2019 2019 2019 2019 2019 2019 2019 2019 
2019 2019 2019 2019 2019 2019 2019 2019 2019 
2019 2019 2019 2019 2019 2019 2019 2019 2019 
2019 2019 2019 2019 2019 2019 2019 2019 2019 
2019 2019 2019 2019 2019 2019 2019 2019 2019 
2019 2019 2019 2019 2019 2019 2019 2019 2019 
2019 2019 2019 2019 2019 2019 2019 2019 2019 
2019 2019 2019 2019 2019 2019 2019 2019 2019 
2019 2019 2019 2019 2019 2019 2019 2019 2019 
2019 2019 2019 2019 2019 2019 2019 2019 2019 
2019 2019 2019 2019 2019 2019 2019 2019 2019 
2019 2019 2019 2019 2019 2019 2019 2019 2019 
2019 2019 2019 2019 2019 2019 2019 2019 2019 
2019 2019 2019 2019 2019 2019 2019 2019 2019 
2019 2019 2019 2019 2019 2019 2019 2019 2019 
2019 2019 2019 2019 2019 2019 2019 2019 2019 
2019 2019 2019 2019 2019 2019 2019 2019 2019 
2019 2019 2019 2019 2019 2019 2019 2019 2019 
2019 2019 2019 2019 2019 2019 2019 2019 2019 
2019 2019 2019 2019 2019 2019 2019 2019 2019 
2019 2019 2019 2019 2019 2019 2019 2019 2019 
2019 2019 2019 2019 2019 2019 2019 2019 2019 
2019 2019 2019 2019 2019 2019 2019 2019 2019 
2019 2019 2019 2019 2019 2019 2019 2019 2019 
2019 2019 2019 2019 2019 2019 2019 2019 2019 
2019 2019 2019 2019 2019 2019 2019 2019 2019 
2019 2019 2019 2019 2019 2019 2019 2019 2019 
2019 2019 2019 2019 2019 2019 2019 2019 2019 
2019 2019 2019 2019 2019 2019 2019 2019 2019 
2019 2019 2019 2019 2019 2019 2019 2019 2019 
2019 2019 2019 2019 2019 2019 2019 2019 2019 
2019 2019 2019 2019 2019 2019 2019 2019 2019 
2019 2019 2019 2019 2019 2019 2019 2019 2019 
2019 2019 2019 2019 2019 2019 2019 2019 2019 
2019 2019 2019 2019 2019 2019 2019 2019 2019 
2019 2019 2019 2019 2019 2019 2019 2019 2019 
2019 2019 2019 2019 2019 2019 2019 2019 2019 
2019 2019 2019 2019 2019 2019 2019 2019 2019 
2019 2019 2019 2019 2019 2019 2019 2019 2019 
2019 2019 2019 2019 2019 2019 2019 2019 2019 
2019 2019 2019 2019 2019 2019 2019 2019 2019 
2019 2019 2019 2019 2019 2019 2019 2019 2019 
2019 2019 2019 2019 2019 2019 2019 2019 2019 
2019 2019 2019 2019 2019 2019 2019 2019 2019 
2019 2019 2019 2019 2019 2019 2019 2019 2019 
2019 2019 2019 2019 2019 2019 2019 2019 2019 
2019 2019 2019 2019 2019 2019 2019 2019 2019 
2019 2019 2019 2019 2019 2019 2019 2019 2019 
2019 2019 2019 2019 2019 2019 2019 2019 2019 
2019 2019 2019 2019 2019 2019 2019 2019 2019 
2019 2019 2019 2019 2019 2019 2019 2019 2019 
2019 2019 2019 2019 2019 2019 2019 2019 2019 
2019 2019 2019 2019 2019 2019 2019 2019 2019 
2019 2019 2019 2019 2019 2019 2019 2019 2019 
2019 2019 2019 2019 2019 2019 2019 2019 2019 
2019 2019 2019 2019 2019 2019 2019 2019 2019 
2019 2019 2019 2019 2019 2019 2019 2019 2019 
2019 2019 2019 2019 2019 2019 2019 2019 2019 
2019 2019 2019 2019 2019 2019 2019 2019 2019 
2019 2019 2019 2019 2019 2019 2019 2019 2019 
2019 2019 2019 2019 2019 2019 2019 2019 2019 
2019 2019 2019 2019 2019 2019 2019 2019 2019 
2019 2019 2019 2019 2019 2019 2019 2019 2019 
2019 2019 2019 2019 2019 2019 2019 2019 2019 
2019 2019 2019 2019 2019 2019 2019 2019 2019 
2019 2019 2019 2019 2019 2019 2019 2019 2019 
2019 2019 2019 2019 2019 2019 2019 2019 2019 
2019 2019 2019 2019 2019 2019 2019 2019 2019 
2019 2019 2019 2019 2019 2019 2019 2019 2019 
2019 2019 2019 2019 2019 2019 2019 2019 2019 
2019 2019 2019 2019 2019 2019 2019 2019 2019 
2019 2019 2019 2019 2019 2019 2019 2019 2019 
2019 2019 2019 2019 2019 2019 2019 2019 2019 
2019 2019 2019 2019 2019 2019 2019 2019 2019 
2019 2019 2019 2019 2019 2019 2019 2019 2019 
2019 2019 2019 2019 2019 2019 2019 2019 2019 
2019 2019 2019 2019 2019 2019 2019 2019 2019 
2019 2019 2019 2019 2019 2019 2019 2019 2019 
2019 2019 2019 2019 2019 2019 2019 2019 2019 
2019 2019 2019 2019 2019 2019 2019 2019 2019 
2019 2019 2019 2019 2019 2019 2019 2019 2019 
2019 2019 2019 2019 2019 2019 2019 2019 2019 
2019 2019 2019 2019 2019 2019 2019 2019 2019 
2019 2019 2019 2019 2019 2019 2019 2019 2019 
2019 2019 2019 2019 2019 2019 2019 2019 2019 
2019 2019 2019 2019 2019 2019 2019 2019 2019 
2019 2019 2019 2019 2019 2019 2019 2019 2019 
2019 2019 2019 2019 2019 2019 2019 2019 2019 
2019 2019 2019 2019 2019 2019 2019 2019 2019 
2019 2019 2019 2019 2019 2019 2019 2019 2019 
2019 2019 2019 2019 2019 2019 2019 2019 2019 
2019 2019 2019 2019 2019 2019 2019 2019 2019 
2019 2019 2019 2019 2019 2019 2019 2019 2019 
2019 2019 2019 2019 2019 2019 2019 2019 2019 
2019 2019 2019 2019 2019 2019 2019 2019 2019 
2019 2019 2019 2019 2019 2019 2019 2019 2019 
2019 2019 2019 2019 2019 2019 2019 2019 2019 
2019 2019 2019 2019 2019 2019 2019 2019 2019 
2019 2019 2019 2019 2019 2019 2019 2019 2019 
2019 2019 2019 2019 2019 2019 2019 2019 2019 
2019 2019 2019 2019 2019 2019 2019 2019 2019 
2019 2019 2019 2019 2019 2019 2019 2019 2019 
2019 2019 2019 2019 2019 2019 2019 2019 2019 
2019 2019 2019 2019 2019 2019 2019 2019 2019 
2019 2019 2019 2019 2019 2019 2019 2019 2019 
2019 2019 2019 2019 2019 2019 2019 2019 2019 
2019 2019 2019 2019 2019 2019 2019 2019 2019 
2019 2019 2019 2019 2019 2019 2019 2019 2019 
2019 2019 2019 2019 2019 2019 2019 2019 2019 
2019 2019 2019 2019 2019 2019 2019 2019 2019 
2019 2019 2019 2019 2019 2019 2019 2019 2019 
2019 2019 2019 2019 2019 2019 2019 2019 2019 
2019 2019 2019 2019 2019 2019 2019 2019 2019 
2019 2019 2019 2019 2019 2019 2019 2019 2019 
2019 2019 2019 2019 2019 2019 2019 2019 2019 
2019 2019 2019 2019 2019 2019 2019 2019 2019 
2019 2019 2019 2019 2019 2019 2019 2019 2019 
2019 2019 2019 2019 2019 2019 2019 2019 2019 
2019 2019 2019 2019 2019 2019 2019 2019 2019 
2019 2019 2019 2019 2019 2019 2019 2019 2019 
2019 2019 2019 2019 2019 2019 2019 2019 2019 
2019 2019 2019 2019 2019 2019 2019 2019 2019 
2019 2019 2019 2019 2019 2019 2019 2019 2019 
2019 2019 2019 2019 2019 2019 2019 2019 2019 
2019 2019 2019 2019 2019 2019 2019 2019 2019 
2019 2019 2019 2019 2019 2019 2019 2019 2019 
2019 2019 2019 2019 2019 2019 2019 2019 2019 
2019 2019 2019 2019 2019 2019 2019 2019 2019 
2019 2019 2019 2019 2019 2019 2019 2019 2019 
2019 2019 2019 2019 2019 2019 2019 2019 2019 
2019 2019 2019 2019 2019 2019 2019 2019 2019 
2019 2019 2019 2019 2019 2019 2019 2019 2019 
2019 2019 2019 2019 2019 2019 2019 2019 2019 
2019 2019 2019 2019 2019 2019 2019 2019 2019 
2019 2019 2019 2019 2019 2019 2019 2019 2019 
2019 2019 2019 2019 2019 2019 2019 2019 2019 
2019 2019 2019 2019 2019 2019 2019 2019 2019 
2019 2019 2019 2019 2019 2019 2019 2019 2019 
2019 2019 2019 2019 2019 2019 2019 2019 2019 
2019 2019 2019 2019 2019 2019 2019 2019 2019 
2019 2019 2019 2019 2019 2019 2019 2019 2019 
2019 2019 2019 2019 2019 2019 2019 2019 2019 
2019 2019 2019 2019 2019 2019 2019 2019 2019 
2019 2019 2019 2019 2019 2019 2019 2019 2019 
2019 2019 2019 2019 2019 2019 2019 2019 2019 
2019 2019 2019 2019 2019 2019 2019 2019 2019 
2019 2019 2019 2019 2019 2019 2019 2019 2019 
2019 2019 2019 2019 2019 2019 2019 2019 2019 
2019 2019 2019 2019 2019 2019 2019 2019 2019 
2019 2019 2019 2019 2019 2019 2019 2019 2019 
2019 2019 2019 2019 2019 2019 2019 2019 2019 
2019 2019 2019 2019 2019 2019 2019 2019 2019 
2019 2019 2019 2019 2019 2019 2019 2019 2019 
2019 2019 2019 2019 2019 2019 2019 2019 2019 
2019 2019 2019 2019 2019 2019 2019 2019 2019 
2019 2019 2019 2019 2019 2019 2019 2019 2019 
2019 2019 2019 2019 2019 2019 2019 2019 2019 
2019 2019 2019 2019 2019 2019 2019 2019 2019 
2019 2019 2019 2019 2019 2019 2019 2019 2019 
2019 2019 2019 2019 2019 2019 2019 2019 2019 
2019 2019 2019 2019 2019 2019 2019 2019 2019 
2019 2019 2019 2019 2019 2019 2019 2019 2019 
2019 2019 2019 2019 2019 2019 2019 2019 2019 
2019 2019 2019 2019 2019 2019 2019 2019 2019 
2019 2019 2019 2019 2019 2019 2019 2019 2019 
2019 2019 2019 2019 2019 2019 2019 2019 2019 
2019 2019 2019 2019 2019 2019 2019 2019 2019 
2019 2019 2019 2019 2019 2019 2019 2019 2019 
2019 2019 2019 2019 2019 2019 2019 2019 2019 
2019 2019 2019 2019 2019 2019 2019 2019 2019 
2019 2019 2019 2019 2019 2019 2019 2019 2019 
2019 2019 2019 2019 2019 2019 2019 2019 2019 
2019 2019 2019 2019 2019 2019 2019 2019 2019 
2019 2019 2019 2019 2019 2019 2019 2019 2019 
2019 2019 2019 2019 2019 2019 2019 2019 2019 
2019 2019 2019 2019 2019 2019 2019 2019 2019 
2019 2019 2019 2019 2019 2019 2019 2019 2019 
2019 2019 2019 2019 2019 2019 2019 2019 2019 
2019 2019 2019 2019 2019 2019 2019 2019 2019 
2019 2019 2019 2019 2019 2019 2019 2019 2019 
2019 2019 2019 2019 2019 2019 2019 2019 2019 
2019 2019 2019 2019 2019 2019 2019 2019 2019 
2019 2019 2019 2019 2019 2019 2019 2019 2019 
2019 2019 2019 2019 2019 2019 2019 2019 2019 
2019 2019 2019 2019 2019 2019 2019 2019 2019 
2019 2019 2019 2019 2019 2019 2019 2019 2019 
2019 2019 2019 2019 2019 2019 2019 2019 2019 
2019 2019 2019 2019 2019 2019 2019 2019 2019 
2019 2019 2019 2019 2019 2019 2019 2019 2019 
2019 2019 2019 2019 2019 2019 2019 2019 2019 
2019 2019 2019 2019 2019 2019 2019 2019 2019 
2019 2019 2019 2019 2019 2019 2019 2019 2019 
2019 2019 2019 2019 2019 2019 2019 2019 2019 
2019 2019 2019 2019 2019 2019 2019 2019 2019 
2019 2019 2019 2019 2019 2019 2019 2019 2019 
2019 2019 2019 2019 2019 2019 2019 2019 2019 
2019 2019 2019 2019 2019 2019 2019 2019 2019 
2019 2019 2019 2019 2019 2019 2019 2019 2019 
2019 2019 2019 2019 2019 2019 2019 2019 2019 
2019 2019 2019 2019 2019 2019 2019 2019 2019 
2019 2019 2019 2019 2019 2019 2019 2019 2019 
2019 2019 2019 2019 2019 2019 2019 2019 2019 
2019 2019 2019 2019 2019 2019 2019 2019 2019 
2019 2019 2019 2019 2019 2019 2019 2019 2019 
2019 2019 2019 2019 2019 2019 2019 2019 2019 
2019 2019 2019 2019 2019 2019 2019 2019 2019 
2019 2019 2019 2019 2019 2019 2019 2019 2019 
2019 2019 2019 2019 2019 2019 2019 2019 2019 
2019 2019 2019 2019 2019 2019 2019 2019 2019 
2019 2019 2019 2019 2019 2019 2019 2019 2019 
2019 2019 2019 2019 2019 2019 2019 2019 2019 
2019 2019 2019 2019 2019 2019 2019 2019 2019 
2019 2019 2019 2019 2019 2019 2019 2019 2019 
2019 2019 2019 2019 2019 2019 2019 2019 2019 
2019 2019 2019 2019 2019 2019 2019 2019 2019 
2019 2019 2019 2019 2019 2019 2019 2019 2019 
2019 2019 2019 2019 2019 2019 2019 2019 2019 
2019 2019 2019 2019 2019 2019 2019 2019 2019 
2019 2019 2019 2019 2019 2019 2019 2019 2019 
2019 2019 2019 2019 2019 2019 2019 2019 2019 
2019 2019 2019 2019 2019 2019 2019 2019 2019 
2019 2019 2019 2019 2019 2019 2019 2019 2019 
2019 2019 2019 2019 2019 2019 2019 2019 2019 
2019 2019 2019 2019 2019 2019 2019 2019 2019 
2019 2019 2019 2019 2019 2019 2019 2019 2019 
2019 2019 2019 2019 2019 2019 2019 2019 2019 
2019 2019 2019 2019 2019 2019 2019 2019 2019 
2019 2019 2019 2019 2019 2019 2019 2019 2019 
2019 2019 2019 2019 2019 2019 2019 2019 2019 
2019 2019 2019 2019 2019 2019 2019 2019 2019 
2019 2019 2019 2019 2019 2019 2019 2019 2019 
2019 2019 2019 2019 2019 2019 2019 2019 2019 
2019 2019 2019 2019 2019 2019 2019 2019 2019 
2019 2019 2019 2019 2019 2019 2019 2019 2019 
2019 2019 2019 2019 2019 2019 2019 2019 2019 
2019 2019 2019 2019 2019 2019 2019 2019 2019 
2019 2019 2019 2019 2019 2019 2019 2019 2019 
2019 2019 2019 2019 2019 2019 2019 2019 2019 
2019 2019 2019 2019 2019 2019 2019 2019 2019 
2019 2019 2019 2019 2019 2019 2019 2019 2019 
2019 2019 2019 2019 2019 2019 2019 2019 2019 
2019 2019 2019 2019 2019 2019 2019 2019 2019 
2019 2019 2019 2019 2019 2019 2019 2019 2019 
2019 2019 2019 2019 2019 2019 2019 2019 2019 
2019 2019 2019 2019 2019 2019 2019 2019 2019 
2019 2019 2019 2019 2019 2019 2019 2019 2019 
2019 2019 2019 2019 2019 2019 2019 2019 2019 
2019 2019 2019 2019 2019 2019 2019 2019 2019 
2019 2019 2019 2019 2019 2019 2019 2019 2019 
2019 2019 2019 2019 2019 2019 2019 2019 2019 
2019 2019 2019 2019 2019 2019 2019 2019 2019 
2019 2019 2019 2019 2019 2019 2019 2019 2019 
2019 2019 2019 2019 2019 2019 2019 2019 2019 
2019 2019 2019 2019 2019 2019 2019 2019 2019 
2019 2019 2019 2019 2019 2019 2019 2019 2019 
2019 2019 2019 2019 2019 2019 2019 2019 2019 
2019 2019 2019 2019 2019 2019 2019 2019 2019 
2019 2019 2019 2019 2019 2019 2019 2019 2019 
2019 2019 2019 2019 2019 2019 2019 2019 2019 
2019 2019 2019 2019 2019 2019 2019 2019 2019 
2019 2019 2019 2019 2019 2019 2019 2019 2019 
2019 2019 2019 2019 2019 2019 2019 2019 2019 
2019 2019 2019 2019 2019 2019 2019 2019 2019 
2019 2019 2019 2019 2019 2019 2019 2019 2019 
2019 2019 2019 2019 2019 2019 2019 2019 2019 
2019 2019 2019 2019 2019 2019 2019 2019 2019 
2019 2019 2019 2019 2019 2019 2019 2019 2019 
2019 2019 2019 2019 2019 2019 2019 2019 2019 
2019 2019 2019 2019 2019 2019 2019 2019 2019 
2019 2019 2019 2019 2019 2019 2019 2019 2019 
2019 2019 2019 2019 2019 2019 2019 2019 2019 
2019 2019 2019 2019 2019 2019 2019 2019 2019 
2019 2019 2019 2019 2019 2019 2019 2019 2019 
2019 2019 2019 2019 2019 2019 2019 2019 2019 
2019 2019 2019 2019 2019 2019 2019 2019 2019 
2019 2019 2019 2019 2019 2019 2019 2019 2019 
2019 2019 2019 2019 2019 2019 2019 2019 2019 
2019 2019 2019 2019 2019 2019 2019 2019 2019 
2019 2019 2019 2019 2019 2019 2019 2019 2019 
2019 2019 2019 2019 2019 2019 2019 2019 2019 
2019 2019 2019 2019 2019 2019 2019 2019 2019 
2019 2019 2019 2019 2019 2019 2019 2019 2019 
2019 2019 2019 2019 2019 2019 2019 2019 2019 
2019 2019 2019 2019 2019 2019 2019 2019 2019 
2019 2019 2019 2019 2019 2019 2019 2019 2019 
2019 2019 2019 2019 2019 2019 2019 2019 2019 
2019 2019 2019 2019 2019 2019 2019 2019 2019 
2019 2019 2019 2019 2019 2019 2019 2019 2019 
2019 2019 2019 2019 2019 2019 2019 2019 2019 
2019 2019 2019 2019 2019 2019 2019 2019 2019 
2019 2019 2019 2019 2019 2019 2019 2019 2019 
2019 2019 2019 2019 2019 2019 2019 2019 2019 
2019 2019 2019 2019 2019 2019 2019 2019 2019 
2019 2019 2019 2019 2019 2019 2019 2019 2019 
2019 2019 2019 2019 2019 2019 2019 2019 2019 
2019 2019 2019 2019 2019 2019 2019 2019 2019 
2019 2019 2019 2019 2019 2019 2019 2019 2019 
2019 2019 2019 2019 2019 2019 2019 2019 2019 
2019 2019 2019 2019 2019 2019 2019 2019 2019 
2019 2019 2019 2019 2019 2019 2019 2019 2019 
2019 2019 2019 2019 2019 2019 2019 2019 2019 
2019 2019 2019 2019 2019 2019 2019 2019 2019 
2019 2019 2019 2019 2019 2019 2019 2019 2019 
2019 2019 2019 2019 2019 2019 2019 2019 2019 
2019 2019 2019 2019 2019 2019 2019 2019 2019 
2019 2019 2019 2019 2019 2019 2019 2019 2019 
2019 2019 2019 2019 2019 2019 2019 2019 2019 
2019 2019 2019 2019 2019 2019 2019 2019 2019 
2019 2019 2019 2019 2019 2019 2019 2019 2019 
2019 2019 2019 2019 2019 2019 2019 2019 2019 
2019 2019 2019 2019 2019 2019 2019 2019 2019 
2019 2019 2019 2019 2019 2019 2019 2019 2019 
2019 2019 2019 2019 2019 2019 2019 2019 2019 
2019 2019 2019 2019 2019 2019 2019 2019 2019 
2019 2019 2019 2019 2019 2019 2019 2019 2019 
2019 2019 2019 2019 2019 2019 2019 2019 2019 
2019 2019 2019 2019 2019 2019 2019 2019 2019 
2019 2019 2019 2019 2019 2019 2019 2019 2019 
2019 2019 2019 2019 2019 2019 2019 2019 2019 
2019 2019 2019 2019 2019 2019 2019 2019 2019 
2019 2019 2019 2019 2019 2019 2019 2019 2019 