# vtk DataFile Version 4.2
vtk output
ASCII
DATASET POLYDATA
POINTS 17200 float
35.4701 -9.42028 7.72882 35.6432 -9.06865 7.49517 35.933 -9.36998 7.57434 
34.9603 -9.41541 7.68181 35.1561 -9.01817 7.52919 34.7385 -9.22689 7.4928 
35.9903 -9.8504 7.73302 36.3042 -9.62607 7.48848 36.4922 -10.086 7.53098 
35.5822 -9.87129 7.83901 35.1751 -9.91573 7.73386 34.7022 -9.69825 7.52393 
36.1962 -10.5623 7.76514 36.623 -10.536 7.58115 35.6109 -10.4095 7.76772 
35.1867 -10.4435 7.57742 34.8739 -10.1533 7.48861 36.5831 -11.0682 7.74463 
36.8161 -10.7868 7.53259 37.0426 -11.2105 7.51207 36.0822 -11.2082 7.85325 
35.6844 -11.1009 7.76046 35.2845 -10.9398 7.54183 36.8159 -11.7851 7.78708 
37.2319 -11.7666 7.60966 36.188 -11.709 7.86275 35.6636 -11.715 7.77758 
35.2784 -11.5526 7.5409 37.2729 -12.1596 7.68285 37.4757 -11.9634 7.45385 
37.5871 -12.3856 7.33085 36.9091 -12.2962 7.74965 36.3588 -12.2317 7.77779 
35.7665 -12.2285 7.7327 35.2533 -12.2525 7.42086 37.2121 -12.567 7.53089 
36.6383 -12.6014 7.55081 36.0213 -12.6053 7.54161 35.5561 -12.6121 7.43767 
37.4316 -14.8809 7.68325 37.4987 -14.5257 7.50079 37.7407 -14.7747 7.59345 
37.1914 -14.6323 7.48729 37.7896 -15.2243 7.69126 38.0326 -14.9295 7.44971 
38.1592 -15.2176 7.38991 37.39 -15.3568 7.73458 37.0881 -15.1155 7.53501 
38.0361 -15.6296 7.46646 37.8681 -15.9813 7.5809 37.4525 -15.9354 7.72438 
37.0645 -15.6923 7.53487 37.8061 -16.4464 7.73108 38.11 -16.2331 7.49416 
38.2773 -16.6772 7.53347 37.2958 -16.5877 7.83901 36.9051 -16.1544 7.55276 
36.7603 -16.575 7.72232 36.5324 -16.4231 7.46499 37.9385 -17.078 7.75678 
38.3422 -17.2494 7.53923 37.4075 -17.0708 7.84857 36.7902 -17.1075 7.84444 
36.2208 -16.7101 7.56121 36.1789 -17.0494 7.73985 35.7286 -17.2709 7.63684 
35.7694 -16.836 7.51626 35.4169 -17 7.45498 37.9514 -17.6797 7.75118 
38.3282 -17.8584 7.44961 37.4305 -17.6714 7.83763 36.8172 -17.7124 7.83447 
36.1823 -17.6617 7.7371 35.7726 -17.6758 7.53243 35.4759 -17.3634 7.45575 
34.9698 -17.4922 7.50953 35.2158 -17.8157 7.47436 34.9197 -17.8001 7.61542 
34.7697 -17.6115 7.48278 37.9368 -18.2685 7.75486 38.2212 -18.3746 7.52372 
37.4166 -18.2754 7.83706 36.8068 -18.3177 7.82736 36.157 -18.3618 7.73281 
35.8516 -18.122 7.495 35.0375 -18.3714 7.67869 35.3921 -18.3658 7.54913 
34.6749 -18.1177 7.52262 37.9225 -18.824 7.70982 38.2132 -18.9081 7.32552 
37.4016 -18.8803 7.83818 36.7804 -18.9118 7.84066 36.1545 -18.9341 7.82844 
35.6944 -18.4811 7.54138 35.4872 -18.8636 7.76072 34.9622 -19.0125 7.74297 
34.6718 -18.7565 7.53838 37.9272 -19.2357 7.57571 37.7481 -19.7053 7.54862 
37.4249 -19.4809 7.78075 36.7808 -19.5251 7.84857 36.1668 -19.5363 7.83799 
35.5639 -19.5348 7.83537 35.0351 -19.529 7.76494 34.6605 -19.3766 7.54186 
37.3107 -20.094 7.72471 37.6374 -20.0734 7.53412 36.8719 -20.0305 7.84419 
36.333 -20.1707 7.77906 35.7082 -20.0687 7.751 35.1494 -20.0478 7.71769 
34.7006 -19.944 7.53546 37.4634 -20.4271 7.47414 37.1481 -20.7813 7.43077 
36.8481 -20.5343 7.7034 36.4156 -20.6459 7.58517 35.9696 -20.493 7.54096 
35.3958 -20.4282 7.52303 34.8991 -20.3383 7.48884 36.6969 -20.8926 7.33307 
35.5348 -7.65729 7.10883 35.7239 -7.32316 6.92455 35.9871 -7.54114 6.99155 
35.2621 -7.57381 6.78395 36.0107 -8.04089 7.1243 36.2579 -7.7185 6.83893 
36.4011 -8.16282 6.84573 35.475 -8.14514 7.24457 34.9251 -7.74905 6.927 
34.8964 -8.0632 7.18874 34.3615 -8.21246 7.10381 34.4972 -7.89731 6.96641 
34.1928 -8.08303 6.81927 36.2806 -8.69063 7.1458 36.6005 -8.68768 6.88758 
35.6662 -8.6653 7.30979 34.9382 -8.70312 7.32156 34.4259 -8.67731 7.16769 
34.1215 -8.52202 6.85262 36.6581 -9.18451 7.10644 36.8473 -8.97383 6.82383 
36.9654 -9.35311 6.82979 36.1871 -9.20964 7.33432 34.4229 -9.34808 7.24306 
34.0479 -9.12767 6.8394 36.7052 -9.73191 7.22372 37.0261 -9.91206 6.84002 
34.4572 -10.0623 7.23349 34.0563 -9.7561 6.94437 36.9096 -10.4765 7.28793 
37.1912 -10.4745 6.88011 34.8426 -10.6211 7.32686 34.3905 -10.5976 7.11465 
34.0687 -10.359 6.93211 37.2973 -10.9956 7.14634 37.4419 -10.777 6.8195 
37.578 -11.1561 6.85025 34.9845 -11.2016 7.33663 34.5834 -11.1498 7.11161 
34.0799 -11.0353 6.79412 37.4195 -11.527 7.29145 37.6485 -11.7619 6.96548 
34.9116 -11.7772 7.23095 34.6189 -11.753 6.86672 34.3588 -11.4404 6.80885 
37.7919 -12.3214 6.86126 34.9605 -12.2629 7.16957 34.7965 -12.2754 6.84586 
37.4184 -13.0061 7.26423 37.812 -12.8624 7.04541 36.8089 -12.969 7.31289 
36.2789 -12.9017 7.32556 35.7638 -12.9911 7.18893 35.251 -12.9141 6.91526 
34.9686 -12.6166 6.91776 37.8133 -13.4598 7.11401 38.0549 -13.1504 6.83268 
38.1926 -13.5644 6.8277 37.3015 -13.5848 7.21899 36.804 -13.4911 7.21111 
36.1959 -13.4107 7.14355 35.7703 -13.4373 6.95601 35.5161 -13.2464 6.83453 
37.9871 -13.9789 7.10833 38.3129 -14.1806 6.85654 37.416 -14.1567 7.28455 
36.7775 -14.1052 7.22112 36.253 -14.0914 7.11904 35.8655 -14.0281 6.85352 
37.9169 -14.4915 7.27578 38.3197 -14.8742 7.03715 36.7811 -14.7677 7.29707 
36.2647 -14.7241 7.12409 35.9752 -14.6195 6.91607 38.3952 -15.3973 7.07731 
36.6992 -15.4786 7.29367 36.274 -15.3429 7.09476 35.9793 -15.1644 6.80852 
38.4536 -15.8304 7.1411 38.661 -15.568 6.81356 38.7759 -15.9421 6.81514 
38.1592 -15.9768 7.37527 36.6319 -16.0413 7.32488 36.1485 -15.9617 7.11555 
35.8773 -15.7118 6.76339 34.9058 -16.1005 7.08518 35.1571 -15.7705 6.75327 
35.3426 -16.0095 6.95535 34.6788 -15.776 6.81778 38.5106 -16.3249 7.22687 
38.8298 -16.4886 6.83956 36.1295 -16.4357 7.32497 35.686 -16.0494 6.93819 
35.4683 -16.4402 7.22053 34.8691 -16.5884 7.23377 34.3341 -16.1 6.86122 
34.4574 -16.5164 7.12443 34.0924 -16.493 6.85751 38.6321 -16.9323 7.24481 
38.8291 -17.0861 6.83355 35.0398 -17.2189 7.33932 34.4727 -17.0691 7.1555 
34.1016 -16.9398 6.92711 38.6237 -17.4983 7.18999 38.7844 -17.717 6.70872 
35.5246 -17.7423 7.3626 34.461 -17.7371 7.21731 34.0962 -17.5276 6.90604 
38.5735 -17.9543 7.03581 38.4213 -18.3949 7.06751 35.5587 -18.1725 7.38499 
34.386 -18.4465 7.21032 34.0991 -18.1417 6.88787 38.3877 -19.0031 6.79972 
34.3845 -19.0678 7.20389 34.105 -18.7477 6.87162 38.0654 -19.4312 7.33467 
38.2381 -19.4758 6.97561 34.374 -19.6779 7.2087 34.0945 -19.348 6.87086 
32.5422 -19.5267 7.02072 32.4898 -19.3432 6.81684 32.7216 -19.594 6.90812 
32.2801 -19.6427 6.7968 37.9434 -19.9642 7.23721 38.2079 -20.1244 6.70306 
34.4703 -20.2911 7.21259 34.0684 -19.9594 6.89296 32.5138 -19.7641 6.8851 
37.8642 -20.4506 7.03978 37.5105 -20.7026 7.19697 37.7205 -20.7171 6.94938 
36.2257 -20.7748 7.33767 35.7287 -20.7283 7.23778 35.0237 -20.6733 7.21929 
34.4988 -20.7229 7.06979 34.1062 -20.5268 6.91078 32.4535 -20.6495 7.15558 
32.4225 -20.4964 6.89225 32.7243 -20.8577 6.86152 32.1313 -20.8009 7.13462 
32.1212 -20.4797 6.99941 31.8434 -20.6058 6.84004 37.3396 -20.988 6.93009 
36.6491 -21.1067 6.82199 36.1858 -20.9467 7.00624 35.5338 -21.0165 6.86878 
34.8114 -21.0227 6.92248 34.3115 -20.9214 6.87743 32.5611 -21.1066 7.12553 
32.7896 -21.4478 6.79469 32.3044 -21.2385 6.86826 31.961 -20.8508 6.79362 
32.5618 -21.599 6.88907 35.549 -5.80895 6.46501 35.4834 -5.3946 6.2024 
35.8556 -5.78086 6.33212 35.294 -5.65637 6.25054 35.57 -6.40499 6.54844 
36.0302 -6.3384 6.39624 35.258 -6.09877 6.3615 36.0453 -6.78161 6.52149 
36.2759 -6.54804 6.22544 36.3859 -6.94341 6.2347 35.5551 -7.06137 6.7311 
35.0816 -6.56102 6.39363 35.0592 -6.95164 6.52661 34.7785 -6.78053 6.16611 
36.1178 -7.27438 6.68552 36.5112 -7.59448 6.35732 35.0682 -7.34304 6.60634 
34.6948 -7.2865 6.21524 36.629 -8.2348 6.48605 34.8835 -8.07078 6.58552 
35.2589 -8.22339 6.32694 35.0814 -7.72454 6.25505 34.408 -7.83338 6.47706 
34.597 -8.05955 6.2531 34.084 -8.11674 6.34139 36.7734 -8.62783 6.57881 
36.8359 -8.34807 6.22306 36.9871 -8.7824 6.33252 35.0182 -8.56754 6.44794 
35.1808 -8.67404 6.29773 34.7626 -8.5986 6.19678 33.9739 -8.67528 6.26545 
37.0912 -9.33887 6.31639 35.0488 -8.99451 6.18207 33.7986 -9.10629 6.37697 
33.757 -9.50244 6.58813 33.616 -9.302 6.17607 37.1983 -9.94684 6.37892 
33.7577 -10.0626 6.64622 33.5489 -9.74056 6.22203 37.3668 -10.4241 6.57242 
37.4267 -10.1593 6.21611 37.5915 -10.5855 6.34374 33.7671 -10.6621 6.63287 
33.4724 -10.3364 6.22841 37.6998 -11.1274 6.3344 33.76 -11.0493 6.56246 
33.5127 -10.9202 6.33281 37.806 -11.7481 6.39212 34.4335 -11.7944 6.56038 
34.1264 -11.5777 6.4726 33.739 -11.3162 6.37633 37.945 -12.2622 6.51914 
38.0166 -11.9622 6.21007 38.1631 -12.3546 6.24078 34.5962 -12.279 6.36924 
34.3116 -11.96 6.27084 38.0085 -12.7122 6.6691 38.3084 -13.0018 6.35998 
34.956 -12.9272 6.61053 34.7891 -12.8492 6.3494 38.4373 -13.6433 6.48425 
35.5746 -13.688 6.64769 35.2702 -13.5094 6.37773 34.974 -13.2219 6.30689 
38.5736 -14.0762 6.51829 38.662 -13.7604 6.23159 38.7801 -14.1486 6.21931 
35.6479 -14.1606 6.50597 35.4352 -14.0533 6.21012 38.6067 -14.5619 6.60803 
38.814 -14.6951 6.22516 35.794 -14.6988 6.49985 35.5789 -14.4708 6.17436 
38.6306 -15.1237 6.66677 38.8358 -15.34 6.32821 35.7823 -15.301 6.35692 
34.4394 -15.4829 6.5026 34.5273 -15.1626 6.13298 34.6878 -15.286 6.3147 
34.2012 -15.3101 6.16264 38.9019 -15.9219 6.30905 35.5254 -15.6154 6.43914 
35.5268 -15.8677 6.7328 34.9957 -15.4822 6.41052 34.3567 -15.8064 6.72808 
34.0687 -15.7335 6.32257 38.9017 -16.5178 6.31854 33.7965 -16.7171 6.57948 
33.7943 -16.2034 6.32858 33.5029 -16.5017 6.22986 38.8855 -17.115 6.29912 
33.7096 -17.2785 6.60922 33.4629 -16.9059 6.31166 32.4952 -17.2957 6.49672 
32.5404 -16.8567 6.14342 32.9553 -17.1925 6.35965 32.1887 -17.0243 6.23404 
38.8782 -17.6214 6.20606 36.1453 -17.7965 6.46362 36.4302 -17.8022 6.32721 
36.1998 -17.483 6.34683 35.9931 -17.596 6.30661 33.7177 -17.8725 6.67045 
33.3193 -17.2475 6.36921 33.1171 -17.6338 6.56374 32.4744 -17.793 6.65178 
32.0225 -17.2983 6.38407 32.0222 -17.7105 6.52457 31.725 -17.5598 6.15932 
38.6435 -18.2385 6.73531 38.8123 -18.2408 6.30747 36.1825 -18.3193 6.49833 
36.494 -18.524 6.38713 35.8969 -18.1147 6.34972 33.7431 -18.4613 6.6546 
33.2144 -18.2946 6.5963 32.6828 -18.1814 6.63374 32.1531 -18.2496 6.55369 
31.713 -18.2136 6.1596 38.5919 -18.6842 6.58315 38.7745 -18.946 6.10957 
[...]
CELL_DATA 34616
SCALARS scalars float
LOOKUP_TABLE default
2022 2022 2022 2022 2022 2022 2022 2022 2022 
2022 2022 2022 2022 2022 2022 2022 2022 2022 
2022 2022 2022 2022 2022 2022 2022 2022 2022 
2022 2022 2022 2022 2022 2022 2022 2022 2022 
2022 2022 2022 2022 2022 2022 2022 2022 2022 
2022 2022 2022 2022 2022 2022 2022 2022 2022 
2022 2022 2022 2022 2022 2022 2022 2022 2022 
2022 2022 2022 2022 2022 2022 2022 2022 2022 
2022 2022 2022 2022 2022 2022 2022 2022 2022 
2022 2022 2022 2022 2022 2022 2022 2022 2022 
2022 2022 2022 2022 2022 2022 2022 2022 2022 
2022 2022 2022 2022 2022 2022 2022 2022 2022 
2022 2022 2022 2022 2022 2022 2022 2022 2022 
2022 2022 2022 2022 2022 2022 2022 2022 2022 
2022 2022 2022 2022 2022 2022 2022 2022 2022 
2022 2022 2022 2022 2022 2022 2022 2022 2022 
2022 2022 2022 2022 2022 2022 2022 2022 2022 
2022 2022 2022 2022 2022 2022 2022 2022 2022 
2022 2022 2022 2022 2022 2022 2022 2022 2022 
2022 2022 2022 2022 2022 2022 2022 2022 2022 
2022 2022 2022 2022 2022 2022 2022 2022 2022 
2022 2022 2022 2022 2022 2022 2022 2022 2022 
2022 2022 2022 2022 2022 2022 2022 2022 2022 
2022 2022 2022 2022 2022 2022 2022 2022 2022 
2022 2022 2022 2022 2022 2022 2022 2022 2022 
2022 2022 2022 2022 2022 2022 2022 2022 2022 
2022 2022 2022 2022 2022 2022 2022 2022 2022 
2022 2022 2022 2022 2022 2022 2022 2022 2022 
2022 2022 2022 2022 2022 2022 2022 2022 2022 
2022 2022 2022 2022 2022 2022 2022 2022 2022 
2022 2022 2022 2022 2022 2022 2022 2022 2022 
2022 2022 2022 2022 2022 2022 2022 2022 2022 
2022 2022 2022 2022 2022 2022 2022 2022 2022 
2022 2022 2022 2022 2022 2022 2022 2022 2022 
2022 2022 2022 2022 2022 2022 2022 2022 2022 
2022 2022 2022 2022 2022 2022 2022 2022 2022 
2022 2022 2022 2022 2022 2022 2022 2022 2022 
2022 2022 2022 2022 2022 2022 2022 2022 2022 
2022 2022 2022 2022 2022 2022 2022 2022 2022 
2022 2022 2022 2022 2022 2022 2022 2022 2022 
2022 2022 2022 2022 2022 2022 2022 2022 2022 
2022 2022 2022 2022 2022 2022 2022 2022 2022 
2022 2022 2022 2022 2022 2022 2022 2022 2022 
2022 2022 2022 2022 2022 2022 2022 2022 2022 
2022 2022 2022 2022 2022 2022 2022 2022 2022 
2022 2022 2022 2022 2022 2022 2022 2022 2022 
2022 2022 2022 2022 2022 2022 2022 2022 2022 
2022 2022 2022 2022 2022 2022 2022 2022 2022 
2022 2022 2022 2022 2022 2022 2022 2022 2022 
2022 2022 2022 2022 2022 2022 2022 2022 2022 
2022 2022 2022 2022 2022 2022 2022 2022 2022 
2022 2022 2022 2022 2022 2022 2022 2022 2022 
2022 2022 2022 2022 2022 2022 2022 2022 2022 
2022 2022 2022 2022 2022 2022 2022 2022 2022 
2022 2022 2022 2022 2022 2022 2022 2022 2022 
2022 2022 2022 2022 2022 2022 2022 2022 2022 
2022 2022 2022 2022 2022 2022 2022 2022 2022 
2022 2022 2022 2022 2022 2022 2022 2022 2022 
2022 2022 2022 2022 2022 2022 2022 2022 2022 
2022 2022 2022 2022 2022 2022 2022 2022 2022 
2022 2022 2022 2022 2022 2022 2022 2022 2022 
2022 2022 2022 2022 2022 2022 2022 2022 2022 
2022 2022 2022 2022 2022 2022 2022 2022 2022 
2022 2022 2022 2022 2022 2022 2022 2022 2022 
2022 2022 2022 2022 2022 2022 2022 2022 2022 
2022 2022 2022 2022 2022 2022 2022 2022 2022 
2022 2022 2022 2022 2022 2022 2022 2022 2022 
2022 2022 2022 2022 2022 2022 2022 2022 2022 
2022 2022 2022 2022 2022 2022 2022 2022 2022 
2022 2022 2022 2022 2022 2022 2022 2022 2022 
2022 2022 2022 2022 2022 2022 2022 2022 2022 
2022 2022 2022 2022 2022 2022 2022 2022 2022 
2022 2022 2022 2022 2022 2022 2022 2022 2022 
2022 2022 2022 2022 2022 2022 2022 2022 2022 
2022 2022 2022 2022 2022 2022 2022 2022 2022 
2022 2022 2022 2022 2022 2022 2022 2022 2022 
2022 2022 2022 2022 2022 2022 2022 2022 2022 
2022 2022 2022 2022 2022 2022 2022 2022 2022 
2022 2022 2022 2022 2022 2022 2022 2022 2022 
2022 2022 2022 2022 2022 2022 2022 2022 2022 
2022 2022 2022 2022 2022 2022 2022 2022 2022 
2022 2022 2022 2022 2022 2022 2022 2022 2022 
2022 2022 2022 2022 2022 2022 2022 2022 2022 
2022 2022 2022 2022 2022 2022 2022 2022 2022 
2022 2022 2022 2022 2022 2022 2022 2022 2022 
2022 2022 2022 2022 2022 2022 2022 2022 2022 
2022 2022 2022 2022 2022 2022 2022 2022 2022 
2022 2022 2022 2022 2022 2022 2022 2022 2022 
2022 2022 2022 2022 2022 2022 2022 2022 2022 
2022 2022 2022 2022 2022 2022 2022 2022 2022 
2022 2022 2022 2022 2022 2022 2022 2022 2022 
2022 2022 2022 2022 2022 2022 2022 2022 2022 
2022 2022 2022 2022 2022 2022 2022 2022 2022 
2022 2022 2022 2022 2022 2022 2022 2022 2022 
2022 2022 2022 2022 2022 2022 2022 2022 2022 
2022 2022 2022 2022 2022 2022 2022 2022 2022 
2022 2022 2022 2022 2022 2022 2022 2022 2022 
2022 2022 2022 2022 2022 2022 2022 2022 2022 
2022 2022 2022 2022 2022 2022 2022 2022 2022 
2022 2022 2022 2022 2022 2022 2022 2022 2022 
2022 2022 2022 2022 2022 2022 2022 2022 2022 
2022 2022 2022 2022 2022 2022 2022 2022 2022 
2022 2022 2022 2022 2022 2022 2022 2022 2022 
2022 2022 2022 2022 2022 2022 2022 2022 2022 
2022 2022 2022 2022 2022 2022 2022 2022 2022 
2022 2022 2022 2022 2022 2022 2022 2022 2022 
2022 2022 2022 2022 2022 2022 2022 2022 2022 
2022 2022 2022 2022 2022 2022 2022 2022 2022 
2022 2022 2022 2022 2022 2022 2022 2022 2022 
2022 2022 2022 2022 2022 2022 2022 2022 2022 
2022 2022 2022 2022 2022 2022 2022 2022 2022 
2022 2022 2022 2022 2022 2022 2022 2022 2022 
2022 2022 2022 2022 2022 2022 2022 2022 2022 
2022 2022 2022 2022 2022 2022 2022 2022 2022 
2022 2022 2022 2022 2022 2022 2022 2022 2022 
2022 2022 2022 2022 2022 2022 2022 2022 2022 
2022 2022 2022 2022 2022 2022 2022 2022 2022 
2022 2022 2022 2022 2022 2022 2022 2022 2022 
2022 2022 2022 2022 2022 2022 2022 2022 2022 
2022 2022 2022 2022 2022 2022 2022 2022 2022 
2022 2022 2022 2022 2022 2022 2022 2022 2022 
2022 2022 2022 2022 2022 2022 2022 2022 2022 
2022 2022 2022 2022 2022 2022 2022 2022 2022 
2022 2022 2022 2022 2022 2022 2022 2022 2022 
2022 2022 2022 2022 2022 2022 2022 2022 2022 
2022 2022 2022 2022 2022 2022 2022 2022 2022 
2022 2022 2022 2022 2022 2022 2022 2022 2022 
2022 2022 2022 2022 2022 2022 2022 2022 2022 
2022 2022 2022 2022 2022 2022 2022 2022 2022 
2022 2022 2022 2022 2022 2022 2022 2022 2022 
2022 2022 2022 2022 2022 2022 2022 2022 2022 
2022 2022 2022 2022 2022 2022 2022 2022 2022 
2022 2022 2022 2022 2022 2022 2022 2022 2022 
2022 2022 2022 2022 2022 2022 2022 2022 2022 
2022 2022 2022 2022 2022 2022 2022 2022 2022 
2022 2022 2022 2022 2022 2022 2022 2022 2022 
2022 2022 2022 2022 2022 2022 2022 2022 2022 
2022 2022 2022 2022 2022 2022 2022 2022 2022 
2022 2022 2022 2022 2022 2022 2022 2022 2022 
2022 2022 2022 2022 2022 2022 2022 2022 2022 
2022 2022 2022 2022 2022 2022 2022 2022 2022 
2022 2022 2022 2022 2022 2022 2022 2022 2022 
2022 2022 2022 2022 2022 2022 2022 2022 2022 
2022 2022 2022 2022 2022 2022 2022 2022 2022 
2022 2022 2022 2022 2022 2022 2022 2022 2022 
2022 2022 2022 2022 2022 2022 2022 2022 2022 
2022 2022 2022 2022 2022 2022 2022 2022 2022 
2022 2022 2022 2022 2022 2022 2022 2022 2022 
2022 2022 2022 2022 2022 2022 2022 2022 2022 
2022 2022 2022 2022 2022 2022 2022 2022 2022 
2022 2022 2022 2022 2022 2022 2022 2022 2022 
2022 2022 2022 2022 2022 2022 2022 2022 2022 
2022 2022 2022 2022 2022 2022 2022 2022 2022 
2022 2022 2022 2022 2022 2022 2022 2022 2022 
2022 2022 2022 2022 2022 2022 2022 2022 2022 
2022 2022 2022 2022 2022 2022 2022 2022 2022 
2022 2022 2022 2022 2022 2022 2022 2022 2022 
2022 2022 2022 2022 2022 2022 2022 2022 2022 
2022 2022 2022 2022 2022 2022 2022 2022 2022 
2022 2022 2022 2022 2022 2022 2022 2022 2022 
2022 2022 2022 2022 2022 2022 2022 2022 2022 
2022 2022 2022 2022 2022 2022 2022 2022 2022 
2022 2022 2022 2022 2022 2022 2022 2022 2022 
2022 2022 2022 2022 2022 2022 2022 2022 2022 
2022 2022 2022 2022 2022 2022 2022 2022 2022 
2022 2022 2022 2022 2022 2022 2022 2022 2022 
2022 2022 2022 2022 2022 2022 2022 2022 2022 
2022 2022 2022 2022 2022 2022 2022 2022 2022 
2022 2022 2022 2022 2022 2022 2022 2022 2022 
2022 2022 2022 2022 2022 2022 2022 2022 2022 
2022 2022 2022 2022 2022 2022 2022 2022 2022 
2022 2022 2022 2022 2022 2022 2022 2022 2022 
2022 2022 2022 2022 2022 2022 2022 2022 2022 
2022 2022 2022 2022 2022 2022 2022 2022 2022 
2022 2022 2022 2022 2022 2022 2022 2022 2022 
2022 2022 2022 2022 2022 2022 2022 2022 2022 
2022 2022 2022 2022 2022 2022 2022 2022 2022 
2022 2022 2022 2022 2022 2022 2022 2022 2022 
2022 2022 2022 2022 2022 2022 2022 2022 2022 
2022 2022 2022 2022 2022 2022 2022 2022 2022 
2022 2022 2022 2022 2022 2022 2022 2022 2022 
2022 2022 2022 2022 2022 2022 2022 2022 2022 
2022 2022 2022 2022 2022 2022 2022 2022 2022 
2022 2022 2022 2022 2022 2022 2022 2022 2022 
2022 2022 2022 2022 2022 2022 2022 2022 2022 
2022 2022 2022 2022 2022 2022 2022 2022 2022 
2022 2022 2022 2022 2022 2022 2022 2022 2022 
2022 2022 2022 2022 2022 2022 2022 2022 2022 
2022 2022 2022 2022 2022 2022 2022 2022 2022 
2022 2022 2022 2022 2022 2022 2022 2022 2022 
2022 2022 2022 2022 2022 2022 2022 2022 2022 
2022 2022 2022 2022 2022 2022 2022 2022 2022 
2022 2022 2022 2022 2022 2022 2022 2022 2022 
2022 2022 2022 2022 2022 2022 2022 2022 2022 
2022 2022 2022 2022 2022 2022 2022 2022 2022 
2022 2022 2022 2022 2022 2022 2022 2022 2022 
2022 2022 2022 2022 2022 2022 2022 2022 2022 
2022 2022 2022 2022 2022 2022 2022 2022 2022 
2022 2022 2022 2022 2022 2022 2022 2022 2022 
2022 2022 2022 2022 2022 2022 2022 2022 2022 
2022 2022 2022 2022 2022 2022 2022 2022 2022 
2022 2022 2022 2022 2022 2022 2022 2022 2022 
2022 2022 2022 2022 2022 2022 2022 2022 2022 
2022 2022 2022 2022 2022 2022 2022 2022 2022 
2022 2022 2022 2022 2022 2022 2022 2022 2022 
2022 2022 2022 2022 2022 2022 2022 2022 2022 
2022 2022 2022 2022 2022 2022 2022 2022 2022 
2022 2022 2022 2022 2022 2022 2022 2022 2022 
2022 2022 2022 2022 2022 2022 2022 2022 2022 
2022 2022 2022 2022 2022 2022 2022 2022 2022 
2022 2022 2022 2022 2022 2022 2022 2022 2022 
2022 2022 2022 2022 2022 2022 2022 2022 2022 
2022 2022 2022 2022 2022 2022 2022 2022 2022 
2022 2022 2022 2022 2022 2022 2022 2022 2022 
2022 2022 2022 2022 2022 2022 2022 2022 2022 
2022 2022 2022 2022 2022 2022 2022 2022 2022 
2022 2022 2022 2022 2022 2022 2022 2022 2022 
2022 2022 2022 2022 2022 2022 2022 2022 2022 
2022 2022 2022 2022 2022 2022 2022 2022 2022 
2022 2022 2022 2022 2022 2022 2022 2022 2022 
2022 2022 2022 2022 2022 2022 2022 2022 2022 
2022 2022 2022 2022 2022 2022 2022 2022 2022 
2022 2022 2022 2022 2022 2022 2022 2022 2022 
2022 2022 2022 2022 2022 2022 2022 2022 2022 
2022 2022 2022 2022 2022 2022 2022 2022 2022 
2022 2022 2022 2022 2022 2022 2022 2022 2022 
2022 2022 2022 2022 2022 2022 2022 2022 2022 
2022 2022 2022 2022 2022 2022 2022 2022 2022 
2022 2022 2022 2022 2022 2022 2022 2022 2022 
2022 2022 2022 2022 2022 2022 2022 2022 2022 
2022 2022 2022 2022 2022 2022 2022 2022 2022 
2022 2022 2022 2022 2022 2022 2022 2022 2022 
2022 2022 2022 2022 2022 2022 2022 2022 2022 
2022 2022 2022 2022 2022 2022 2022 2022 2022 
2022 2022 2022 2022 2022 2022 2022 2022 2022 
2022 2022 2022 2022 2022 2022 2022 2022 2022 
2022 2022 2022 2022 2022 2022 2022 2022 2022 
2022 2022 2022 2022 2022 2022 2022 2022 2022 
2022 2022 2022 2022 2022 2022 2022 2022 2022 
2022 2022 2022 2022 2022 2022 2022 2022 2022 
2022 2022 2022 2022 2022 2022 2022 2022 2022 
2022 2022 2022 2022 2022 2022 2022 2022 2022 
2022 2022 2022 2022 2022 2022 2022 2022 2022 
2022 2022 2022 2022 2022 2022 2022 2022 2022 
2022 2022 2022 2022 2022 2022 2022 2022 2022 
2022 2022 2022 2022 2022 2022 2022 2022 2022 
2022 2022 2022 2022 2022 2022 2022 2022 2022 
2022 2022 2022 2022 2022 2022 2022 2022 2022 
2022 2022 2022 2022 2022 2022 2022 2022 2022 
2022 2022 2022 2022 2022 2022 2022 2022 2022 
2022 2022 2022 2022 2022 2022 2022 2022 2022 
2022 2022 2022 2022 2022 2022 2022 2022 2022 
2022 2022 2022 2022 2022 2022 2022 2022 2022 
2022 2022 2022 2022 2022 2022 2022 2022 2022 
2022 2022 2022 2022 2022 2022 2022 2022 2022 
2022 2022 2022 2022 2022 2022 2022 2022 2022 
2022 2022 2022 2022 2022 2022 2022 2022 2022 
2022 2022 2022 2022 2022 2022 2022 2022 2022 
2022 2022 2022 2022 2022 2022 2022 2022 2022 
2022 2022 2022 2022 2022 2022 2022 2022 2022 
2022 2022 2022 2022 2022 2022 2022 2022 2022 
2022 2022 2022 2022 2022 2022 2022 2022 2022 
2022 2022 2022 2022 2022 2022 2022 2022 2022 
2022 2022 2022 2022 2022 2022 2022 2022 2022 
2022 2022 2022 2022 2022 2022 2022 2022 2022 
2022 2022 2022 2022 2022 2022 2022 2022 2022 
2022 2022 2022 2022 2022 2022 2022 2022 2022 
2022 2022 2022 2022 2022 2022 2022 2022 2022 
2022 2022 2022 2022 2022 2022 2022 2022 2022 
2022 2022 2022 2022 2022 2022 2022 2022 2022 
2022 2022 2022 2022 2022 2022 2022 2022 2022 
2022 2022 2022 2022 2022 2022 2022 2022 2022 
2022 2022 2022 2022 2022 2022 2022 2022 2022 
2022 2022 2022 2022 2022 2022 2022 2022 2022 
2022 2022 2022 2022 2022 2022 2022 2022 2022 
2022 2022 2022 2022 2022 2022 2022 2022 2022 
2022 2022 2022 2022 2022 2022 2022 2022 2022 
2022 2022 2022 2022 2022 2022 2022 2022 2022 
2022 2022 2022 2022 2022 2022 2022 2022 2022 
2022 2022 2022 2022 2022 2022 2022 2022 2022 
2022 2022 2022 2022 2022 2022 2022 2022 2022 
2022 2022 2022 2022 2022 2022 2022 2022 2022 
2022 2022 2022 2022 2022 2022 2022 2022 2022 
2022 2022 2022 2022 2022 2022 2022 2022 2022 
2022 2022 2022 2022 2022 2022 2022 2022 2022 
2022 2022 2022 2022 2022 2022 2022 2022 2022 
2022 2022 2022 2022 2022 2022 2022 2022 2022 
2022 2022 2022 2022 2022 2022 2022 2022 2022 
2022 2022 2022 2022 2022 2022 2022 2022 2022 
2022 2022 2022 2022 2022 2022 2022 2022 2022 
2022 2022 2022 2022 2022 2022 2022 2022 2022 
2022 2022 2022 2022 2022 2022 2022 2022 2022 
2022 2022 2022 2022 2022 2022 2022 2022 2022 
2022 2022 2022 2022 2022 2022 2022 2022 2022 
2022 2022 2022 2022 2022 2022 2022 2022 2022 
2022 2022 2022 2022 2022 2022 2022 2022 2022 
2022 2022 2022 2022 2022 2022 2022 2022 2022 
2022 2022 2022 2022 2022 2022 2022 2022 2022 
2022 2022 2022 2022 2022 2022 2022 2022 2022 
2022 2022 2022 2022 2022 2022 2022 2022 2022 
2022 2022 2022 2022 2022 2022 2022 2022 2022 
2022 2022 2022 2022 2022 2022 2022 2022 2022 
2022 2022 2022 2022 2022 2022 2022 2022 2022 
2022 2022 2022 2022 2022 2022 2022 2022 2022 
2022 2022 2022 2022 2022 2022 2022 2022 2022 
2022 2022 2022 2022 2022 2022 2022 2022 2022 
2022 2022 2022 2022 2022 2022 2022 2022 2022 
2022 2022 2022 2022 2022 2022 2022 2022 2022 
2022 2022 2022 2022 2022 2022 2022 2022 2022 
2022 2022 2022 2022 2022 2022 2022 2022 2022 
2022 2022 2022 2022 2022 2022 2022 2022 2022 
2022 2022 2022 2022 2022 2022 2022 2022 2022 
2022 2022 2022 2022 2022 2022 2022 2022 2022 
2022 2022 2022 2022 2022 2022 2022 2022 2022 
2022 2022 2022 2022 2022 2022 2022 2022 2022 
2022 2022 2022 2022 2022 2022 2022 2022 2022 
2022 2022 2022 2022 2022 2022 2022 2022 2022 
2022 2022 2022 2022 2022 2022 2022 2022 2022 
2022 2022 2022 2022 2022 2022 2022 2022 2022 
2022 2022 2022 2022 2022 2022 2022 2022 2022 
2022 2022 2022 2022 2022 2022 2022 2022 2022 
2022 2022 2022 2022 2022 2022 2022 2022 2022 
2022 2022 2022 2022 2022 2022 2022 2022 2022 
2022 2022 2022 2022 2022 2022 2022 2022 2022 
2022 2022 2022 2022 2022 2022 2022 2022 2022 
2022 2022 2022 2022 2022 2022 2022 2022 2022 
2022 2022 2022 2022 2022 2022 2022 2022 2022 
2022 2022 2022 2022 2022 2022 2022 2022 2022 
2022 2022 2022 2022 2022 2022 2022 2022 2022 
2022 2022 2022 2022 2022 2022 2022 2022 2022 
2022 2022 2022 2022 2022 2022 2022 2022 2022 
2022 2022 2022 2022 2022 2022 2022 2022 2022 
2022 2022 2022 2022 2022 2022 2022 2022 2022 
2022 2022 2022 2022 2022 2022 2022 2022 2022 
2022 2022 2022 2022 2022 2022 2022 2022 2022 
2022 2022 2022 2022 2022 2022 2022 2022 2022 
2022 2022 2022 2022 2022 2022 2022 2022 2022 
2022 2022 2022 2022 2022 2022 2022 2022 2022 
2022 2022 2022 2022 2022 2022 2022 2022 2022 
2022 2022 2022 2022 2022 2022 2022 2022 2022 
2022 2022 2022 2022 2022 2022 2022 2022 2022 
2022 2022 2022 2022 2022 2022 2022 2022 2022 
2022 2022 2022 2022 2022 2022 2022 2022 2022 
2022 2022 2022 2022 2022 2022 2022 2022 2022 
2022 2022 2022 2022 2022 2022 2022 2022 2022 
2022 2022 2022 2022 2022 2022 2022 2022 2022 
2022 2022 2022 2022 2022 2022 2022 2022 2022 
2022 2022 2022 2022 2022 2022 2022 2022 2022 
2022 2022 2022 2022 2022 2022 2022 2022 2022 
2022 2022 2022 2022 2022 2022 2022 2022 2022 
2022 2022 2022 2022 2022 2022 2022 2022 2022 
2022 2022 2022 2022 2022 2022 2022 2022 2022 
2022 2022 2022 2022 2022 2022 2022 2022 2022 
2022 2022 2022 2022 2022 2022 2022 2022 2022 
2022 2022 2022 2022 2022 2022 2022 2022 2022 
2022 2022 2022 2022 2022 2022 2022 2022 2022 
2022 2022 2022 2022 2022 2022 2022 2022 2022 
2022 2022 2022 2022 2022 2022 2022 2022 2022 
2022 2022 2022 2022 2022 2022 2022 2022 2022 
2022 2022 2022 2022 2022 2022 2022 2022 2022 
2022 2022 2022 2022 2022 2022 2022 2022 2022 
2022 2022 2022 2022 2022 2022 2022 2022 2022 
2022 2022 2022 2022 2022 2022 2022 2022 2022 
2022 2022 2022 2022 2022 2022 2022 2022 2022 
2022 2022 2022 2022 2022 2022 2022 2022 2022 
2022 2022 2022 2022 2022 2022 2022 2022 2022 
2022 2022 2022 2022 2022 2022 2022 2022 2022 
2022 2022 2022 2022 2022 2022 2022 2022 2022 
2022 2022 2022 2022 2022 2022 2022 2022 2022 
2022 2022 2022 2022 2022 2022 2022 2022 2022 
2022 2022 2022 2022 2022 2022 2022 2022 2022 
2022 2022 2022 2022 2022 2022 2022 2022 2022 
2022 2022 2022 2022 2022 2022 2022 2022 2022 
2022 2022 2022 2022 2022 2022 2022 2022 2022 
2022 2022 2022 2022 2022 2022 2022 2022 2022 
2022 2022 2022 2022 2022 2022 2022 2022 2022 
2022 2022 2022 2022 2022 2022 2022 2022 2022 
2022 2022 2022 2022 2022 2022 2022 2022 2022 
2022 2022 2022 2022 2022 2022 2022 2022 2022 
2022 2022 2022 2022 2022 2022 2022 2022 2022 
2022 2022 2022 2022 2022 2022 2022 2022 2022 
2022 2022 2022 2022 2022 2022 2022 2022 2022 
2022 2022 2022 2022 2022 2022 2022 2022 2022 
2022 2022 2022 2022 2022 2022 2022 2022 2022 
2022 2022 2022 2022 2022 2022 2022 2022 2022 
2022 2022 2022 2022 2022 2022 2022 2022 2022 
2022 2022 2022 2022 2022 2022 2022 2022 2022 
2022 2022 2022 2022 2022 2022 2022 2022 2022 
2022 2022 2022 2022 2022 2022 2022 2022 2022 
2022 2022 2022 2022 2022 2022 2022 2022 2022 
2022 2022 2022 2022 2022 2022 2022 2022 2022 
2022 2022 2022 2022 2022 2022 2022 2022 2022 
2022 2022 2022 2022 2022 2022 2022 2022 2022 
2022 2022 2022 2022 2022 2022 2022 2022 2022 
2022 2022 2022 2022 2022 2022 2022 2022 2022 
2022 2022 2022 2022 2022 2022 2022 2022 2022 
2022 2022 2022 2022 2022 2022 2022 2022 2022 
2022 2022 2022 2022 2022 2022 2022 2022 2022 
2022 2022 2022 2022 2022 2022 2022 2022 2022 
2022 2022 2022 2022 2022 2022 2022 2022 2022 
2022 2022 2022 2022 2022 2022 2022 2022 2022 
2022 2022 2022 2022 2022 2022 2022 2022 2022 
2022 2022 2022 2022 2022 2022 2022 2022 2022 
2022 2022 2022 2022 2022 2022 2022 2022 2022 
2022 2022 2022 2022 2022 2022 2022 2022 2022 
2022 2022 2022 2022 2022 2022 2022 2022 2022 
2022 2022 2022 2022 2022 2022 2022 2022 2022 
2022 2022 2022 2022 2022 2022 2022 2022 2022 
2022 2022 2022 2022 2022 2022 2022 2022 2022 
2022 2022 2022 2022 2022 2022 2022 2022 2022 
2022 2022 2022 2022 2022 2022 2022 2022 2022 
2022 2022 2022 2022 2022 2022 2022 2022 2022 
2022 2022 2022 2022 2022 2022 2022 2022 2022 
2022 2022 2022 2022 2022 2022 2022 2022 2022 
2022 2022 2022 2022 2022 2022 2022 2022 2022 
2022 2022 2022 2022 2022 2022 2022 2022 2022 
2022 2022 2022 2022 2022 2022 2022 2022 2022 
2022 2022 2022 2022 2022 2022 2022 2022 2022 
2022 2022 2022 2022 2022 2022 2022 2022 2022 
2022 2022 2022 2022 2022 2022 2022 2022 2022 
2022 2022 2022 2022 2022 2022 2022 2022 2022 
2022 2022 2022 2022 2022 2022 2022 2022 2022 
2022 2022 2022 2022 2022 2022 2022 2022 2022 
2022 2022 2022 2022 2022 2022 2022 2022 2022 
2022 2022 2022 2022 2022 2022 2022 2022 2022 
2022 2022 2022 2022 2022 2022 2022 2022 2022 
2022 2022 2022 2022 2022 2022 2022 2022 2022 
2022 2022 2022 2022 2022 2022 2022 2022 2022 
2022 2022 2022 2022 2022 2022 2022 2022 2022 
2022 2022 2022 2022 2022 2022 2022 2022 2022 
2022 2022 2022 2022 2022 2022 2022 2022 2022 
2022 2022 2022 2022 2022 2022 2022 2022 2022 
2022 2022 2022 2022 2022 2022 2022 2022 2022 