# vtk DataFile Version 4.2
vtk output
ASCII
DATASET POLYDATA
POINTS 4132 float
-5.62439 -39.1552 18.2003 -5.63057 -39.6329 18.7191 -5.1965 -39.4114 18.3713 
-5.98036 -39.6867 18.5364 -4.93089 -39.1719 17.7335 -4.67609 -39.7847 17.9426 
-4.46775 -39.5184 17.4571 -5.46048 -39.1166 17.4907 -6.16843 -39.5843 17.8219 
-4.7386 -39.5191 16.9762 -5.76115 -39.4409 17.1078 -8.61895 -40.304 19.4768 
-8.66847 -40.7869 19.739 -8.39623 -40.6992 19.2056 -9.02655 -40.5547 19.6304 
-5.6949 -40.4737 18.8046 -5.1892 -40.2175 18.5524 -6.20252 -40.6236 18.4326 
-8.80466 -40.4667 19.2213 -4.67378 -40.7955 18.0162 -4.20668 -40.1948 17.3102 
-6.85974 -40.5159 17.8849 -6.66963 -39.9146 17.2372 -7.45182 -40.2418 17.1324 
-7.48526 -40.4731 17.639 -8.06601 -40.6989 17.61 -2.86658 -40.2708 16.5192 
-2.54302 -40.7848 16.7902 -2.33638 -40.4228 16.461 -3.69434 -40.0923 16.5259 
-3.49661 -40.5924 16.9234 -4.47851 -39.9894 16.3283 -5.55626 -39.8908 16.5143 
-6.61055 -40.1316 16.5309 -7.18405 -40.4685 16.5742 -7.88302 -40.8388 16.9793 
-2.68408 -40.544 16.0508 -3.91117 -40.6024 15.9111 -4.91235 -40.5753 16.0332 
-5.91854 -40.6116 16.0597 -6.66974 -40.6966 16.1666 -10.863 -41.2428 20.1998 
-10.7781 -41.5081 20.7061 -10.3263 -41.3969 20.4152 -11.0731 -41.5301 20.585 
-8.77131 -41.7694 19.888 -8.27576 -41.3225 19.4807 -9.67804 -40.9369 19.5118 
-9.66448 -41.4872 20.0807 -10.5337 -41.124 19.2838 -11.438 -41.6303 20.0479 
-11.4529 -41.2804 19.5561 -11.8727 -41.5122 19.5125 -5.63442 -41.6909 18.8281 
-5.11276 -41.2259 18.5583 -6.32662 -41.6352 18.5749 -8.61611 -40.9123 18.4614 
-8.05517 -41.4759 18.794 -9.55542 -41.1522 18.4062 -10.2713 -41.4238 18.6385 
-11.002 -41.5515 19.0693 -11.6387 -41.6504 19.3121 -4.67828 -41.4984 18.123 
-4.16382 -41.3145 17.5963 -6.71086 -41.2793 18.2096 -7.57493 -41.2645 18.1036 
-8.68848 -41.0168 17.5886 -9.25335 -41.4305 17.6121 -9.83035 -41.5833 18.0454 
-1.88219 -40.9123 16.4439 -1.62722 -41.518 16.9122 -1.34305 -41.6988 16.1858 
-2.48521 -41.4648 17.1515 -3.32754 -41.3726 17.1832 -7.24486 -41.1731 16.4036 
-7.90992 -41.5307 16.6796 -8.63183 -41.4641 17.0757 -1.83435 -41.2327 15.8669 
-2.50387 -41.0946 15.4751 -2.0093 -41.5993 15.3364 -3.31287 -41.025 15.4145 
-4.00045 -41.3726 15.487 -4.66961 -41.6182 15.8372 -5.65421 -41.5331 15.9507 
-6.69624 -41.584 16.0452 -2.79903 -41.7306 15.052 -3.64521 -41.7033 15.1505 
-10.7331 -41.7421 20.4935 -8.8532 -42.5473 19.769 -8.17447 -42.1959 19.3395 
-9.72164 -42.6344 19.9445 -10.8857 -42.4392 20.0076 -11.6234 -41.9323 19.5889 
-11.3731 -42.3587 19.3005 3.11527 -42.2603 18.5706 3.35218 -42.6875 18.7846 
3.5436 -42.5115 18.4717 2.62513 -42.6682 19.0103 2.53943 -42.2259 18.4087 
1.96239 -42.8013 18.5457 -4.63995 -41.9623 18.3544 -4.98499 -42.4768 18.7628 
-4.30358 -42.7142 18.2208 -5.77469 -42.5206 18.8647 -6.98734 -42.0058 18.4781 
-6.65621 -42.5616 18.791 -7.62973 -42.0682 18.6369 -7.71396 -42.7554 18.9737 
-10.7211 -41.8967 18.2679 -11.7534 -42.255 18.3704 -11.6576 -42.5687 19.0486 
-12.049 -42.6151 18.708 3.25615 -42.5079 17.9796 2.38435 -42.3764 18.0378 
-0.96954 -42.191 17.4145 -0.893182 -42.6823 17.8934 -0.283982 -42.6539 17.7148 
-1.93709 -41.9645 17.5124 -1.51034 -42.4595 17.8471 -2.96566 -42.0011 17.5053 
-2.546 -42.5826 17.7454 -3.83572 -42.0518 17.7477 -3.55877 -42.5982 17.7613 
-9.70848 -41.8761 17.267 -10.8162 -41.9888 17.3025 -11.6728 -42.0069 17.4519 
-12.4861 -42.4506 18.0563 -12.7243 -42.1777 17.3368 -13.1136 -42.5367 17.5985 
-0.360293 -42.6307 17.0601 -0.954905 -42.4741 16.4055 -7.56819 -41.8754 16.3418 
-8.54831 -42.0641 16.5578 -9.53458 -42.2114 16.4635 -10.4496 -42.1427 16.5892 
-11.4398 -42.1163 16.6114 -12.4432 -42.1134 16.5851 -13.6243 -42.4175 17.0873 
-13.6161 -42.217 16.5539 -14.853 -42.1905 16.3271 -14.5648 -42.5938 16.9324 
-15.9128 -42.1602 16.2068 -15.4574 -42.4841 16.721 -16.1945 -42.6673 16.6731 
-1.49975 -41.8792 15.5749 -1.27794 -42.5486 15.5601 -4.16126 -42.2404 15.4509 
-4.83039 -42.8239 15.8579 -5.66858 -42.5819 15.9933 -6.67604 -42.546 15.9741 
-7.67467 -42.4344 16.0935 -8.81081 -42.649 15.9587 -9.96193 -42.5019 15.9433 
-10.9704 -42.4684 15.9473 -11.9656 -42.4599 15.9284 -12.9743 -42.4707 15.9251 
-13.9859 -42.4627 15.9345 -14.808 -42.3646 15.7962 -15.1238 -42.5712 15.3845 
-15.6938 -42.1017 15.5477 -16.5646 -42.4071 16.026 -16.5685 -42.1382 15.3594 
-17.0649 -42.6327 15.3493 -18.6925 -42.3109 15.3998 -18.5443 -42.4793 15.6751 
-18.3094 -42.5947 15.3153 -19.039 -42.6735 15.6109 -1.93871 -42.4298 15.0665 
-2.80185 -42.6804 14.8858 -3.53816 -42.514 15.0565 -15.7133 -42.5514 14.9299 
-16.2758 -42.7882 14.3573 -16.4717 -42.191 14.6697 -16.9734 -42.4369 14.616 
-18.6993 -42.7955 15.1615 -16.8255 -42.6748 14.1947 2.15339 -43.1219 19.4289 
2.22904 -43.5575 19.6924 2.51937 -43.3839 19.5451 1.97122 -43.4961 19.1942 
-8.54081 -42.8949 19.4295 -9.31934 -43.1548 19.5593 -10.1007 -43.443 19.6109 
-10.7847 -43.4394 19.8365 -12.0176 -42.976 19.3842 -11.6463 -43.3819 19.8158 
-12.8768 -43.2271 19.2813 -12.4289 -43.4666 19.7485 -12.9224 -43.6916 19.484 
3.07706 -43.3714 19.0515 3.7552 -43.1139 18.3469 1.71809 -43.4489 18.5863 
0.291768 -43.1107 18.153 0.553528 -43.7194 18.7207 0.878873 -43.3641 18.317 
-0.101261 -43.7903 18.5161 -4.74956 -42.9297 18.5261 -5.37841 -42.9905 18.5455 
-6.31062 -43.0625 18.5105 -7.07039 -43.3565 18.5384 -7.78811 -43.6088 18.8119 
-8.79224 -43.608 19.1361 -9.89652 -43.8348 19.215 -12.7996 -42.8317 18.4458 
-13.5682 -43.7779 19.0611 -13.7262 -43.1838 18.3615 -14.2264 -43.671 18.5713 
5.21673 -43.2561 17.5053 5.29381 -43.7196 17.9607 5.70403 -43.7392 17.4891 
4.38243 -43.0731 17.5069 4.37588 -43.6373 17.9468 3.55407 -42.9853 17.3051 
2.36767 -42.9242 17.577 1.60176 -43.5697 18.1572 1.25152 -43.1708 17.6167 
0.396088 -42.9417 17.4167 -0.64839 -43.3751 18.0791 -1.6761 -43.1663 17.8694 
-2.60592 -43.1439 17.5299 -2.24644 -43.8159 17.4162 -3.34728 -43.0708 17.449 
-4.0304 -43.3112 17.6409 -4.80123 -43.6017 18.0412 -5.90746 -43.6378 18.1177 
-6.88154 -43.7769 18.1684 -13.7644 -42.7982 17.5603 -14.5036 -43.4731 18.0049 
-14.5875 -43.1469 17.4902 -15.0876 -43.577 17.6175 -16.7783 -43.1715 17.2636 
-16.7425 -43.7277 17.8748 -16.1735 -43.5101 17.4927 -17.9825 -43.1197 17.3848 
-17.5261 -43.5146 17.8672 -18.9895 -43.1829 17.2403 -18.4064 -43.5331 17.7901 
-19.0462 -43.4883 17.5119 5.12655 -43.5504 17.1141 4.14914 -43.5692 17.0057 
3.07785 -43.5848 16.9962 2.01959 -43.6318 17.0526 1.03504 -43.5995 17.0657 
0.141159 -43.3362 16.8808 -0.489046 -43.0518 16.5427 -0.262218 -43.8261 16.4218 
-3.03889 -43.6645 17.1129 -3.68984 -43.7181 17.1636 -15.5976 -43.1718 17.1701 
-16.932 -42.8139 16.3081 -17.5593 -42.9778 16.6678 -18.7105 -42.8997 16.3897 
-19.4737 -43.6185 16.985 -19.5838 -43.2217 16.6025 -19.9006 -43.5048 16.4464 
-0.721613 -43.3904 16.0942 -1.10795 -43.5884 15.5197 -4.23628 -43.2129 15.4645 
-4.91297 -43.5794 15.7573 -5.67753 -43.4662 15.8803 -6.6637 -43.4032 15.8565 
-7.74171 -43.2068 15.7823 -8.58678 -43.1896 15.5134 -8.07911 -43.6796 15.3713 
-9.4091 -42.9902 15.4517 -10.4229 -42.9524 15.4184 -11.4455 -42.9813 15.4012 
-12.4478 -42.98 15.3935 -13.4058 -42.9981 15.4152 -14.3375 -42.9023 15.4524 
-17.7618 -42.8862 15.6189 -19.5853 -43.4183 16.1026 -19.2158 -43.5004 15.499 
-1.74189 -43.4946 15.0324 -2.61804 -43.5176 14.8808 -3.68361 -43.5877 15.0384 
-8.82141 -43.7277 15.1185 -9.80568 -43.4608 15.0844 -10.8053 -43.7498 14.8869 
-11.9658 -43.6591 15.0163 -12.8363 -43.5243 15.0691 -13.6133 -43.6689 15.176 
-14.751 -43.2904 15.1858 -15.5288 -43.4381 14.7428 -16.0406 -43.5426 14.2698 
-17.2977 -43.1306 14.5331 -18.0799 -43.4807 14.8121 -18.7653 -43.6688 15.0369 
-16.7815 -43.6508 14.0255 2.51703 -43.8159 19.2932 -10.7944 -43.9431 19.322 
-11.5312 -43.9211 19.5287 -12.3305 -43.978 19.3901 5.2303 -44.1998 18.442 
5.33802 -44.4534 18.5992 5.67339 -44.3424 18.1192 5.0731 -44.4903 18.544 
3.26173 -43.8985 18.5498 2.28004 -44.0058 18.5437 1.12045 -43.8831 18.5535 
1.25468 -44.6897 18.8269 1.68699 -44.344 18.3942 0.209521 -44.4731 18.8807 
-0.344366 -44.5491 18.5817 -7.54067 -43.9558 18.4067 -8.1085 -44.3822 18.5499 
-8.76961 -44.4146 18.7867 -9.71569 -44.4033 18.8553 -10.6632 -44.3405 18.8165 
-11.6099 -44.2667 18.8128 -11.2003 -44.7252 18.2332 -12.2957 -44.4364 18.6416 
-13.0253 -44.5145 18.9565 -13.8733 -44.7119 19.0375 -15.025 -43.9696 18.3323 
-14.6421 -44.4671 18.9243 -15.878 -44.1952 18.505 -15.5678 -44.5171 18.8414 
-16.6406 -44.1736 18.3288 -16.3845 -44.6093 18.7582 -16.9793 -44.6948 18.4762 
5.81399 -44.6128 17.4324 4.73609 -44.5402 18.2349 3.42181 -44.4384 18.1834 
2.34888 -44.4721 18.2053 -0.7734 -44.3873 18.1951 -1.48538 -44.1838 17.8271 
-2.14082 -44.7825 17.3866 -4.81357 -44.7926 17.8089 -4.17595 -44.2403 17.4322 
-5.67016 -44.513 17.9589 -6.68728 -44.5102 17.9556 -7.74245 -44.646 18.1361 
-11.9659 -44.8026 18.1834 -15.8182 -43.7996 17.8333 -17.7021 -44.4671 18.0537 
-18.7453 -44.0114 17.5619 -18.5122 -44.7223 17.6321 5.32945 -44.4581 17.0272 
4.3971 -44.4554 16.8711 3.35981 -44.5018 16.8635 2.34547 -44.5375 16.8857 
1.35076 -44.5148 16.91 0.446057 -44.2756 16.7829 -0.168776 -44.7971 16.4109 
-2.82088 -44.5555 17.0061 -3.56926 -44.5128 17.0138 -19.0878 -44.3832 17.0728 
-19.6691 -43.9333 16.5198 -19.3284 -44.5604 16.4276 -0.670108 -44.2668 15.8977 
-1.12619 -44.7561 15.3814 -4.57927 -43.8934 15.4037 -5.40528 -44.0678 15.4944 
-6.39663 -44.0624 15.4964 -7.34105 -43.9593 15.4531 -14.0406 -44.0863 15.4879 
-13.3562 -44.4548 15.3836 -13.8236 -44.8437 15.8258 -14.4471 -44.5471 15.791 
-14.8395 -44.0453 15.3177 -14.939 -44.7455 15.515 -19.0775 -44.4846 15.5149 
-1.73896 -44.5311 15.016 -2.61913 -44.5296 14.8826 -3.64987 -44.5465 14.9231 
-4.78469 -44.549 15.0833 -5.95271 -44.6878 15.1099 -6.9482 -44.6746 15.0995 
-7.94549 -44.4882 15.0756 -8.81554 -44.6758 14.9606 -9.82022 -44.3823 14.8153 
-10.4928 -44.2653 14.4753 -10.4187 -44.6781 14.475 -10.9152 -44.3677 14.465 
-11.5453 -44.6936 14.769 -12.6836 -44.4178 15.0306 -15.3605 -44.6026 14.6761 
-15.6968 -43.9526 14.4103 -17.5519 -43.9373 14.2416 -17.9684 -44.3905 14.422 
[...]
CELL_DATA 8380
SCALARS scalars float
LOOKUP_TABLE default
1021 1021 1021 1021 1021 1021 1021 1021 1021 
1021 1021 1021 1021 1021 1021 1021 1021 1021 
1021 1021 1021 1021 1021 1021 1021 1021 1021 
1021 1021 1021 1021 1021 1021 1021 1021 1021 
1021 1021 1021 1021 1021 1021 1021 1021 1021 
1021 1021 1021 1021 1021 1021 1021 1021 1021 
1021 1021 1021 1021 1021 1021 1021 1021 1021 
1021 1021 1021 1021 1021 1021 1021 1021 1021 
1021 1021 1021 1021 1021 1021 1021 1021 1021 
1021 1021 1021 1021 1021 1021 1021 1021 1021 
1021 1021 1021 1021 1021 1021 1021 1021 1021 
1021 1021 1021 1021 1021 1021 1021 1021 1021 
1021 1021 1021 1021 1021 1021 1021 1021 1021 
1021 1021 1021 1021 1021 1021 1021 1021 1021 
1021 1021 1021 1021 1021 1021 1021 1021 1021 
1021 1021 1021 1021 1021 1021 1021 1021 1021 
1021 1021 1021 1021 1021 1021 1021 1021 1021 
1021 1021 1021 1021 1021 1021 1021 1021 1021 
1021 1021 1021 1021 1021 1021 1021 1021 1021 
1021 1021 1021 1021 1021 1021 1021 1021 1021 
1021 1021 1021 1021 1021 1021 1021 1021 1021 
1021 1021 1021 1021 1021 1021 1021 1021 1021 
1021 1021 1021 1021 1021 1021 1021 1021 1021 
1021 1021 1021 1021 1021 1021 1021 1021 1021 
1021 1021 1021 1021 1021 1021 1021 1021 1021 
1021 1021 1021 1021 1021 1021 1021 1021 1021 
1021 1021 1021 1021 1021 1021 1021 1021 1021 
1021 1021 1021 1021 1021 1021 1021 1021 1021 
1021 1021 1021 1021 1021 1021 1021 1021 1021 
1021 1021 1021 1021 1021 1021 1021 1021 1021 
1021 1021 1021 1021 1021 1021 1021 1021 1021 
1021 1021 1021 1021 1021 1021 1021 1021 1021 
1021 1021 1021 1021 1021 1021 1021 1021 1021 
1021 1021 1021 1021 1021 1021 1021 1021 1021 
1021 1021 1021 1021 1021 1021 1021 1021 1021 
1021 1021 1021 1021 1021 1021 1021 1021 1021 
1021 1021 1021 1021 1021 1021 1021 1021 1021 
1021 1021 1021 1021 1021 1021 1021 1021 1021 
1021 1021 1021 1021 1021 1021 1021 1021 1021 
1021 1021 1021 1021 1021 1021 1021 1021 1021 
1021 1021 1021 1021 1021 1021 1021 1021 1021 
1021 1021 1021 1021 1021 1021 1021 1021 1021 
1021 1021 1021 1021 1021 1021 1021 1021 1021 
1021 1021 1021 1021 1021 1021 1021 1021 1021 
1021 1021 1021 1021 1021 1021 1021 1021 1021 
1021 1021 1021 1021 1021 1021 1021 1021 1021 
1021 1021 1021 1021 1021 1021 1021 1021 1021 
1021 1021 1021 1021 1021 1021 1021 1021 1021 
1021 1021 1021 1021 1021 1021 1021 1021 1021 
1021 1021 1021 1021 1021 1021 1021 1021 1021 
1021 1021 1021 1021 1021 1021 1021 1021 1021 
1021 1021 1021 1021 1021 1021 1021 1021 1021 
1021 1021 1021 1021 1021 1021 1021 1021 1021 
1021 1021 1021 1021 1021 1021 1021 1021 1021 
1021 1021 1021 1021 1021 1021 1021 1021 1021 
1021 1021 1021 1021 1021 1021 1021 1021 1021 
1021 1021 1021 1021 1021 1021 1021 1021 1021 
1021 1021 1021 1021 1021 1021 1021 1021 1021 
1021 1021 1021 1021 1021 1021 1021 1021 1021 
1021 1021 1021 1021 1021 1021 1021 1021 1021 
1021 1021 1021 1021 1021 1021 1021 1021 1021 
1021 1021 1021 1021 1021 1021 1021 1021 1021 
1021 1021 1021 1021 1021 1021 1021 1021 1021 
1021 1021 1021 1021 1021 1021 1021 1021 1021 
1021 1021 1021 1021 1021 1021 1021 1021 1021 
1021 1021 1021 1021 1021 1021 1021 1021 1021 
1021 1021 1021 1021 1021 1021 1021 1021 1021 
1021 1021 1021 1021 1021 1021 1021 1021 1021 
1021 1021 1021 1021 1021 1021 1021 1021 1021 
1021 1021 1021 1021 1021 1021 1021 1021 1021 
1021 1021 1021 1021 1021 1021 1021 1021 1021 
1021 1021 1021 1021 1021 1021 1021 1021 1021 
1021 1021 1021 1021 1021 1021 1021 1021 1021 
1021 1021 1021 1021 1021 1021 1021 1021 1021 
1021 1021 1021 1021 1021 1021 1021 1021 1021 
1021 1021 1021 1021 1021 1021 1021 1021 1021 
1021 1021 1021 1021 1021 1021 1021 1021 1021 
1021 1021 1021 1021 1021 1021 1021 1021 1021 
1021 1021 1021 1021 1021 1021 1021 1021 1021 
1021 1021 1021 1021 1021 1021 1021 1021 1021 
1021 1021 1021 1021 1021 1021 1021 1021 1021 
1021 1021 1021 1021 1021 1021 1021 1021 1021 
1021 1021 1021 1021 1021 1021 1021 1021 1021 
1021 1021 1021 1021 1021 1021 1021 1021 1021 
1021 1021 1021 1021 1021 1021 1021 1021 1021 
1021 1021 1021 1021 1021 1021 1021 1021 1021 
1021 1021 1021 1021 1021 1021 1021 1021 1021 
1021 1021 1021 1021 1021 1021 1021 1021 1021 
1021 1021 1021 1021 1021 1021 1021 1021 1021 
1021 1021 1021 1021 1021 1021 1021 1021 1021 
1021 1021 1021 1021 1021 1021 1021 1021 1021 
1021 1021 1021 1021 1021 1021 1021 1021 1021 
1021 1021 1021 1021 1021 1021 1021 1021 1021 
1021 1021 1021 1021 1021 1021 1021 1021 1021 
1021 1021 1021 1021 1021 1021 1021 1021 1021 
1021 1021 1021 1021 1021 1021 1021 1021 1021 
1021 1021 1021 1021 1021 1021 1021 1021 1021 
1021 1021 1021 1021 1021 1021 1021 1021 1021 
1021 1021 1021 1021 1021 1021 1021 1021 1021 
1021 1021 1021 1021 1021 1021 1021 1021 1021 
1021 1021 1021 1021 1021 1021 1021 1021 1021 
1021 1021 1021 1021 1021 1021 1021 1021 1021 
1021 1021 1021 1021 1021 1021 1021 1021 1021 
1021 1021 1021 1021 1021 1021 1021 1021 1021 
1021 1021 1021 1021 1021 1021 1021 1021 1021 
1021 1021 1021 1021 1021 1021 1021 1021 1021 
1021 1021 1021 1021 1021 1021 1021 1021 1021 
1021 1021 1021 1021 1021 1021 1021 1021 1021 
1021 1021 1021 1021 1021 1021 1021 1021 1021 
1021 1021 1021 1021 1021 1021 1021 1021 1021 
1021 1021 1021 1021 1021 1021 1021 1021 1021 
1021 1021 1021 1021 1021 1021 1021 1021 1021 
1021 1021 1021 1021 1021 1021 1021 1021 1021 
1021 1021 1021 1021 1021 1021 1021 1021 1021 
1021 1021 1021 1021 1021 1021 1021 1021 1021 
1021 1021 1021 1021 1021 1021 1021 1021 1021 
1021 1021 1021 1021 1021 1021 1021 1021 1021 
1021 1021 1021 1021 1021 1021 1021 1021 1021 
1021 1021 1021 1021 1021 1021 1021 1021 1021 
1021 1021 1021 1021 1021 1021 1021 1021 1021 
1021 1021 1021 1021 1021 1021 1021 1021 1021 
1021 1021 1021 1021 1021 1021 1021 1021 1021 
1021 1021 1021 1021 1021 1021 1021 1021 1021 
1021 1021 1021 1021 1021 1021 1021 1021 1021 
1021 1021 1021 1021 1021 1021 1021 1021 1021 
1021 1021 1021 1021 1021 1021 1021 1021 1021 
1021 1021 1021 1021 1021 1021 1021 1021 1021 
1021 1021 1021 1021 1021 1021 1021 1021 1021 
1021 1021 1021 1021 1021 1021 1021 1021 1021 
1021 1021 1021 1021 1021 1021 1021 1021 1021 
1021 1021 1021 1021 1021 1021 1021 1021 1021 
1021 1021 1021 1021 1021 1021 1021 1021 1021 
1021 1021 1021 1021 1021 1021 1021 1021 1021 
1021 1021 1021 1021 1021 1021 1021 1021 1021 
1021 1021 1021 1021 1021 1021 1021 1021 1021 
1021 1021 1021 1021 1021 1021 1021 1021 1021 
1021 1021 1021 1021 1021 1021 1021 1021 1021 
1021 1021 1021 1021 1021 1021 1021 1021 1021 
1021 1021 1021 1021 1021 1021 1021 1021 1021 
1021 1021 1021 1021 1021 1021 1021 1021 1021 
1021 1021 1021 1021 1021 1021 1021 1021 1021 
1021 1021 1021 1021 1021 1021 1021 1021 1021 
1021 1021 1021 1021 1021 1021 1021 1021 1021 
1021 1021 1021 1021 1021 1021 1021 1021 1021 
1021 1021 1021 1021 1021 1021 1021 1021 1021 
1021 1021 1021 1021 1021 1021 1021 1021 1021 
1021 1021 1021 1021 1021 1021 1021 1021 1021 
1021 1021 1021 1021 1021 1021 1021 1021 1021 
1021 1021 1021 1021 1021 1021 1021 1021 1021 
1021 1021 1021 1021 1021 1021 1021 1021 1021 
1021 1021 1021 1021 1021 1021 1021 1021 1021 
1021 1021 1021 1021 1021 1021 1021 1021 1021 
1021 1021 1021 1021 1021 1021 1021 1021 1021 
1021 1021 1021 1021 1021 1021 1021 1021 1021 
1021 1021 1021 1021 1021 1021 1021 1021 1021 
1021 1021 1021 1021 1021 1021 1021 1021 1021 
1021 1021 1021 1021 1021 1021 1021 1021 1021 
1021 1021 1021 1021 1021 1021 1021 1021 1021 
1021 1021 1021 1021 1021 1021 1021 1021 1021 
1021 1021 1021 1021 1021 1021 1021 1021 1021 
1021 1021 1021 1021 1021 1021 1021 1021 1021 
1021 1021 1021 1021 1021 1021 1021 1021 1021 
1021 1021 1021 1021 1021 1021 1021 1021 1021 
1021 1021 1021 1021 1021 1021 1021 1021 1021 
1021 1021 1021 1021 1021 1021 1021 1021 1021 
1021 1021 1021 1021 1021 1021 1021 1021 1021 
1021 1021 1021 1021 1021 1021 1021 1021 1021 
1021 1021 1021 1021 1021 1021 1021 1021 1021 
1021 1021 1021 1021 1021 1021 1021 1021 1021 
1021 1021 1021 1021 1021 1021 1021 1021 1021 
1021 1021 1021 1021 1021 1021 1021 1021 1021 
1021 1021 1021 1021 1021 1021 1021 1021 1021 
1021 1021 1021 1021 1021 1021 1021 1021 1021 
1021 1021 1021 1021 1021 1021 1021 1021 1021 
1021 1021 1021 1021 1021 1021 1021 1021 1021 
1021 1021 1021 1021 1021 1021 1021 1021 1021 
1021 1021 1021 1021 1021 1021 1021 1021 1021 
1021 1021 1021 1021 1021 1021 1021 1021 1021 
1021 1021 1021 1021 1021 1021 1021 1021 1021 
1021 1021 1021 1021 1021 1021 1021 1021 1021 
1021 1021 1021 1021 1021 1021 1021 1021 1021 
1021 1021 1021 1021 1021 1021 1021 1021 1021 
1021 1021 1021 1021 1021 1021 1021 1021 1021 
1021 1021 1021 1021 1021 1021 1021 1021 1021 
1021 1021 1021 1021 1021 1021 1021 1021 1021 
1021 1021 1021 1021 1021 1021 1021 1021 1021 
1021 1021 1021 1021 1021 1021 1021 1021 1021 
1021 1021 1021 1021 1021 1021 1021 1021 1021 
1021 1021 1021 1021 1021 1021 1021 1021 1021 
1021 1021 1021 1021 1021 1021 1021 1021 1021 
1021 1021 1021 1021 1021 1021 1021 1021 1021 
1021 1021 1021 1021 1021 1021 1021 1021 1021 
1021 1021 1021 1021 1021 1021 1021 1021 1021 
1021 1021 1021 1021 1021 1021 1021 1021 1021 
1021 1021 1021 1021 1021 1021 1021 1021 1021 
1021 1021 1021 1021 1021 1021 1021 1021 1021 
1021 1021 1021 1021 1021 1021 1021 1021 1021 
1021 1021 1021 1021 1021 1021 1021 1021 1021 
1021 1021 1021 1021 1021 1021 1021 1021 1021 
1021 1021 1021 1021 1021 1021 1021 1021 1021 
1021 1021 1021 1021 1021 1021 1021 1021 1021 
1021 1021 1021 1021 1021 1021 1021 1021 1021 
1021 1021 1021 1021 1021 1021 1021 1021 1021 
1021 1021 1021 1021 1021 1021 1021 1021 1021 
1021 1021 1021 1021 1021 1021 1021 1021 1021 
1021 1021 1021 1021 1021 1021 1021 1021 1021 
1021 1021 1021 1021 1021 1021 1021 1021 1021 
1021 1021 1021 1021 1021 1021 1021 1021 1021 
1021 1021 1021 1021 1021 1021 1021 1021 1021 
1021 1021 1021 1021 1021 1021 1021 1021 1021 
1021 1021 1021 1021 1021 1021 1021 1021 1021 
1021 1021 1021 1021 1021 1021 1021 1021 1021 
1021 1021 1021 1021 1021 1021 1021 1021 1021 
1021 1021 1021 1021 1021 1021 1021 1021 1021 
1021 1021 1021 1021 1021 1021 1021 1021 1021 
1021 1021 1021 1021 1021 1021 1021 1021 1021 
1021 1021 1021 1021 1021 1021 1021 1021 1021 
1021 1021 1021 1021 1021 1021 1021 1021 1021 
1021 1021 1021 1021 1021 1021 1021 1021 1021 
1021 1021 1021 1021 1021 1021 1021 1021 1021 
1021 1021 1021 1021 1021 1021 1021 1021 1021 
1021 1021 1021 1021 1021 1021 1021 1021 1021 
1021 1021 1021 1021 1021 1021 1021 1021 1021 
1021 1021 1021 1021 1021 1021 1021 1021 1021 
1021 1021 1021 1021 1021 1021 1021 1021 1021 
1021 1021 1021 1021 1021 1021 1021 1021 1021 
1021 1021 1021 1021 1021 1021 1021 1021 1021 
1021 1021 1021 1021 1021 1021 1021 1021 1021 
1021 1021 1021 1021 1021 1021 1021 1021 1021 
1021 1021 1021 1021 1021 1021 1021 1021 1021 
1021 1021 1021 1021 1021 1021 1021 1021 1021 
1021 1021 1021 1021 1021 1021 1021 1021 1021 
1021 1021 1021 1021 1021 1021 1021 1021 1021 
1021 1021 1021 1021 1021 1021 1021 1021 1021 
1021 1021 1021 1021 1021 1021 1021 1021 1021 
1021 1021 1021 1021 1021 1021 1021 1021 1021 
1021 1021 1021 1021 1021 1021 1021 1021 1021 
1021 1021 1021 1021 1021 1021 1021 1021 1021 
1021 1021 1021 1021 1021 1021 1021 1021 1021 
1021 1021 1021 1021 1021 1021 1021 1021 1021 
1021 1021 1021 1021 1021 1021 1021 1021 1021 
1021 1021 1021 1021 1021 1021 1021 1021 1021 
1021 1021 1021 1021 1021 1021 1021 1021 1021 
1021 1021 1021 1021 1021 1021 1021 1021 1021 
1021 1021 1021 1021 1021 1021 1021 1021 1021 
1021 1021 1021 1021 1021 1021 1021 1021 1021 
1021 1021 1021 1021 1021 1021 1021 1021 1021 
1021 1021 1021 1021 1021 1021 1021 1021 1021 
1021 1021 1021 1021 1021 1021 1021 1021 1021 
1021 1021 1021 1021 1021 1021 1021 1021 1021 
1021 1021 1021 1021 1021 1021 1021 1021 1021 
1021 1021 1021 1021 1021 1021 1021 1021 1021 
1021 1021 1021 1021 1021 1021 1021 1021 1021 
1021 1021 1021 1021 1021 1021 1021 1021 1021 
1021 1021 1021 1021 1021 1021 1021 1021 1021 
1021 1021 1021 1021 1021 1021 1021 1021 1021 
1021 1021 1021 1021 1021 1021 1021 1021 1021 
1021 1021 1021 1021 1021 1021 1021 1021 1021 
1021 1021 1021 1021 1021 1021 1021 1021 1021 
1021 1021 1021 1021 1021 1021 1021 1021 1021 
1021 1021 1021 1021 1021 1021 1021 1021 1021 
1021 1021 1021 1021 1021 1021 1021 1021 1021 
1021 1021 1021 1021 1021 1021 1021 1021 1021 
1021 1021 1021 1021 1021 1021 1021 1021 1021 
1021 1021 1021 1021 1021 1021 1021 1021 1021 
1021 1021 1021 1021 1021 1021 1021 1021 1021 
1021 1021 1021 1021 1021 1021 1021 1021 1021 
1021 1021 1021 1021 1021 1021 1021 1021 1021 
1021 1021 1021 1021 1021 1021 1021 1021 1021 
1021 1021 1021 1021 1021 1021 1021 1021 1021 
1021 1021 1021 1021 1021 1021 1021 1021 1021 
1021 1021 1021 1021 1021 1021 1021 1021 1021 
1021 1021 1021 1021 1021 1021 1021 1021 1021 
1021 1021 1021 1021 1021 1021 1021 1021 1021 
1021 1021 1021 1021 1021 1021 1021 1021 1021 
1021 1021 1021 1021 1021 1021 1021 1021 1021 
1021 1021 1021 1021 1021 1021 1021 1021 1021 
1021 1021 1021 1021 1021 1021 1021 1021 1021 
1021 1021 1021 1021 1021 1021 1021 1021 1021 
1021 1021 1021 1021 1021 1021 1021 1021 1021 
1021 1021 1021 1021 1021 1021 1021 1021 1021 
1021 1021 1021 1021 1021 1021 1021 1021 1021 
1021 1021 1021 1021 1021 1021 1021 1021 1021 
1021 1021 1021 1021 1021 1021 1021 1021 1021 
1021 1021 1021 1021 1021 1021 1021 1021 1021 
1021 1021 1021 1021 1021 1021 1021 1021 1021 
1021 1021 1021 1021 1021 1021 1021 1021 1021 
1021 1021 1021 1021 1021 1021 1021 1021 1021 
1021 1021 1021 1021 1021 1021 1021 1021 1021 
1021 1021 1021 1021 1021 1021 1021 1021 1021 
1021 1021 1021 1021 1021 1021 1021 1021 1021 
1021 1021 1021 1021 1021 1021 1021 1021 1021 
1021 1021 1021 1021 1021 1021 1021 1021 1021 
1021 1021 1021 1021 1021 1021 1021 1021 1021 
1021 1021 1021 1021 1021 1021 1021 1021 1021 
1021 1021 1021 1021 1021 1021 1021 1021 1021 
1021 1021 1021 1021 1021 1021 1021 1021 1021 
1021 1021 1021 1021 1021 1021 1021 1021 1021 
1021 1021 1021 1021 1021 1021 1021 1021 1021 
1021 1021 1021 1021 1021 1021 1021 1021 1021 
1021 1021 1021 1021 1021 1021 1021 1021 1021 
1021 1021 1021 1021 1021 1021 1021 1021 1021 
1021 1021 1021 1021 1021 1021 1021 1021 1021 
1021 1021 1021 1021 1021 1021 1021 1021 1021 
1021 1021 1021 1021 1021 1021 1021 1021 1021 
1021 1021 1021 1021 1021 1021 1021 1021 1021 
1021 1021 1021 1021 1021 1021 1021 1021 1021 
1021 1021 1021 1021 1021 1021 1021 1021 1021 
1021 1021 1021 1021 1021 1021 1021 1021 1021 
1021 1021 1021 1021 1021 1021 1021 1021 1021 
1021 1021 1021 1021 1021 1021 1021 1021 1021 
1021 1021 1021 1021 1021 1021 1021 1021 1021 
1021 1021 1021 1021 1021 1021 1021 1021 1021 
1021 1021 1021 1021 1021 1021 1021 1021 1021 
1021 1021 1021 1021 1021 1021 1021 1021 1021 
1021 1021 1021 1021 1021 1021 1021 1021 1021 
1021 1021 1021 1021 1021 1021 1021 1021 1021 
1021 1021 1021 1021 1021 1021 1021 1021 1021 
1021 1021 1021 1021 1021 1021 1021 1021 1021 
1021 1021 1021 1021 1021 1021 1021 1021 1021 
1021 1021 1021 1021 1021 1021 1021 1021 1021 
1021 1021 1021 1021 1021 1021 1021 1021 1021 
1021 1021 1021 1021 1021 1021 1021 1021 1021 
1021 1021 1021 1021 1021 1021 1021 1021 1021 
1021 1021 1021 1021 1021 1021 1021 1021 1021 
1021 1021 1021 1021 1021 1021 1021 1021 1021 
1021 1021 1021 1021 1021 1021 1021 1021 1021 
1021 1021 1021 1021 1021 1021 1021 1021 1021 
1021 1021 1021 1021 1021 1021 1021 1021 1021 
1021 1021 1021 1021 1021 1021 1021 1021 1021 
1021 1021 1021 1021 1021 1021 1021 1021 1021 
1021 1021 1021 1021 1021 1021 1021 1021 1021 
1021 1021 1021 1021 1021 1021 1021 1021 1021 
1021 1021 1021 1021 1021 1021 1021 1021 1021 
1021 1021 1021 1021 1021 1021 1021 1021 1021 
1021 1021 1021 1021 1021 1021 1021 1021 1021 
1021 1021 1021 1021 1021 1021 1021 1021 1021 
1021 1021 1021 1021 1021 1021 1021 1021 1021 
1021 1021 1021 1021 1021 1021 1021 1021 1021 
1021 1021 1021 1021 1021 1021 1021 1021 1021 
1021 1021 1021 1021 1021 1021 1021 1021 1021 
1021 1021 1021 1021 1021 1021 1021 1021 1021 
1021 1021 1021 1021 1021 1021 1021 1021 1021 
1021 1021 1021 1021 1021 1021 1021 1021 1021 
1021 1021 1021 1021 1021 1021 1021 1021 1021 
1021 1021 1021 1021 1021 1021 1021 1021 1021 
1021 1021 1021 1021 1021 1021 1021 1021 1021 
1021 1021 1021 1021 1021 1021 1021 1021 1021 
1021 1021 1021 1021 1021 1021 1021 1021 1021 
1021 1021 1021 1021 1021 1021 1021 1021 1021 
1021 1021 1021 1021 1021 1021 1021 1021 1021 
1021 1021 1021 1021 1021 1021 1021 1021 1021 
1021 1021 1021 1021 1021 1021 1021 1021 1021 
1021 1021 1021 1021 1021 1021 1021 1021 1021 
1021 1021 1021 1021 1021 1021 1021 1021 1021 
1021 1021 1021 1021 1021 1021 1021 1021 1021 
1021 1021 1021 1021 1021 1021 1021 1021 1021 
1021 1021 1021 1021 1021 1021 1021 1021 1021 
1021 1021 1021 1021 1021 1021 1021 1021 1021 
1021 1021 1021 1021 1021 1021 1021 1021 1021 
1021 1021 1021 1021 1021 1021 1021 1021 1021 
1021 1021 1021 1021 1021 1021 1021 1021 1021 
1021 1021 1021 1021 1021 1021 1021 1021 1021 
1021 1021 1021 1021 1021 1021 1021 1021 1021 
1021 1021 1021 1021 1021 1021 1021 1021 1021 
1021 1021 1021 1021 1021 1021 1021 1021 1021 
1021 1021 1021 1021 1021 1021 1021 1021 1021 
1021 1021 1021 1021 1021 1021 1021 1021 1021 
1021 1021 1021 1021 1021 1021 1021 1021 1021 
1021 1021 1021 1021 1021 1021 1021 1021 1021 
1021 1021 1021 1021 1021 1021 1021 1021 1021 
1021 1021 1021 1021 1021 1021 1021 1021 1021 
1021 1021 1021 1021 1021 1021 1021 1021 1021 
1021 1021 1021 1021 1021 1021 1021 1021 1021 
1021 1021 1021 1021 1021 1021 1021 1021 1021 
1021 1021 1021 1021 1021 1021 1021 1021 1021 
1021 1021 1021 1021 1021 1021 1021 1021 1021 
1021 1021 1021 1021 1021 1021 1021 1021 1021 
1021 1021 1021 1021 1021 1021 1021 1021 1021 
1021 1021 1021 1021 1021 1021 1021 1021 1021 
1021 1021 1021 1021 1021 1021 1021 1021 1021 
1021 1021 1021 1021 1021 1021 1021 1021 1021 
1021 1021 1021 1021 1021 1021 1021 1021 1021 
1021 1021 1021 1021 1021 1021 1021 1021 1021 
1021 1021 1021 1021 1021 1021 1021 1021 1021 
1021 1021 1021 1021 1021 1021 1021 1021 1021 
1021 1021 1021 1021 1021 1021 1021 1021 1021 
1021 1021 1021 1021 1021 1021 1021 1021 1021 
1021 1021 1021 1021 1021 1021 1021 1021 1021 
1021 1021 1021 1021 1021 1021 1021 1021 1021 
1021 1021 1021 1021 1021 1021 1021 1021 1021 
1021 1021 1021 1021 1021 1021 1021 1021 1021 
1021 1021 1021 1021 1021 1021 1021 1021 1021 
1021 1021 1021 1021 1021 1021 1021 1021 1021 
1021 1021 1021 1021 1021 1021 1021 1021 1021 
1021 1021 1021 1021 1021 1021 1021 1021 1021 
1021 1021 1021 1021 1021 1021 1021 1021 1021 
1021 1021 1021 1021 1021 1021 1021 1021 1021 
1021 1021 1021 1021 1021 1021 1021 1021 1021 
1021 1021 1021 1021 1021 1021 1021 1021 1021 
1021 1021 1021 1021 1021 1021 1021 1021 1021 
1021 1021 1021 1021 1021 1021 1021 1021 1021 
1021 1021 1021 1021 1021 1021 1021 1021 1021 
1021 1021 1021 1021 1021 1021 1021 1021 1021 
1021 1021 1021 1021 1021 1021 1021 1021 1021 
1021 1021 1021 1021 1021 1021 1021 1021 1021 
1021 1021 1021 1021 1021 1021 1021 1021 1021 
1021 1021 1021 1021 1021 1021 1021 1021 1021 
1021 1021 1021 1021 1021 1021 1021 1021 1021 
1021 1021 1021 1021 1021 1021 1021 1021 1021 
1021 1021 1021 1021 1021 1021 1021 1021 1021 
1021 1021 1021 1021 1021 1021 1021 1021 1021 
1021 1021 1021 1021 1021 1021 1021 1021 1021 
1021 1021 1021 1021 1021 1021 1021 1021 1021 
1021 1021 1021 1021 1021 1021 1021 1021 1021 
1021 1021 1021 1021 1021 1021 1021 1021 1021 
1021 1021 1021 1021 1021 1021 1021 1021 1021 
1021 1021 1021 1021 1021 1021 1021 1021 1021 
1021 1021 1021 1021 1021 1021 1021 1021 1021 
1021 1021 1021 1021 1021 1021 1021 1021 1021 
1021 1021 1021 1021 1021 1021 1021 1021 1021 
1021 1021 1021 1021 1021 1021 1021 1021 1021 
1021 1021 1021 1021 1021 1021 1021 1021 1021 
1021 1021 1021 1021 1021 1021 1021 1021 1021 
1021 1021 1021 1021 1021 1021 1021 1021 1021 
1021 1021 1021 1021 1021 1021 1021 1021 1021 
1021 1021 1021 1021 1021 1021 1021 1021 1021 
1021 1021 1021 1021 1021 1021 1021 1021 1021 
1021 1021 1021 1021 1021 1021 1021 1021 1021 
1021 1021 1021 1021 1021 1021 1021 1021 1021 
1021 1021 1021 1021 1021 1021 1021 1021 1021 
1021 1021 1021 1021 1021 1021 1021 1021 1021 
1021 1021 1021 1021 1021 1021 1021 1021 1021 