# vtk DataFile Version 4.2
vtk output
ASCII
DATASET POLYDATA
POINTS 19208 float
-19.9035 -11.2292 55.3165 -19.603 -11.8217 55.855 -19.1887 -11.4304 55.2301 
-20.3835 -11.8182 55.3225 -21.8381 -11.151 55.326 -21.8488 -11.6006 55.7696 
-21.2433 -11.6963 55.3134 -22.9041 -11.1854 55.3263 -22.4013 -11.4255 55.7708 
-22.93 -11.6906 55.5398 -19.7752 -11.0767 54.5407 -19.1113 -11.4382 54.2559 
-20.5725 -11.5393 55.0487 -20.7717 -11.0674 54.7034 -21.8349 -10.9524 54.3612 
-22.7379 -10.9374 54.5246 -23.7276 -11.7467 55.1391 -23.8725 -11.0562 54.5348 
-24.7934 -11.2081 54.2786 -24.5523 -11.4662 54.8226 -25.0861 -11.6917 54.53 
-19.8095 -11.0921 53.4425 -19.1605 -11.4702 53.2044 -20.6815 -10.9429 53.4841 
-21.6948 -10.9496 53.4462 -22.7033 -10.9526 53.4464 -23.5565 -10.9328 53.6404 
-24.4468 -11.1166 53.4207 -25.3448 -11.7993 53.6271 -19.8208 -11.1681 52.4819 
-19.2789 -11.4689 52.5248 -20.7025 -10.9604 52.4133 -21.6999 -10.9625 52.3796 
-22.5645 -10.9973 52.5377 -23.5459 -11.1304 52.4881 -24.3476 -11.3779 52.5826 
-24.877 -11.6125 52.8879 -19.5663 -11.5647 51.9437 -20.1496 -11.4736 51.419 
-20.4823 -11.1726 51.6693 -21.4568 -11.1195 51.5078 -22.5737 -11.186 51.5995 
-23.3402 -11.4467 51.5776 -23.9368 -11.5372 52.0032 -20.7557 -11.613 50.9886 
-21.9995 -11.492 50.8736 -22.8425 -11.568 51.0629 -18.6681 -11.9636 55.4545 
-18.9559 -12.6766 55.9426 -18.1906 -12.4962 55.4045 -19.7819 -12.5026 56.1279 
-20.8185 -12.1788 55.5736 -20.4404 -12.3861 55.8447 -21.7335 -11.9793 55.5946 
-20.9042 -12.4632 55.5604 -22.3183 -11.9689 55.621 -17.9917 -12.2216 54.6504 
-17.6503 -12.8503 54.9034 -17.436 -12.7695 54.1832 -18.6158 -11.7733 54.7379 
-20.8156 -12.0238 54.3393 -20.2919 -12.5681 54.3433 -20.7182 -12.3277 55.2527 
-21.9219 -12.4508 55.057 -21.2386 -12.2412 54.6993 -23.0015 -12.4297 55.0922 
-23.938 -12.558 54.8998 -24.6505 -12.1683 54.8495 -25.2225 -12.2554 54.3624 
-17.8189 -12.4297 53.8713 -18.0739 -12.6765 53.1038 -18.4645 -11.9676 53.7787 
-20.6554 -12.1916 53.5934 -20.4002 -12.6925 53.3748 -21.5382 -12.4262 54.0176 
-21.3325 -12.2528 53.4772 -21.9412 -12.6141 53.5574 -25.5264 -12.5703 53.8508 
-25.8363 -12.2 53.4613 -25.9087 -12.47 53.4286 -18.7835 -11.9868 52.6692 
-18.4201 -12.7426 52.428 -20.8998 -12.4772 53.1117 -21.6161 -12.6926 53.0303 
-24.5945 -11.904 52.1009 -25.3928 -12.6137 52.6566 -25.7636 -12.3177 53.2158 
-18.9365 -12.3712 51.9503 -19.6798 -11.9683 51.4121 -19.2126 -12.8531 51.2981 
-23.6736 -11.8058 51.3094 -24.4567 -12.1737 51.2095 -25.0563 -12.6174 51.5252 
-19.9269 -12.3019 50.8867 -20.7251 -12.1342 50.3754 -20.1432 -12.4896 50.4801 
-21.7025 -11.8497 50.2853 -22.7228 -11.8275 50.5452 -23.6051 -12.1473 50.3867 
-24.3666 -12.6435 50.3562 -24.8356 -12.6383 50.8513 -20.5415 -12.6324 49.969 
-21.2931 -12.5641 49.2953 -21.5034 -12.202 49.7012 -22.5564 -12.1403 49.6751 
-23.3372 -12.6613 49.3719 -23.8214 -12.6027 49.8495 -22.0586 -12.4632 48.9955 
-22.7516 -12.6265 48.8979 -14.7327 -13.3287 72.5516 -14.8782 -13.7617 72.9964 
-14.439 -13.661 72.6204 -15.1357 -13.5575 72.5426 -14.6405 -13.6416 72.159 
-18.5586 -13.7307 55.9447 -18.101 -13.1997 55.5451 -19.7155 -13.3251 55.9076 
-20.4645 -12.8598 55.3315 -19.9839 -13.4284 55.3149 -17.4784 -13.4844 55.0132 
-17.1465 -13.3813 54.3329 -19.923 -13.2283 54.7138 -19.5337 -13.8195 54.7266 
-19.7218 -13.5444 54.982 -21.978 -12.7758 54.2034 -22.7303 -12.9402 54.3427 
-23.5845 -12.9381 54.5055 -24.5569 -12.9424 54.3198 -17.5619 -12.9106 53.5602 
-17.2062 -13.3158 53.6817 -19.8826 -13.6216 54.16 -20.2552 -13.4502 53.5736 
-22.4359 -12.9212 53.3407 -23.4883 -13.1982 53.4983 -24.2113 -13.705 53.7894 
-24.9377 -13.5214 54.0448 -25.5968 -12.8726 53.4269 -25.3224 -13.7894 53.4198 
-17.4372 -13.5513 53.0406 -18.0004 -13.4759 52.482 -20.9335 -13.4408 52.9885 
-21.8848 -13.0951 52.4398 -21.4318 -13.6444 52.4841 -22.8384 -13.0889 52.3771 
-23.2974 -13.4616 52.4745 -23.7025 -13.8685 53.03 -25.704 -13.3638 52.709 
-25.7145 -13.2704 52.2776 -25.8682 -13.5139 52.4267 -18.5672 -13.4183 51.9558 
-18.986 -13.7339 51.4414 -21.8557 -13.3829 51.9567 -22.5348 -13.1441 51.4084 
-22.1703 -13.6105 51.4005 -23.0936 -13.5411 51.6258 -25.4221 -13.4879 51.7174 
-25.712 -13.7023 52.1802 -19.7295 -12.8823 50.5543 -19.3129 -13.7423 50.541 
-22.6391 -13.2463 50.5258 -22.4097 -13.7652 50.4331 -23.0079 -13.5665 50.6454 
-24.7925 -12.9899 50.4097 -25.1035 -13.4501 50.7516 -19.9092 -13.3026 49.8952 
-20.691 -12.9982 49.2868 -20.105 -13.4961 49.114 -22.8005 -13.647 50.094 
-23.7188 -12.9514 49.4261 -24.0897 -13.2564 49.617 -24.6748 -13.6557 50.0211 
-20.8135 -13.1883 48.5026 -20.2706 -13.515 48.526 -21.5417 -12.8283 48.6192 
-22.4184 -13.0001 48.2192 -23.1316 -13.4519 48.4429 -23.6616 -13.6484 49.0247 
-20.5692 -13.5851 47.9281 -21.1093 -13.6433 47.317 -21.6009 -13.1825 47.7475 
-22.3464 -13.3915 47.5034 -22.8235 -13.6266 47.7674 -21.8859 -13.8215 47.09 
-14.7557 -14.185 73.4625 -14.5611 -14.5485 73.7244 -14.2618 -14.2967 73.1142 
-15.1403 -14.3985 73.5502 -13.9661 -14.4974 72.1682 -15.565 -13.9782 72.103 
-15.5713 -14.1653 72.8961 -16.0689 -14.7296 72.6436 -13.9684 -14.0782 71.5236 
-13.6041 -14.481 71.7859 -13.4237 -14.4157 71.3217 -14.9844 -13.8596 71.3798 
-15.7373 -14.1115 71.2545 -16.1175 -14.6303 71.7079 -13.7462 -14.1127 70.5463 
-13.3701 -14.4829 70.5237 -14.6794 -13.9453 70.4696 -15.5847 -14.0924 70.4265 
-16.1008 -14.6164 70.7237 -13.749 -14.112 69.5267 -13.3349 -14.5961 69.4015 
-14.6563 -13.95 69.4438 -15.5677 -14.0994 69.4142 -16.0965 -14.6216 69.7139 
-13.7776 -14.0959 68.4858 -13.2703 -14.493 68.3561 -14.711 -13.9316 68.4267 
-15.6218 -14.086 68.3987 -16.1307 -14.6286 68.691 -13.7756 -14.0884 67.4764 
-13.2334 -14.6264 67.4902 -14.704 -13.9183 67.4214 -15.633 -14.0688 67.4012 
-16.1541 -14.6081 67.677 -13.7971 -14.0867 66.4607 -13.2399 -14.6352 66.4762 
-14.5367 -13.9128 66.5809 -15.4142 -14.1014 66.3654 -16.0581 -14.6212 66.7517 
-13.8274 -14.0471 65.408 -13.2697 -14.5884 65.4601 -14.7184 -14.0211 65.5326 
-15.3466 -14.4521 65.5124 -15.761 -14.8197 66.0037 -13.7954 -14.0106 64.3993 
-13.2744 -14.5647 64.4334 -14.5754 -14.0468 64.3981 -15.131 -14.5689 64.6788 
-13.6923 -14.1187 63.6183 -13.3423 -14.7643 63.3547 -14.4032 -14.0918 63.4892 
-15.0769 -14.7124 63.5713 -14.0304 -14.4041 62.8957 -14.7439 -14.5895 62.8387 
-16.9219 -14.2626 55.5256 -16.5886 -14.8563 55.853 -16.1906 -14.498 55.1618 
-17.6233 -13.8886 55.5069 -17.7076 -14.4372 55.9123 -18.7785 -14.4345 55.8623 
-19.5348 -13.8928 55.4127 -19.1623 -14.5469 55.2891 -16.8234 -13.9952 54.7508 
-16.1132 -14.6448 54.147 -19.601 -14.6859 54.8227 -19.6673 -14.0335 54.4202 
-20.1365 -14.49 54.3969 -24.8248 -14.2249 54.4376 -24.6863 -14.6225 54.6985 
-24.4909 -14.3252 54.3373 -24.9239 -14.5705 54.2458 -16.768 -13.9926 53.6659 
-16.377 -14.7649 53.4008 -20.5963 -14.0529 53.4102 -20.44 -14.2888 53.8518 
-21.0197 -14.4892 53.4956 -24.2093 -14.4266 53.6651 -25.0726 -14.5979 53.3352 
-16.975 -14.5373 52.9271 -17.4892 -14.1144 52.5171 -17.4031 -14.7142 52.5061 
-21.7304 -13.9122 52.2592 -21.4439 -14.2844 52.8875 -21.9637 -14.6131 52.5106 
-23.9491 -14.8627 53.097 -23.3566 -14.4016 52.4109 -25.7015 -13.7958 52.6115 
-25.2877 -14.4839 52.2525 -17.9897 -14.4116 52.184 -18.6538 -14.3431 51.8102 
-19.0305 -14.5488 51.342 -22.1596 -14.5245 51.3426 -23.21 -14.4912 51.3389 
-25.2799 -14.3575 51.2083 -19.2054 -14.7189 50.6474 -22.3801 -14.7255 50.5735 
-23.012 -14.3846 50.4243 -25.0501 -14.492 50.504 -19.5788 -13.8389 49.5509 
-19.2883 -14.546 49.591 -22.6512 -14.2247 50.1118 -24.1955 -14.3891 49.5209 
-24.6794 -14.6306 50.0332 -19.7707 -14.0046 48.6608 -19.3293 -14.8532 48.3493 
-23.4039 -14.3682 48.4146 -23.7159 -14.8031 48.9183 -19.9159 -14.3029 47.8482 
-20.4982 -14.0368 47.45 -20.1589 -14.459 47.4106 -22.6279 -13.9229 47.2897 
-23.0893 -14.4552 47.7269 -20.8159 -14.5936 46.9502 -21.9391 -14.6712 46.8653 
-22.6051 -14.5887 47.0898 -23.7677 -14.0999 44.3582 -23.465 -14.7398 44.8175 
-23.0879 -14.3682 44.3958 -24.4835 -14.1658 44.2234 -24.3764 -14.6033 44.9433 
-25.0395 -14.7662 44.6145 -23.0361 -14.087 43.5576 -22.5829 -14.621 44.1302 
-22.3453 -14.6091 43.4241 -23.8612 -14.028 43.4817 -24.3743 -14.4654 43.4099 
-24.8265 -14.5982 43.8993 -22.794 -14.0641 42.4409 -22.1546 -14.5801 42.3448 
-23.5428 -14.0499 42.4534 -24.0532 -14.4061 42.6389 -22.6998 -14.1523 41.6332 
-22.3447 -14.504 41.3404 -23.3773 -14.1272 41.5278 -24.0342 -14.6759 41.5874 
-23.0325 -14.4267 40.9456 -23.7287 -14.6018 40.8657 -13.7155 -15.7126 76.9137 
-13.0391 -15.3462 76.3624 -13.8061 -15.1918 76.1702 -14.289 -15.6093 76.6002 
-12.9423 -15.1197 75.5323 -12.5932 -15.399 76.0197 -12.3583 -15.5721 75.3824 
-13.8301 -14.955 75.3114 -14.7774 -15.6668 76.1281 -14.7916 -15.1442 75.3669 
-15.3433 -15.616 75.5806 -12.7532 -15.187 74.5499 -12.4431 -15.6325 74.5768 
-13.4735 -14.9657 74.6522 -14.659 -14.8706 74.3207 -15.6233 -15.4203 75.0644 
-15.6312 -15.1811 74.3955 -16.072 -15.7682 74.6421 -12.7841 -15.4242 74.0275 
-13.1662 -15.7045 73.5379 -13.6269 -14.9781 73.7446 -15.7124 -14.8273 73.5258 
-16.1751 -15.5248 73.5801 -13.6566 -15.0633 72.7634 -13.4575 -15.8013 72.6898 
-16.3776 -15.5505 72.5112 -13.6645 -14.8653 71.3252 -13.7552 -15.3615 72.1535 
-14.0012 -15.6097 71.719 -16.3886 -15.3474 71.4277 -13.6287 -14.9849 70.2482 
-14.054 -15.6093 70.7672 -16.3795 -15.3413 70.4242 -13.5657 -15.1572 69.41 
-14.0108 -15.7221 69.6708 -16.386 -15.3577 69.4118 -13.7165 -15.6831 68.9169 
-13.2713 -15.3077 68.4596 -16.3696 -15.4807 68.3115 -13.0952 -15.3481 67.381 
-16.2646 -15.3017 67.2907 -13.1078 -15.5281 66.5298 -16.1139 -15.623 66.4721 
-13.1164 -15.5081 65.4956 -15.4346 -15.3154 65.2148 -15.7833 -15.6161 65.7968 
-13.1296 -15.5007 64.4621 -15.2788 -15.3509 64.2801 -13.1399 -15.6528 63.6116 
-15.2677 -15.6699 63.5799 -13.7289 -14.9261 62.4913 -13.2954 -15.5018 62.5723 
-14.4341 -14.9953 62.3364 -15.0163 -15.3906 62.7096 -14.0452 -15.5649 61.9836 
-14.6417 -15.4847 62.1507 -15.7481 -14.9721 55.5208 -15.8301 -15.5916 56.0415 
-15.306 -15.5875 55.4492 -16.618 -15.494 56.0499 -17.617 -15.3265 55.8583 
[...]
CELL_DATA 38548
SCALARS scalars float
LOOKUP_TABLE default
1029 1029 1029 1029 1029 1029 1029 1029 1029 
1029 1029 1029 1029 1029 1029 1029 1029 1029 
1029 1029 1029 1029 1029 1029 1029 1029 1029 
1029 1029 1029 1029 1029 1029 1029 1029 1029 
1029 1029 1029 1029 1029 1029 1029 1029 1029 
1029 1029 1029 1029 1029 1029 1029 1029 1029 
1029 1029 1029 1029 1029 1029 1029 1029 1029 
1029 1029 1029 1029 1029 1029 1029 1029 1029 
1029 1029 1029 1029 1029 1029 1029 1029 1029 
1029 1029 1029 1029 1029 1029 1029 1029 1029 
1029 1029 1029 1029 1029 1029 1029 1029 1029 
1029 1029 1029 1029 1029 1029 1029 1029 1029 
1029 1029 1029 1029 1029 1029 1029 1029 1029 
1029 1029 1029 1029 1029 1029 1029 1029 1029 
1029 1029 1029 1029 1029 1029 1029 1029 1029 
1029 1029 1029 1029 1029 1029 1029 1029 1029 
1029 1029 1029 1029 1029 1029 1029 1029 1029 
1029 1029 1029 1029 1029 1029 1029 1029 1029 
1029 1029 1029 1029 1029 1029 1029 1029 1029 
1029 1029 1029 1029 1029 1029 1029 1029 1029 
1029 1029 1029 1029 1029 1029 1029 1029 1029 
1029 1029 1029 1029 1029 1029 1029 1029 1029 
1029 1029 1029 1029 1029 1029 1029 1029 1029 
1029 1029 1029 1029 1029 1029 1029 1029 1029 
1029 1029 1029 1029 1029 1029 1029 1029 1029 
1029 1029 1029 1029 1029 1029 1029 1029 1029 
1029 1029 1029 1029 1029 1029 1029 1029 1029 
1029 1029 1029 1029 1029 1029 1029 1029 1029 
1029 1029 1029 1029 1029 1029 1029 1029 1029 
1029 1029 1029 1029 1029 1029 1029 1029 1029 
1029 1029 1029 1029 1029 1029 1029 1029 1029 
1029 1029 1029 1029 1029 1029 1029 1029 1029 
1029 1029 1029 1029 1029 1029 1029 1029 1029 
1029 1029 1029 1029 1029 1029 1029 1029 1029 
1029 1029 1029 1029 1029 1029 1029 1029 1029 
1029 1029 1029 1029 1029 1029 1029 1029 1029 
1029 1029 1029 1029 1029 1029 1029 1029 1029 
1029 1029 1029 1029 1029 1029 1029 1029 1029 
1029 1029 1029 1029 1029 1029 1029 1029 1029 
1029 1029 1029 1029 1029 1029 1029 1029 1029 
1029 1029 1029 1029 1029 1029 1029 1029 1029 
1029 1029 1029 1029 1029 1029 1029 1029 1029 
1029 1029 1029 1029 1029 1029 1029 1029 1029 
1029 1029 1029 1029 1029 1029 1029 1029 1029 
1029 1029 1029 1029 1029 1029 1029 1029 1029 
1029 1029 1029 1029 1029 1029 1029 1029 1029 
1029 1029 1029 1029 1029 1029 1029 1029 1029 
1029 1029 1029 1029 1029 1029 1029 1029 1029 
1029 1029 1029 1029 1029 1029 1029 1029 1029 
1029 1029 1029 1029 1029 1029 1029 1029 1029 
1029 1029 1029 1029 1029 1029 1029 1029 1029 
1029 1029 1029 1029 1029 1029 1029 1029 1029 
1029 1029 1029 1029 1029 1029 1029 1029 1029 
1029 1029 1029 1029 1029 1029 1029 1029 1029 
1029 1029 1029 1029 1029 1029 1029 1029 1029 
1029 1029 1029 1029 1029 1029 1029 1029 1029 
1029 1029 1029 1029 1029 1029 1029 1029 1029 
1029 1029 1029 1029 1029 1029 1029 1029 1029 
1029 1029 1029 1029 1029 1029 1029 1029 1029 
1029 1029 1029 1029 1029 1029 1029 1029 1029 
1029 1029 1029 1029 1029 1029 1029 1029 1029 
1029 1029 1029 1029 1029 1029 1029 1029 1029 
1029 1029 1029 1029 1029 1029 1029 1029 1029 
1029 1029 1029 1029 1029 1029 1029 1029 1029 
1029 1029 1029 1029 1029 1029 1029 1029 1029 
1029 1029 1029 1029 1029 1029 1029 1029 1029 
1029 1029 1029 1029 1029 1029 1029 1029 1029 
1029 1029 1029 1029 1029 1029 1029 1029 1029 
1029 1029 1029 1029 1029 1029 1029 1029 1029 
1029 1029 1029 1029 1029 1029 1029 1029 1029 
1029 1029 1029 1029 1029 1029 1029 1029 1029 
1029 1029 1029 1029 1029 1029 1029 1029 1029 
1029 1029 1029 1029 1029 1029 1029 1029 1029 
1029 1029 1029 1029 1029 1029 1029 1029 1029 
1029 1029 1029 1029 1029 1029 1029 1029 1029 
1029 1029 1029 1029 1029 1029 1029 1029 1029 
1029 1029 1029 1029 1029 1029 1029 1029 1029 
1029 1029 1029 1029 1029 1029 1029 1029 1029 
1029 1029 1029 1029 1029 1029 1029 1029 1029 
1029 1029 1029 1029 1029 1029 1029 1029 1029 
1029 1029 1029 1029 1029 1029 1029 1029 1029 
1029 1029 1029 1029 1029 1029 1029 1029 1029 
1029 1029 1029 1029 1029 1029 1029 1029 1029 
1029 1029 1029 1029 1029 1029 1029 1029 1029 
1029 1029 1029 1029 1029 1029 1029 1029 1029 
1029 1029 1029 1029 1029 1029 1029 1029 1029 
1029 1029 1029 1029 1029 1029 1029 1029 1029 
1029 1029 1029 1029 1029 1029 1029 1029 1029 
1029 1029 1029 1029 1029 1029 1029 1029 1029 
1029 1029 1029 1029 1029 1029 1029 1029 1029 
1029 1029 1029 1029 1029 1029 1029 1029 1029 
1029 1029 1029 1029 1029 1029 1029 1029 1029 
1029 1029 1029 1029 1029 1029 1029 1029 1029 
1029 1029 1029 1029 1029 1029 1029 1029 1029 
1029 1029 1029 1029 1029 1029 1029 1029 1029 
1029 1029 1029 1029 1029 1029 1029 1029 1029 
1029 1029 1029 1029 1029 1029 1029 1029 1029 
1029 1029 1029 1029 1029 1029 1029 1029 1029 
1029 1029 1029 1029 1029 1029 1029 1029 1029 
1029 1029 1029 1029 1029 1029 1029 1029 1029 
1029 1029 1029 1029 1029 1029 1029 1029 1029 
1029 1029 1029 1029 1029 1029 1029 1029 1029 
1029 1029 1029 1029 1029 1029 1029 1029 1029 
1029 1029 1029 1029 1029 1029 1029 1029 1029 
1029 1029 1029 1029 1029 1029 1029 1029 1029 
1029 1029 1029 1029 1029 1029 1029 1029 1029 
1029 1029 1029 1029 1029 1029 1029 1029 1029 
1029 1029 1029 1029 1029 1029 1029 1029 1029 
1029 1029 1029 1029 1029 1029 1029 1029 1029 
1029 1029 1029 1029 1029 1029 1029 1029 1029 
1029 1029 1029 1029 1029 1029 1029 1029 1029 
1029 1029 1029 1029 1029 1029 1029 1029 1029 
1029 1029 1029 1029 1029 1029 1029 1029 1029 
1029 1029 1029 1029 1029 1029 1029 1029 1029 
1029 1029 1029 1029 1029 1029 1029 1029 1029 
1029 1029 1029 1029 1029 1029 1029 1029 1029 
1029 1029 1029 1029 1029 1029 1029 1029 1029 
1029 1029 1029 1029 1029 1029 1029 1029 1029 
1029 1029 1029 1029 1029 1029 1029 1029 1029 
1029 1029 1029 1029 1029 1029 1029 1029 1029 
1029 1029 1029 1029 1029 1029 1029 1029 1029 
1029 1029 1029 1029 1029 1029 1029 1029 1029 
1029 1029 1029 1029 1029 1029 1029 1029 1029 
1029 1029 1029 1029 1029 1029 1029 1029 1029 
1029 1029 1029 1029 1029 1029 1029 1029 1029 
1029 1029 1029 1029 1029 1029 1029 1029 1029 
1029 1029 1029 1029 1029 1029 1029 1029 1029 
1029 1029 1029 1029 1029 1029 1029 1029 1029 
1029 1029 1029 1029 1029 1029 1029 1029 1029 
1029 1029 1029 1029 1029 1029 1029 1029 1029 
1029 1029 1029 1029 1029 1029 1029 1029 1029 
1029 1029 1029 1029 1029 1029 1029 1029 1029 
1029 1029 1029 1029 1029 1029 1029 1029 1029 
1029 1029 1029 1029 1029 1029 1029 1029 1029 
1029 1029 1029 1029 1029 1029 1029 1029 1029 
1029 1029 1029 1029 1029 1029 1029 1029 1029 
1029 1029 1029 1029 1029 1029 1029 1029 1029 
1029 1029 1029 1029 1029 1029 1029 1029 1029 
1029 1029 1029 1029 1029 1029 1029 1029 1029 
1029 1029 1029 1029 1029 1029 1029 1029 1029 
1029 1029 1029 1029 1029 1029 1029 1029 1029 
1029 1029 1029 1029 1029 1029 1029 1029 1029 
1029 1029 1029 1029 1029 1029 1029 1029 1029 
1029 1029 1029 1029 1029 1029 1029 1029 1029 
1029 1029 1029 1029 1029 1029 1029 1029 1029 
1029 1029 1029 1029 1029 1029 1029 1029 1029 
1029 1029 1029 1029 1029 1029 1029 1029 1029 
1029 1029 1029 1029 1029 1029 1029 1029 1029 
1029 1029 1029 1029 1029 1029 1029 1029 1029 
1029 1029 1029 1029 1029 1029 1029 1029 1029 
1029 1029 1029 1029 1029 1029 1029 1029 1029 
1029 1029 1029 1029 1029 1029 1029 1029 1029 
1029 1029 1029 1029 1029 1029 1029 1029 1029 
1029 1029 1029 1029 1029 1029 1029 1029 1029 
1029 1029 1029 1029 1029 1029 1029 1029 1029 
1029 1029 1029 1029 1029 1029 1029 1029 1029 
1029 1029 1029 1029 1029 1029 1029 1029 1029 
1029 1029 1029 1029 1029 1029 1029 1029 1029 
1029 1029 1029 1029 1029 1029 1029 1029 1029 
1029 1029 1029 1029 1029 1029 1029 1029 1029 
1029 1029 1029 1029 1029 1029 1029 1029 1029 
1029 1029 1029 1029 1029 1029 1029 1029 1029 
1029 1029 1029 1029 1029 1029 1029 1029 1029 
1029 1029 1029 1029 1029 1029 1029 1029 1029 
1029 1029 1029 1029 1029 1029 1029 1029 1029 
1029 1029 1029 1029 1029 1029 1029 1029 1029 
1029 1029 1029 1029 1029 1029 1029 1029 1029 
1029 1029 1029 1029 1029 1029 1029 1029 1029 
1029 1029 1029 1029 1029 1029 1029 1029 1029 
1029 1029 1029 1029 1029 1029 1029 1029 1029 
1029 1029 1029 1029 1029 1029 1029 1029 1029 
1029 1029 1029 1029 1029 1029 1029 1029 1029 
1029 1029 1029 1029 1029 1029 1029 1029 1029 
1029 1029 1029 1029 1029 1029 1029 1029 1029 
1029 1029 1029 1029 1029 1029 1029 1029 1029 
1029 1029 1029 1029 1029 1029 1029 1029 1029 
1029 1029 1029 1029 1029 1029 1029 1029 1029 
1029 1029 1029 1029 1029 1029 1029 1029 1029 
1029 1029 1029 1029 1029 1029 1029 1029 1029 
1029 1029 1029 1029 1029 1029 1029 1029 1029 
1029 1029 1029 1029 1029 1029 1029 1029 1029 
1029 1029 1029 1029 1029 1029 1029 1029 1029 
1029 1029 1029 1029 1029 1029 1029 1029 1029 
1029 1029 1029 1029 1029 1029 1029 1029 1029 
1029 1029 1029 1029 1029 1029 1029 1029 1029 
1029 1029 1029 1029 1029 1029 1029 1029 1029 
1029 1029 1029 1029 1029 1029 1029 1029 1029 
1029 1029 1029 1029 1029 1029 1029 1029 1029 
1029 1029 1029 1029 1029 1029 1029 1029 1029 
1029 1029 1029 1029 1029 1029 1029 1029 1029 
1029 1029 1029 1029 1029 1029 1029 1029 1029 
1029 1029 1029 1029 1029 1029 1029 1029 1029 
1029 1029 1029 1029 1029 1029 1029 1029 1029 
1029 1029 1029 1029 1029 1029 1029 1029 1029 
1029 1029 1029 1029 1029 1029 1029 1029 1029 
1029 1029 1029 1029 1029 1029 1029 1029 1029 
1029 1029 1029 1029 1029 1029 1029 1029 1029 
1029 1029 1029 1029 1029 1029 1029 1029 1029 
1029 1029 1029 1029 1029 1029 1029 1029 1029 
1029 1029 1029 1029 1029 1029 1029 1029 1029 
1029 1029 1029 1029 1029 1029 1029 1029 1029 
1029 1029 1029 1029 1029 1029 1029 1029 1029 
1029 1029 1029 1029 1029 1029 1029 1029 1029 
1029 1029 1029 1029 1029 1029 1029 1029 1029 
1029 1029 1029 1029 1029 1029 1029 1029 1029 
1029 1029 1029 1029 1029 1029 1029 1029 1029 
1029 1029 1029 1029 1029 1029 1029 1029 1029 
1029 1029 1029 1029 1029 1029 1029 1029 1029 
1029 1029 1029 1029 1029 1029 1029 1029 1029 
1029 1029 1029 1029 1029 1029 1029 1029 1029 
1029 1029 1029 1029 1029 1029 1029 1029 1029 
1029 1029 1029 1029 1029 1029 1029 1029 1029 
1029 1029 1029 1029 1029 1029 1029 1029 1029 
1029 1029 1029 1029 1029 1029 1029 1029 1029 
1029 1029 1029 1029 1029 1029 1029 1029 1029 
1029 1029 1029 1029 1029 1029 1029 1029 1029 
1029 1029 1029 1029 1029 1029 1029 1029 1029 
1029 1029 1029 1029 1029 1029 1029 1029 1029 
1029 1029 1029 1029 1029 1029 1029 1029 1029 
1029 1029 1029 1029 1029 1029 1029 1029 1029 
1029 1029 1029 1029 1029 1029 1029 1029 1029 
1029 1029 1029 1029 1029 1029 1029 1029 1029 
1029 1029 1029 1029 1029 1029 1029 1029 1029 
1029 1029 1029 1029 1029 1029 1029 1029 1029 
1029 1029 1029 1029 1029 1029 1029 1029 1029 
1029 1029 1029 1029 1029 1029 1029 1029 1029 
1029 1029 1029 1029 1029 1029 1029 1029 1029 
1029 1029 1029 1029 1029 1029 1029 1029 1029 
1029 1029 1029 1029 1029 1029 1029 1029 1029 
1029 1029 1029 1029 1029 1029 1029 1029 1029 
1029 1029 1029 1029 1029 1029 1029 1029 1029 
1029 1029 1029 1029 1029 1029 1029 1029 1029 
1029 1029 1029 1029 1029 1029 1029 1029 1029 
1029 1029 1029 1029 1029 1029 1029 1029 1029 
1029 1029 1029 1029 1029 1029 1029 1029 1029 
1029 1029 1029 1029 1029 1029 1029 1029 1029 
1029 1029 1029 1029 1029 1029 1029 1029 1029 
1029 1029 1029 1029 1029 1029 1029 1029 1029 
1029 1029 1029 1029 1029 1029 1029 1029 1029 
1029 1029 1029 1029 1029 1029 1029 1029 1029 
1029 1029 1029 1029 1029 1029 1029 1029 1029 
1029 1029 1029 1029 1029 1029 1029 1029 1029 
1029 1029 1029 1029 1029 1029 1029 1029 1029 
1029 1029 1029 1029 1029 1029 1029 1029 1029 
1029 1029 1029 1029 1029 1029 1029 1029 1029 
1029 1029 1029 1029 1029 1029 1029 1029 1029 
1029 1029 1029 1029 1029 1029 1029 1029 1029 
1029 1029 1029 1029 1029 1029 1029 1029 1029 
1029 1029 1029 1029 1029 1029 1029 1029 1029 
1029 1029 1029 1029 1029 1029 1029 1029 1029 
1029 1029 1029 1029 1029 1029 1029 1029 1029 
1029 1029 1029 1029 1029 1029 1029 1029 1029 
1029 1029 1029 1029 1029 1029 1029 1029 1029 
1029 1029 1029 1029 1029 1029 1029 1029 1029 
1029 1029 1029 1029 1029 1029 1029 1029 1029 
1029 1029 1029 1029 1029 1029 1029 1029 1029 
1029 1029 1029 1029 1029 1029 1029 1029 1029 
1029 1029 1029 1029 1029 1029 1029 1029 1029 
1029 1029 1029 1029 1029 1029 1029 1029 1029 
1029 1029 1029 1029 1029 1029 1029 1029 1029 
1029 1029 1029 1029 1029 1029 1029 1029 1029 
1029 1029 1029 1029 1029 1029 1029 1029 1029 
1029 1029 1029 1029 1029 1029 1029 1029 1029 
1029 1029 1029 1029 1029 1029 1029 1029 1029 
1029 1029 1029 1029 1029 1029 1029 1029 1029 
1029 1029 1029 1029 1029 1029 1029 1029 1029 
1029 1029 1029 1029 1029 1029 1029 1029 1029 
1029 1029 1029 1029 1029 1029 1029 1029 1029 
1029 1029 1029 1029 1029 1029 1029 1029 1029 
1029 1029 1029 1029 1029 1029 1029 1029 1029 
1029 1029 1029 1029 1029 1029 1029 1029 1029 
1029 1029 1029 1029 1029 1029 1029 1029 1029 
1029 1029 1029 1029 1029 1029 1029 1029 1029 
1029 1029 1029 1029 1029 1029 1029 1029 1029 
1029 1029 1029 1029 1029 1029 1029 1029 1029 
1029 1029 1029 1029 1029 1029 1029 1029 1029 
1029 1029 1029 1029 1029 1029 1029 1029 1029 
1029 1029 1029 1029 1029 1029 1029 1029 1029 
1029 1029 1029 1029 1029 1029 1029 1029 1029 
1029 1029 1029 1029 1029 1029 1029 1029 1029 
1029 1029 1029 1029 1029 1029 1029 1029 1029 
1029 1029 1029 1029 1029 1029 1029 1029 1029 
1029 1029 1029 1029 1029 1029 1029 1029 1029 
1029 1029 1029 1029 1029 1029 1029 1029 1029 
1029 1029 1029 1029 1029 1029 1029 1029 1029 
1029 1029 1029 1029 1029 1029 1029 1029 1029 
1029 1029 1029 1029 1029 1029 1029 1029 1029 
1029 1029 1029 1029 1029 1029 1029 1029 1029 
1029 1029 1029 1029 1029 1029 1029 1029 1029 
1029 1029 1029 1029 1029 1029 1029 1029 1029 
1029 1029 1029 1029 1029 1029 1029 1029 1029 
1029 1029 1029 1029 1029 1029 1029 1029 1029 
1029 1029 1029 1029 1029 1029 1029 1029 1029 
1029 1029 1029 1029 1029 1029 1029 1029 1029 
1029 1029 1029 1029 1029 1029 1029 1029 1029 
1029 1029 1029 1029 1029 1029 1029 1029 1029 
1029 1029 1029 1029 1029 1029 1029 1029 1029 
1029 1029 1029 1029 1029 1029 1029 1029 1029 
1029 1029 1029 1029 1029 1029 1029 1029 1029 
1029 1029 1029 1029 1029 1029 1029 1029 1029 
1029 1029 1029 1029 1029 1029 1029 1029 1029 
1029 1029 1029 1029 1029 1029 1029 1029 1029 
1029 1029 1029 1029 1029 1029 1029 1029 1029 
1029 1029 1029 1029 1029 1029 1029 1029 1029 
1029 1029 1029 1029 1029 1029 1029 1029 1029 
1029 1029 1029 1029 1029 1029 1029 1029 1029 
1029 1029 1029 1029 1029 1029 1029 1029 1029 
1029 1029 1029 1029 1029 1029 1029 1029 1029 
1029 1029 1029 1029 1029 1029 1029 1029 1029 
1029 1029 1029 1029 1029 1029 1029 1029 1029 
1029 1029 1029 1029 1029 1029 1029 1029 1029 
1029 1029 1029 1029 1029 1029 1029 1029 1029 
1029 1029 1029 1029 1029 1029 1029 1029 1029 
1029 1029 1029 1029 1029 1029 1029 1029 1029 
1029 1029 1029 1029 1029 1029 1029 1029 1029 
1029 1029 1029 1029 1029 1029 1029 1029 1029 
1029 1029 1029 1029 1029 1029 1029 1029 1029 
1029 1029 1029 1029 1029 1029 1029 1029 1029 
1029 1029 1029 1029 1029 1029 1029 1029 1029 
1029 1029 1029 1029 1029 1029 1029 1029 1029 
1029 1029 1029 1029 1029 1029 1029 1029 1029 
1029 1029 1029 1029 1029 1029 1029 1029 1029 
1029 1029 1029 1029 1029 1029 1029 1029 1029 
1029 1029 1029 1029 1029 1029 1029 1029 1029 
1029 1029 1029 1029 1029 1029 1029 1029 1029 
1029 1029 1029 1029 1029 1029 1029 1029 1029 
1029 1029 1029 1029 1029 1029 1029 1029 1029 
1029 1029 1029 1029 1029 1029 1029 1029 1029 
1029 1029 1029 1029 1029 1029 1029 1029 1029 
1029 1029 1029 1029 1029 1029 1029 1029 1029 
1029 1029 1029 1029 1029 1029 1029 1029 1029 
1029 1029 1029 1029 1029 1029 1029 1029 1029 
1029 1029 1029 1029 1029 1029 1029 1029 1029 
1029 1029 1029 1029 1029 1029 1029 1029 1029 
1029 1029 1029 1029 1029 1029 1029 1029 1029 
1029 1029 1029 1029 1029 1029 1029 1029 1029 
1029 1029 1029 1029 1029 1029 1029 1029 1029 
1029 1029 1029 1029 1029 1029 1029 1029 1029 
1029 1029 1029 1029 1029 1029 1029 1029 1029 
1029 1029 1029 1029 1029 1029 1029 1029 1029 
1029 1029 1029 1029 1029 1029 1029 1029 1029 
1029 1029 1029 1029 1029 1029 1029 1029 1029 
1029 1029 1029 1029 1029 1029 1029 1029 1029 
1029 1029 1029 1029 1029 1029 1029 1029 1029 
1029 1029 1029 1029 1029 1029 1029 1029 1029 
1029 1029 1029 1029 1029 1029 1029 1029 1029 
1029 1029 1029 1029 1029 1029 1029 1029 1029 
1029 1029 1029 1029 1029 1029 1029 1029 1029 
1029 1029 1029 1029 1029 1029 1029 1029 1029 
1029 1029 1029 1029 1029 1029 1029 1029 1029 
1029 1029 1029 1029 1029 1029 1029 1029 1029 
1029 1029 1029 1029 1029 1029 1029 1029 1029 
1029 1029 1029 1029 1029 1029 1029 1029 1029 
1029 1029 1029 1029 1029 1029 1029 1029 1029 
1029 1029 1029 1029 1029 1029 1029 1029 1029 
1029 1029 1029 1029 1029 1029 1029 1029 1029 
1029 1029 1029 1029 1029 1029 1029 1029 1029 
1029 1029 1029 1029 1029 1029 1029 1029 1029 
1029 1029 1029 1029 1029 1029 1029 1029 1029 
1029 1029 1029 1029 1029 1029 1029 1029 1029 
1029 1029 1029 1029 1029 1029 1029 1029 1029 
1029 1029 1029 1029 1029 1029 1029 1029 1029 
1029 1029 1029 1029 1029 1029 1029 1029 1029 
1029 1029 1029 1029 1029 1029 1029 1029 1029 
1029 1029 1029 1029 1029 1029 1029 1029 1029 
1029 1029 1029 1029 1029 1029 1029 1029 1029 
1029 1029 1029 1029 1029 1029 1029 1029 1029 
1029 1029 1029 1029 1029 1029 1029 1029 1029 
1029 1029 1029 1029 1029 1029 1029 1029 1029 
1029 1029 1029 1029 1029 1029 1029 1029 1029 
1029 1029 1029 1029 1029 1029 1029 1029 1029 
1029 1029 1029 1029 1029 1029 1029 1029 1029 
1029 1029 1029 1029 1029 1029 1029 1029 1029 
1029 1029 1029 1029 1029 1029 1029 1029 1029 
1029 1029 1029 1029 1029 1029 1029 1029 1029 
1029 1029 1029 1029 1029 1029 1029 1029 1029 
1029 1029 1029 1029 1029 1029 1029 1029 1029 
1029 1029 1029 1029 1029 1029 1029 1029 1029 
1029 1029 1029 1029 1029 1029 1029 1029 1029 
1029 1029 1029 1029 1029 1029 1029 1029 1029 
1029 1029 1029 1029 1029 1029 1029 1029 1029 
1029 1029 1029 1029 1029 1029 1029 1029 1029 
1029 1029 1029 1029 1029 1029 1029 1029 1029 
1029 1029 1029 1029 1029 1029 1029 1029 1029 
1029 1029 1029 1029 1029 1029 1029 1029 1029 
1029 1029 1029 1029 1029 1029 1029 1029 1029 
1029 1029 1029 1029 1029 1029 1029 1029 1029 
1029 1029 1029 1029 1029 1029 1029 1029 1029 
1029 1029 1029 1029 1029 1029 1029 1029 1029 
1029 1029 1029 1029 1029 1029 1029 1029 1029 
1029 1029 1029 1029 1029 1029 1029 1029 1029 
1029 1029 1029 1029 1029 1029 1029 1029 1029 
1029 1029 1029 1029 1029 1029 1029 1029 1029 
1029 1029 1029 1029 1029 1029 1029 1029 1029 
1029 1029 1029 1029 1029 1029 1029 1029 1029 
1029 1029 1029 1029 1029 1029 1029 1029 1029 
1029 1029 1029 1029 1029 1029 1029 1029 1029 
1029 1029 1029 1029 1029 1029 1029 1029 1029 
1029 1029 1029 1029 1029 1029 1029 1029 1029 
1029 1029 1029 1029 1029 1029 1029 1029 1029 
1029 1029 1029 1029 1029 1029 1029 1029 1029 
1029 1029 1029 1029 1029 1029 1029 1029 1029 
1029 1029 1029 1029 1029 1029 1029 1029 1029 
1029 1029 1029 1029 1029 1029 1029 1029 1029 
1029 1029 1029 1029 1029 1029 1029 1029 1029 
1029 1029 1029 1029 1029 1029 1029 1029 1029 
1029 1029 1029 1029 1029 1029 1029 1029 1029 
1029 1029 1029 1029 1029 1029 1029 1029 1029 
1029 1029 1029 1029 1029 1029 1029 1029 1029 
1029 1029 1029 1029 1029 1029 1029 1029 1029 
1029 1029 1029 1029 1029 1029 1029 1029 1029 
1029 1029 1029 1029 1029 1029 1029 1029 1029 
1029 1029 1029 1029 1029 1029 1029 1029 1029 
1029 1029 1029 1029 1029 1029 1029 1029 1029 
1029 1029 1029 1029 1029 1029 1029 1029 1029 
1029 1029 1029 1029 1029 1029 1029 1029 1029 
1029 1029 1029 1029 1029 1029 1029 1029 1029 
1029 1029 1029 1029 1029 1029 1029 1029 1029 
1029 1029 1029 1029 1029 1029 1029 1029 1029 
1029 1029 1029 1029 1029 1029 1029 1029 1029 
1029 1029 1029 1029 1029 1029 1029 1029 1029 
1029 1029 1029 1029 1029 1029 1029 1029 1029 
1029 1029 1029 1029 1029 1029 1029 1029 1029 
1029 1029 1029 1029 1029 1029 1029 1029 1029 
1029 1029 1029 1029 1029 1029 1029 1029 1029 
1029 1029 1029 1029 1029 1029 1029 1029 1029 
1029 1029 1029 1029 1029 1029 1029 1029 1029 
1029 1029 1029 1029 1029 1029 1029 1029 1029 
1029 1029 1029 1029 1029 1029 1029 1029 1029 
1029 1029 1029 1029 1029 1029 1029 1029 1029 
1029 1029 1029 1029 1029 1029 1029 1029 1029 
1029 1029 1029 1029 1029 1029 1029 1029 1029 
1029 1029 1029 1029 1029 1029 1029 1029 1029 