# vtk DataFile Version 4.2
vtk output
ASCII
DATASET POLYDATA
POINTS 1688 float
-7.9616 85.7564 -10.5464 -7.70502 85.5309 -10.0792 -7.40316 85.4126 -10.4835 
-8.88136 85.8955 -10.6093 -8.34425 85.5522 -9.96615 -9.92467 85.9131 -10.6117 
-9.38178 85.5506 -9.94229 -10.9657 85.9191 -10.6266 -10.5803 85.4208 -9.9501 
-11.9226 85.8508 -10.7492 -11.6379 85.4145 -10.1707 -12.3168 85.3916 -10.3947 
-7.77166 85.6086 -11.0897 -8.06621 85.5201 -11.8498 -8.61938 85.9082 -11.4773 
-9.69549 86.0562 -11.5255 -10.7295 86.0764 -11.5225 -11.7213 86.0726 -11.5447 
-12.7855 85.3576 -10.8683 -12.5723 85.8609 -11.5675 -13.2023 85.4008 -11.5043 
-8.82275 85.8009 -12.4868 -8.36654 85.427 -12.6353 -9.66244 86.0238 -12.5258 
-10.6932 86.0567 -12.5651 -11.7047 86.0441 -12.5729 -12.5708 85.9095 -12.5267 
-13.2276 85.5501 -12.2652 -8.8787 85.5689 -13.1443 -9.29749 85.4447 -13.7287 
-9.52642 85.798 -13.3053 -10.4581 85.8803 -13.433 -11.4714 85.8722 -13.4637 
-12.4066 85.7856 -13.4364 -13.1718 85.513 -13.2198 -10.0517 85.4927 -14.0227 
-11.0208 85.506 -14.1135 -12.0299 85.4954 -14.0957 -12.8461 85.4117 -13.9202 
-7.73185 85.0391 -9.69477 -7.59897 84.1569 -9.18077 -7.03363 84.6157 -9.64957 
-8.93051 85.0432 -9.44865 -8.70782 84.3367 -9.12129 -9.968 85.0307 -9.44895 
-9.75132 84.3965 -9.1029 -10.8063 84.8469 -9.53114 -10.5055 84.5104 -9.22304 
-11.1765 84.156 -9.48142 -6.89377 84.9261 -10.4269 -6.55593 84.3942 -9.89109 
-6.36367 84.3336 -10.5668 -11.6604 84.5797 -9.86374 -12.7417 85.0215 -10.4576 
-12.4548 84.741 -10.1886 -13.1095 84.324 -10.5759 -6.79228 84.8062 -11.4161 
-6.3663 84.1352 -11.5736 -7.35155 85.2321 -11.2953 -13.9144 84.9719 -11.87 
-13.656 84.5567 -11.1322 -14.2963 84.3166 -11.4553 -18.0472 84.8626 -11.6689 
-17.5965 84.4857 -11.153 -17.2627 84.5444 -11.8271 -18.7109 84.7858 -11.7399 
-18.3872 84.534 -11.0527 -19.0489 84.4354 -11.4043 -6.83744 84.5737 -12.0994 
-7.11121 84.512 -12.8527 -7.60677 85.0139 -12.3823 -13.8964 85.1832 -12.8027 
-14.797 84.3125 -11.9302 -14.7956 84.8548 -12.6541 -15.3406 84.3521 -12.4644 
-17.8322 84.9205 -12.5299 -17.194 84.3404 -12.7832 -18.602 84.9074 -12.5193 
-19.2499 84.5162 -12.277 -7.79146 84.8476 -13.5433 -7.17832 84.4746 -13.7909 
-8.58584 85.1771 -13.4993 -13.705 85.1384 -13.8385 -14.5644 85.0289 -13.3994 
-15.5781 84.5621 -12.9649 -15.3671 84.7945 -13.6079 -16.0713 84.1148 -13.4644 
-17.7305 84.794 -13.2856 -17.4322 84.2328 -13.7386 -18.3886 84.8656 -13.3773 
-19.1691 84.5424 -13.2398 -7.69805 84.7282 -14.3076 -7.35264 84.4284 -14.6155 
-8.56904 84.8655 -14.5225 -9.48642 85.1207 -14.3744 -10.5759 84.9805 -14.7933 
-11.7164 85.1261 -14.7108 -12.8592 85.12 -14.5876 -13.7288 85.0079 -14.5766 
-14.5191 84.8625 -14.4767 -15.307 84.6241 -14.3881 -15.8073 84.322 -14.1188 
-18.0639 84.5633 -13.9836 -18.803 84.4889 -13.9181 -8.03031 84.5158 -15.0153 
-8.79847 84.5578 -15.271 -9.30334 84.3834 -15.7282 -9.58726 84.7261 -15.2101 
-10.317 84.5484 -15.3928 -10.8781 84.5527 -15.3073 -11.3127 84.4103 -15.7023 
-11.5166 84.7664 -15.2884 -12.4685 84.8675 -15.4058 -13.5605 84.8122 -15.3487 
-14.3245 84.3308 -15.6174 -14.8928 84.4567 -14.9691 -9.89239 84.3758 -15.7859 
-12.0422 84.4984 -15.9689 -12.9705 84.5159 -16.1071 -13.6988 84.3533 -16.1156 
-6.79493 84.0941 -9.39518 -6.91065 83.3981 -8.99512 -6.31964 83.5937 -9.61744 
-7.65407 83.4846 -8.99089 -8.54357 83.3451 -8.90197 -9.71544 83.5246 -8.98536 
-10.584 83.7667 -9.14529 -11.2401 83.1907 -9.52689 -19.8861 83.8502 -9.63183 
-19.6276 83.1364 -9.05318 -19.068 83.5528 -9.54369 -20.977 83.8217 -9.65956 
-20.495 83.4739 -9.11752 -21.2475 83.1507 -9.59872 -6.08291 83.3523 -10.6778 
-11.892 83.4641 -9.8827 -12.5993 83.742 -10.1773 -13.2332 83.1468 -10.5499 
-15.9495 83.7147 -10.5347 -15.8504 83.4099 -10.3314 -15.5017 83.5092 -10.4986 
-16.814 83.8524 -10.477 -16.7166 83.2982 -10.2243 -17.753 84.0377 -10.5656 
-17.5029 83.4887 -10.1307 -18.9775 84.0237 -10.4541 -18.3248 83.3388 -9.87 
-19.9209 84.0348 -10.6188 -20.7938 84.0247 -10.4523 -21.6712 83.5749 -10.0248 
-21.6811 83.8278 -10.5553 -22.0089 83.4298 -10.7202 -6.18349 83.475 -11.5509 
-13.7058 83.5985 -10.8668 -14.7207 83.9409 -11.5239 -14.6024 83.371 -11.1228 
-15.7561 83.5556 -10.8922 -15.1289 83.639 -11.65 -16.0479 83.2406 -11.3644 
-16.5783 83.9971 -11.3 -19.7689 84.1296 -11.6185 -20.7542 84.0198 -11.5157 
-21.6608 83.8889 -11.5356 -22.0655 83.4934 -11.5478 -6.61082 84.1551 -12.4288 
-6.19226 83.4921 -12.5139 -16.0559 83.9808 -12.4574 -15.5465 83.7232 -12.0003 
-16.6926 84.101 -12.2678 -19.8961 84.1641 -12.8263 -20.5994 84.0098 -12.42 
-21.4608 83.83 -12.6231 -22.0089 83.6085 -12.3669 -6.66673 84.0071 -13.274 
-6.16822 83.5071 -13.7877 -16.5989 83.7408 -13.0643 -16.4173 83.5079 -13.6099 
-17.0074 83.5657 -13.5769 -19.5407 84.1679 -13.7854 -20.5675 83.8513 -13.5461 
-21.4808 83.1798 -13.4405 -21.844 83.5125 -12.9039 -6.79523 84.0057 -14.4665 
-6.1739 83.5135 -14.8247 -15.7093 84.0639 -14.8874 -16.3682 83.3511 -14.4699 
-17.5966 84.0979 -14.632 -17.0308 83.3734 -14.6836 -18.5866 84.0635 -14.633 
-19.6546 83.8208 -14.4406 -20.3489 83.3618 -14.6377 -20.8559 83.3531 -14.17 
-6.80612 83.8096 -15.5148 -6.26274 83.5061 -15.4811 -7.64225 84.1257 -15.5101 
-8.63888 84.2176 -15.7449 -10.6001 84.215 -15.8849 -14.9283 84.0856 -15.445 
-15.5161 83.8482 -15.5804 -16.5413 83.5464 -14.9432 -16.6254 83.7967 -15.3047 
-17.6359 83.8189 -15.4189 -18.3351 83.3836 -15.6361 -19.0056 83.5196 -15.1272 
-19.6935 83.3642 -15.0476 -6.56168 83.4023 -16.0525 -7.17035 83.4938 -16.5801 
-7.48219 83.7937 -16.3183 -8.4337 83.8733 -16.4379 -9.58738 83.991 -16.3397 
-10.5496 83.8434 -16.5596 -11.4266 84.009 -16.3995 -12.4473 84.0423 -16.586 
-13.3587 83.9521 -16.6203 -14.1017 83.7687 -16.4341 -14.877 83.6292 -16.0995 
-15.8828 83.3985 -15.9399 -16.8522 83.3065 -15.7624 -17.6348 83.2623 -16.0252 
-7.74086 83.3388 -16.969 -8.97603 83.5053 -17.0694 -9.99873 83.5051 -17.071 
-10.9901 83.3364 -17.0577 -11.9583 83.3857 -16.9289 -12.9354 83.3708 -16.9639 
-13.861 83.2354 -16.9161 -6.80457 82.7294 -8.57247 -6.53601 82.1204 -8.20988 
-6.19336 82.6761 -8.81812 -7.2395 82.3421 -8.39838 -8.88484 82.7191 -8.58795 
-8.62837 82.1585 -8.24768 -8.27751 82.6636 -8.60266 -9.32086 82.3279 -8.42551 
-5.93472 82.7758 -9.68677 -7.57479 82.8561 -8.75619 -9.69474 82.6207 -8.81958 
-10.5863 82.7806 -9.15684 -11.2294 82.1689 -9.55923 -18.7906 83.038 -9.31827 
-19.0413 82.4831 -9.19383 -18.4167 82.6138 -9.50869 -19.8869 82.4134 -9.06749 
-20.5944 82.756 -9.09105 -21.0531 82.4151 -9.68256 -5.76509 82.7113 -10.3778 
-5.57551 82.2968 -9.90862 -5.43442 82.113 -10.6356 -11.8639 82.4127 -9.93821 
-12.72 82.5253 -10.2076 -13.3787 82.3213 -10.4823 -14.8835 82.7004 -10.6371 
-14.5898 82.1131 -10.2798 -14.2894 82.6191 -10.6275 -15.7531 83.2992 -10.6703 
-15.3272 82.2857 -10.4893 -16.3876 83.0018 -10.6015 -17.0625 82.5157 -10.4441 
-17.8178 82.3986 -10.0046 -21.7643 83.1279 -10.3868 -21.3229 82.5231 -10.616 
-5.78355 82.6408 -10.9638 -5.95952 82.8376 -11.6556 -13.7937 82.7704 -10.7604 
-15.544 83.1975 -11.5135 -15.7446 82.5691 -10.9995 -16.6385 82.3581 -10.9041 
-21.8431 82.9679 -11.3039 -21.2915 82.4715 -11.8614 -5.78996 82.8081 -12.4708 
-5.63112 82.3327 -11.9851 -5.4157 82.3419 -12.6272 -21.8023 83.1115 -12.4325 
-21.3583 82.6363 -12.7259 -5.7035 82.9719 -13.2806 -5.17949 82.2852 -13.6789 
-16.6542 83.2448 -13.7023 -21.5035 82.4279 -13.2247 -21.8127 82.7826 -13.5876 
-21.8887 82.4992 -13.5784 -5.65915 83.0088 -14.283 -5.32723 82.4717 -14.678 
-16.8013 83.0591 -14.2216 -20.7607 83.0364 -14.6264 -21.1995 82.4384 -14.409 
-21.6929 82.4853 -13.7964 -5.7849 82.9986 -15.301 -5.34106 82.1382 -15.5968 
-16.7295 83.085 -15.2756 -16.4336 82.5333 -15.8281 -16.7411 82.6636 -15.0173 
-17.0028 82.5379 -15.8437 -18.7908 83.1147 -15.5807 -19.3618 82.9448 -15.5521 
-20.1357 82.7714 -15.4033 -20.7405 82.5489 -15.1019 -5.91851 82.6508 -16.0797 
-6.68701 82.9983 -16.5734 -6.2278 82.4123 -16.6738 -14.5712 83.165 -16.6918 
-15.497 82.9284 -16.5117 -16.5567 82.6739 -16.444 -16.7188 82.4468 -16.1009 
-17.432 82.7995 -16.5424 -18.1477 82.8094 -16.4159 -18.9432 82.4672 -16.0918 
-19.9242 82.2004 -15.8981 -6.92101 82.641 -17.1082 -7.61468 82.7917 -17.4768 
-7.27595 82.3856 -17.7001 -8.45422 82.9872 -17.5612 -9.48144 83.0263 -17.5888 
-10.4067 82.943 -17.561 -11.0322 82.6093 -17.4737 -11.716 82.4018 -17.1707 
-12.7065 82.5132 -17.0731 -13.7098 82.4747 -17.1031 -14.7887 82.47 -17.018 
-15.837 82.452 -16.9362 -16.7776 82.2075 -16.8915 -17.9122 82.2502 -16.9227 
-8.04537 82.4779 -17.9993 -9.00115 82.5184 -18.0852 -10.0119 82.3305 -18.0606 
-10.713 82.2769 -17.7994 -5.77129 81.982 -8.4505 -5.86543 81.2909 -8.14412 
-5.36944 81.5159 -8.6737 -6.80779 81.3386 -7.99168 -7.85031 82.276 -8.42808 
-7.74325 81.6221 -8.08429 -8.86822 81.3639 -8.00852 -9.89929 81.9292 -8.56741 
-9.4777 81.6866 -8.20728 -10.1738 81.1453 -8.5517 -5.61177 82.0936 -9.13416 
-5.25288 81.5175 -9.54233 -10.6769 81.6144 -9.06185 -11.3754 81.3298 -9.54484 
-18.7714 82.0682 -9.69043 -19.7244 82.0225 -9.58006 -20.5159 82.1567 -9.41876 
-5.18765 81.2798 -10.3652 -11.8575 81.4633 -9.89674 -12.5211 81.6053 -10.1016 
-13.8566 82.1868 -10.4726 -13.5132 81.5217 -10.0799 -14.6936 81.3459 -9.91428 
-15.9066 81.8644 -10.6261 -15.6223 81.4972 -10.245 -16.3413 81.2726 -10.5077 
-17.6713 81.1293 -10.1845 -17.2008 81.7294 -10.5438 -18.6244 81.5562 -10.0916 
-19.6331 81.81 -10.453 -19.2798 81.31 -10.6677 -20.6112 82.028 -10.2034 
-5.62697 82.2426 -11.4022 -5.31395 81.6199 -11.4992 -9.96235 81.843 -11.7975 
-9.39818 81.6146 -11.7995 -9.66236 81.2494 -11.0512 -10.2708 81.4352 -11.4222 
-16.5192 81.6796 -10.7972 -19.7664 81.8268 -11.5846 -19.2866 81.4985 -11.7452 
-20.595 82.0605 -11.291 -5.07727 81.5734 -12.6141 -9.75789 82.0258 -12.5886 
-9.26346 81.4803 -12.5776 -10.754 81.3976 -11.9127 -10.7064 81.955 -12.6736 
-11.2891 81.4246 -12.4555 -19.6148 81.7225 -12.3459 -19.3685 81.2245 -12.3051 
-20.5991 82.0188 -12.4582 -4.7653 81.7679 -13.4049 -4.64268 81.1679 -13.1047 
-4.4323 81.2313 -13.7905 -9.62137 81.8905 -13.34 -9.3723 81.2405 -13.447 
[...]
CELL_DATA 3384
SCALARS scalars float
LOOKUP_TABLE default
1032 1032 1032 1032 1032 1032 1032 1032 1032 
1032 1032 1032 1032 1032 1032 1032 1032 1032 
1032 1032 1032 1032 1032 1032 1032 1032 1032 
1032 1032 1032 1032 1032 1032 1032 1032 1032 
1032 1032 1032 1032 1032 1032 1032 1032 1032 
1032 1032 1032 1032 1032 1032 1032 1032 1032 
1032 1032 1032 1032 1032 1032 1032 1032 1032 
1032 1032 1032 1032 1032 1032 1032 1032 1032 
1032 1032 1032 1032 1032 1032 1032 1032 1032 
1032 1032 1032 1032 1032 1032 1032 1032 1032 
1032 1032 1032 1032 1032 1032 1032 1032 1032 
1032 1032 1032 1032 1032 1032 1032 1032 1032 
1032 1032 1032 1032 1032 1032 1032 1032 1032 
1032 1032 1032 1032 1032 1032 1032 1032 1032 
1032 1032 1032 1032 1032 1032 1032 1032 1032 
1032 1032 1032 1032 1032 1032 1032 1032 1032 
1032 1032 1032 1032 1032 1032 1032 1032 1032 
1032 1032 1032 1032 1032 1032 1032 1032 1032 
1032 1032 1032 1032 1032 1032 1032 1032 1032 
1032 1032 1032 1032 1032 1032 1032 1032 1032 
1032 1032 1032 1032 1032 1032 1032 1032 1032 
1032 1032 1032 1032 1032 1032 1032 1032 1032 
1032 1032 1032 1032 1032 1032 1032 1032 1032 
1032 1032 1032 1032 1032 1032 1032 1032 1032 
1032 1032 1032 1032 1032 1032 1032 1032 1032 
1032 1032 1032 1032 1032 1032 1032 1032 1032 
1032 1032 1032 1032 1032 1032 1032 1032 1032 
1032 1032 1032 1032 1032 1032 1032 1032 1032 
1032 1032 1032 1032 1032 1032 1032 1032 1032 
1032 1032 1032 1032 1032 1032 1032 1032 1032 
1032 1032 1032 1032 1032 1032 1032 1032 1032 
1032 1032 1032 1032 1032 1032 1032 1032 1032 
1032 1032 1032 1032 1032 1032 1032 1032 1032 
1032 1032 1032 1032 1032 1032 1032 1032 1032 
1032 1032 1032 1032 1032 1032 1032 1032 1032 
1032 1032 1032 1032 1032 1032 1032 1032 1032 
1032 1032 1032 1032 1032 1032 1032 1032 1032 
1032 1032 1032 1032 1032 1032 1032 1032 1032 
1032 1032 1032 1032 1032 1032 1032 1032 1032 
1032 1032 1032 1032 1032 1032 1032 1032 1032 
1032 1032 1032 1032 1032 1032 1032 1032 1032 
1032 1032 1032 1032 1032 1032 1032 1032 1032 
1032 1032 1032 1032 1032 1032 1032 1032 1032 
1032 1032 1032 1032 1032 1032 1032 1032 1032 
1032 1032 1032 1032 1032 1032 1032 1032 1032 
1032 1032 1032 1032 1032 1032 1032 1032 1032 
1032 1032 1032 1032 1032 1032 1032 1032 1032 
1032 1032 1032 1032 1032 1032 1032 1032 1032 
1032 1032 1032 1032 1032 1032 1032 1032 1032 
1032 1032 1032 1032 1032 1032 1032 1032 1032 
1032 1032 1032 1032 1032 1032 1032 1032 1032 
1032 1032 1032 1032 1032 1032 1032 1032 1032 
1032 1032 1032 1032 1032 1032 1032 1032 1032 
1032 1032 1032 1032 1032 1032 1032 1032 1032 
1032 1032 1032 1032 1032 1032 1032 1032 1032 
1032 1032 1032 1032 1032 1032 1032 1032 1032 
1032 1032 1032 1032 1032 1032 1032 1032 1032 
1032 1032 1032 1032 1032 1032 1032 1032 1032 
1032 1032 1032 1032 1032 1032 1032 1032 1032 
1032 1032 1032 1032 1032 1032 1032 1032 1032 
1032 1032 1032 1032 1032 1032 1032 1032 1032 
1032 1032 1032 1032 1032 1032 1032 1032 1032 
1032 1032 1032 1032 1032 1032 1032 1032 1032 
1032 1032 1032 1032 1032 1032 1032 1032 1032 
1032 1032 1032 1032 1032 1032 1032 1032 1032 
1032 1032 1032 1032 1032 1032 1032 1032 1032 
1032 1032 1032 1032 1032 1032 1032 1032 1032 
1032 1032 1032 1032 1032 1032 1032 1032 1032 
1032 1032 1032 1032 1032 1032 1032 1032 1032 
1032 1032 1032 1032 1032 1032 1032 1032 1032 
1032 1032 1032 1032 1032 1032 1032 1032 1032 
1032 1032 1032 1032 1032 1032 1032 1032 1032 
1032 1032 1032 1032 1032 1032 1032 1032 1032 
1032 1032 1032 1032 1032 1032 1032 1032 1032 
1032 1032 1032 1032 1032 1032 1032 1032 1032 
1032 1032 1032 1032 1032 1032 1032 1032 1032 
1032 1032 1032 1032 1032 1032 1032 1032 1032 
1032 1032 1032 1032 1032 1032 1032 1032 1032 
1032 1032 1032 1032 1032 1032 1032 1032 1032 
1032 1032 1032 1032 1032 1032 1032 1032 1032 
1032 1032 1032 1032 1032 1032 1032 1032 1032 
1032 1032 1032 1032 1032 1032 1032 1032 1032 
1032 1032 1032 1032 1032 1032 1032 1032 1032 
1032 1032 1032 1032 1032 1032 1032 1032 1032 
1032 1032 1032 1032 1032 1032 1032 1032 1032 
1032 1032 1032 1032 1032 1032 1032 1032 1032 
1032 1032 1032 1032 1032 1032 1032 1032 1032 
1032 1032 1032 1032 1032 1032 1032 1032 1032 
1032 1032 1032 1032 1032 1032 1032 1032 1032 
1032 1032 1032 1032 1032 1032 1032 1032 1032 
1032 1032 1032 1032 1032 1032 1032 1032 1032 
1032 1032 1032 1032 1032 1032 1032 1032 1032 
1032 1032 1032 1032 1032 1032 1032 1032 1032 
1032 1032 1032 1032 1032 1032 1032 1032 1032 
1032 1032 1032 1032 1032 1032 1032 1032 1032 
1032 1032 1032 1032 1032 1032 1032 1032 1032 
1032 1032 1032 1032 1032 1032 1032 1032 1032 
1032 1032 1032 1032 1032 1032 1032 1032 1032 
1032 1032 1032 1032 1032 1032 1032 1032 1032 
1032 1032 1032 1032 1032 1032 1032 1032 1032 
1032 1032 1032 1032 1032 1032 1032 1032 1032 
1032 1032 1032 1032 1032 1032 1032 1032 1032 
1032 1032 1032 1032 1032 1032 1032 1032 1032 
1032 1032 1032 1032 1032 1032 1032 1032 1032 
1032 1032 1032 1032 1032 1032 1032 1032 1032 
1032 1032 1032 1032 1032 1032 1032 1032 1032 
1032 1032 1032 1032 1032 1032 1032 1032 1032 
1032 1032 1032 1032 1032 1032 1032 1032 1032 
1032 1032 1032 1032 1032 1032 1032 1032 1032 
1032 1032 1032 1032 1032 1032 1032 1032 1032 
1032 1032 1032 1032 1032 1032 1032 1032 1032 
1032 1032 1032 1032 1032 1032 1032 1032 1032 
1032 1032 1032 1032 1032 1032 1032 1032 1032 
1032 1032 1032 1032 1032 1032 1032 1032 1032 
1032 1032 1032 1032 1032 1032 1032 1032 1032 
1032 1032 1032 1032 1032 1032 1032 1032 1032 
1032 1032 1032 1032 1032 1032 1032 1032 1032 
1032 1032 1032 1032 1032 1032 1032 1032 1032 
1032 1032 1032 1032 1032 1032 1032 1032 1032 
1032 1032 1032 1032 1032 1032 1032 1032 1032 
1032 1032 1032 1032 1032 1032 1032 1032 1032 
1032 1032 1032 1032 1032 1032 1032 1032 1032 
1032 1032 1032 1032 1032 1032 1032 1032 1032 
1032 1032 1032 1032 1032 1032 1032 1032 1032 
1032 1032 1032 1032 1032 1032 1032 1032 1032 
1032 1032 1032 1032 1032 1032 1032 1032 1032 
1032 1032 1032 1032 1032 1032 1032 1032 1032 
1032 1032 1032 1032 1032 1032 1032 1032 1032 
1032 1032 1032 1032 1032 1032 1032 1032 1032 
1032 1032 1032 1032 1032 1032 1032 1032 1032 
1032 1032 1032 1032 1032 1032 1032 1032 1032 
1032 1032 1032 1032 1032 1032 1032 1032 1032 
1032 1032 1032 1032 1032 1032 1032 1032 1032 
1032 1032 1032 1032 1032 1032 1032 1032 1032 
1032 1032 1032 1032 1032 1032 1032 1032 1032 
1032 1032 1032 1032 1032 1032 1032 1032 1032 
1032 1032 1032 1032 1032 1032 1032 1032 1032 
1032 1032 1032 1032 1032 1032 1032 1032 1032 
1032 1032 1032 1032 1032 1032 1032 1032 1032 
1032 1032 1032 1032 1032 1032 1032 1032 1032 
1032 1032 1032 1032 1032 1032 1032 1032 1032 
1032 1032 1032 1032 1032 1032 1032 1032 1032 
1032 1032 1032 1032 1032 1032 1032 1032 1032 
1032 1032 1032 1032 1032 1032 1032 1032 1032 
1032 1032 1032 1032 1032 1032 1032 1032 1032 
1032 1032 1032 1032 1032 1032 1032 1032 1032 
1032 1032 1032 1032 1032 1032 1032 1032 1032 
1032 1032 1032 1032 1032 1032 1032 1032 1032 
1032 1032 1032 1032 1032 1032 1032 1032 1032 
1032 1032 1032 1032 1032 1032 1032 1032 1032 
1032 1032 1032 1032 1032 1032 1032 1032 1032 
1032 1032 1032 1032 1032 1032 1032 1032 1032 
1032 1032 1032 1032 1032 1032 1032 1032 1032 
1032 1032 1032 1032 1032 1032 1032 1032 1032 
1032 1032 1032 1032 1032 1032 1032 1032 1032 
1032 1032 1032 1032 1032 1032 1032 1032 1032 
1032 1032 1032 1032 1032 1032 1032 1032 1032 
1032 1032 1032 1032 1032 1032 1032 1032 1032 
1032 1032 1032 1032 1032 1032 1032 1032 1032 
1032 1032 1032 1032 1032 1032 1032 1032 1032 
1032 1032 1032 1032 1032 1032 1032 1032 1032 
1032 1032 1032 1032 1032 1032 1032 1032 1032 
1032 1032 1032 1032 1032 1032 1032 1032 1032 
1032 1032 1032 1032 1032 1032 1032 1032 1032 
1032 1032 1032 1032 1032 1032 1032 1032 1032 
1032 1032 1032 1032 1032 1032 1032 1032 1032 
1032 1032 1032 1032 1032 1032 1032 1032 1032 
1032 1032 1032 1032 1032 1032 1032 1032 1032 
1032 1032 1032 1032 1032 1032 1032 1032 1032 
1032 1032 1032 1032 1032 1032 1032 1032 1032 
1032 1032 1032 1032 1032 1032 1032 1032 1032 
1032 1032 1032 1032 1032 1032 1032 1032 1032 
1032 1032 1032 1032 1032 1032 1032 1032 1032 
1032 1032 1032 1032 1032 1032 1032 1032 1032 
1032 1032 1032 1032 1032 1032 1032 1032 1032 
1032 1032 1032 1032 1032 1032 1032 1032 1032 
1032 1032 1032 1032 1032 1032 1032 1032 1032 
1032 1032 1032 1032 1032 1032 1032 1032 1032 
1032 1032 1032 1032 1032 1032 1032 1032 1032 
1032 1032 1032 1032 1032 1032 1032 1032 1032 
1032 1032 1032 1032 1032 1032 1032 1032 1032 
1032 1032 1032 1032 1032 1032 1032 1032 1032 
1032 1032 1032 1032 1032 1032 1032 1032 1032 
1032 1032 1032 1032 1032 1032 1032 1032 1032 
1032 1032 1032 1032 1032 1032 1032 1032 1032 
1032 1032 1032 1032 1032 1032 1032 1032 1032 
1032 1032 1032 1032 1032 1032 1032 1032 1032 
1032 1032 1032 1032 1032 1032 1032 1032 1032 
1032 1032 1032 1032 1032 1032 1032 1032 1032 
1032 1032 1032 1032 1032 1032 1032 1032 1032 
1032 1032 1032 1032 1032 1032 1032 1032 1032 
1032 1032 1032 1032 1032 1032 1032 1032 1032 
1032 1032 1032 1032 1032 1032 1032 1032 1032 
1032 1032 1032 1032 1032 1032 1032 1032 1032 
1032 1032 1032 1032 1032 1032 1032 1032 1032 
1032 1032 1032 1032 1032 1032 1032 1032 1032 
1032 1032 1032 1032 1032 1032 1032 1032 1032 
1032 1032 1032 1032 1032 1032 1032 1032 1032 
1032 1032 1032 1032 1032 1032 1032 1032 1032 
1032 1032 1032 1032 1032 1032 1032 1032 1032 
1032 1032 1032 1032 1032 1032 1032 1032 1032 
1032 1032 1032 1032 1032 1032 1032 1032 1032 
1032 1032 1032 1032 1032 1032 1032 1032 1032 
1032 1032 1032 1032 1032 1032 1032 1032 1032 
1032 1032 1032 1032 1032 1032 1032 1032 1032 
1032 1032 1032 1032 1032 1032 1032 1032 1032 
1032 1032 1032 1032 1032 1032 1032 1032 1032 
1032 1032 1032 1032 1032 1032 1032 1032 1032 
1032 1032 1032 1032 1032 1032 1032 1032 1032 
1032 1032 1032 1032 1032 1032 1032 1032 1032 
1032 1032 1032 1032 1032 1032 1032 1032 1032 
1032 1032 1032 1032 1032 1032 1032 1032 1032 
1032 1032 1032 1032 1032 1032 1032 1032 1032 
1032 1032 1032 1032 1032 1032 1032 1032 1032 
1032 1032 1032 1032 1032 1032 1032 1032 1032 
1032 1032 1032 1032 1032 1032 1032 1032 1032 
1032 1032 1032 1032 1032 1032 1032 1032 1032 
1032 1032 1032 1032 1032 1032 1032 1032 1032 
1032 1032 1032 1032 1032 1032 1032 1032 1032 
1032 1032 1032 1032 1032 1032 1032 1032 1032 
1032 1032 1032 1032 1032 1032 1032 1032 1032 
1032 1032 1032 1032 1032 1032 1032 1032 1032 
1032 1032 1032 1032 1032 1032 1032 1032 1032 
1032 1032 1032 1032 1032 1032 1032 1032 1032 
1032 1032 1032 1032 1032 1032 1032 1032 1032 
1032 1032 1032 1032 1032 1032 1032 1032 1032 
1032 1032 1032 1032 1032 1032 1032 1032 1032 
1032 1032 1032 1032 1032 1032 1032 1032 1032 
1032 1032 1032 1032 1032 1032 1032 1032 1032 
1032 1032 1032 1032 1032 1032 1032 1032 1032 
1032 1032 1032 1032 1032 1032 1032 1032 1032 
1032 1032 1032 1032 1032 1032 1032 1032 1032 
1032 1032 1032 1032 1032 1032 1032 1032 1032 
1032 1032 1032 1032 1032 1032 1032 1032 1032 
1032 1032 1032 1032 1032 1032 1032 1032 1032 
1032 1032 1032 1032 1032 1032 1032 1032 1032 
1032 1032 1032 1032 1032 1032 1032 1032 1032 
1032 1032 1032 1032 1032 1032 1032 1032 1032 
1032 1032 1032 1032 1032 1032 1032 1032 1032 
1032 1032 1032 1032 1032 1032 1032 1032 1032 
1032 1032 1032 1032 1032 1032 1032 1032 1032 
1032 1032 1032 1032 1032 1032 1032 1032 1032 
1032 1032 1032 1032 1032 1032 1032 1032 1032 
1032 1032 1032 1032 1032 1032 1032 1032 1032 
1032 1032 1032 1032 1032 1032 1032 1032 1032 
1032 1032 1032 1032 1032 1032 1032 1032 1032 
1032 1032 1032 1032 1032 1032 1032 1032 1032 
1032 1032 1032 1032 1032 1032 1032 1032 1032 
1032 1032 1032 1032 1032 1032 1032 1032 1032 
1032 1032 1032 1032 1032 1032 1032 1032 1032 
1032 1032 1032 1032 1032 1032 1032 1032 1032 
1032 1032 1032 1032 1032 1032 1032 1032 1032 
1032 1032 1032 1032 1032 1032 1032 1032 1032 
1032 1032 1032 1032 1032 1032 1032 1032 1032 
1032 1032 1032 1032 1032 1032 1032 1032 1032 
1032 1032 1032 1032 1032 1032 1032 1032 1032 
1032 1032 1032 1032 1032 1032 1032 1032 1032 
1032 1032 1032 1032 1032 1032 1032 1032 1032 
1032 1032 1032 1032 1032 1032 1032 1032 1032 
1032 1032 1032 1032 1032 1032 1032 1032 1032 
1032 1032 1032 1032 1032 1032 1032 1032 1032 
1032 1032 1032 1032 1032 1032 1032 1032 1032 
1032 1032 1032 1032 1032 1032 1032 1032 1032 
1032 1032 1032 1032 1032 1032 1032 1032 1032 
1032 1032 1032 1032 1032 1032 1032 1032 1032 
1032 1032 1032 1032 1032 1032 1032 1032 1032 
1032 1032 1032 1032 1032 1032 1032 1032 1032 
1032 1032 1032 1032 1032 1032 1032 1032 1032 
1032 1032 1032 1032 1032 1032 1032 1032 1032 
1032 1032 1032 1032 1032 1032 1032 1032 1032 
1032 1032 1032 1032 1032 1032 1032 1032 1032 
1032 1032 1032 1032 1032 1032 1032 1032 1032 
1032 1032 1032 1032 1032 1032 1032 1032 1032 
1032 1032 1032 1032 1032 1032 1032 1032 1032 
1032 1032 1032 1032 1032 1032 1032 1032 1032 
1032 1032 1032 1032 1032 1032 1032 1032 1032 
1032 1032 1032 1032 1032 1032 1032 1032 1032 
1032 1032 1032 1032 1032 1032 1032 1032 1032 
1032 1032 1032 1032 1032 1032 1032 1032 1032 
1032 1032 1032 1032 1032 1032 1032 1032 1032 
1032 1032 1032 1032 1032 1032 1032 1032 1032 
1032 1032 1032 1032 1032 1032 1032 1032 1032 
1032 1032 1032 1032 1032 1032 1032 1032 1032 
1032 1032 1032 1032 1032 1032 1032 1032 1032 
1032 1032 1032 1032 1032 1032 1032 1032 1032 
1032 1032 1032 1032 1032 1032 1032 1032 1032 
1032 1032 1032 1032 1032 1032 1032 1032 1032 
1032 1032 1032 1032 1032 1032 1032 1032 1032 
1032 1032 1032 1032 1032 1032 1032 1032 1032 
1032 1032 1032 1032 1032 1032 1032 1032 1032 
1032 1032 1032 1032 1032 1032 1032 1032 1032 
1032 1032 1032 1032 1032 1032 1032 1032 1032 
1032 1032 1032 1032 1032 1032 1032 1032 1032 
1032 1032 1032 1032 1032 1032 1032 1032 1032 
1032 1032 1032 1032 1032 1032 1032 1032 1032 
1032 1032 1032 1032 1032 1032 1032 1032 1032 
1032 1032 1032 1032 1032 1032 1032 1032 1032 
1032 1032 1032 1032 1032 1032 1032 1032 1032 
1032 1032 1032 1032 1032 1032 1032 1032 1032 
1032 1032 1032 1032 1032 1032 1032 1032 1032 
1032 1032 1032 1032 1032 1032 1032 1032 1032 
1032 1032 1032 1032 1032 1032 1032 1032 1032 
1032 1032 1032 1032 1032 1032 1032 1032 1032 
1032 1032 1032 1032 1032 1032 1032 1032 1032 
1032 1032 1032 1032 1032 1032 1032 1032 1032 
1032 1032 1032 1032 1032 1032 1032 1032 1032 
1032 1032 1032 1032 1032 1032 1032 1032 1032 
1032 1032 1032 1032 1032 1032 1032 1032 1032 
1032 1032 1032 1032 1032 1032 1032 1032 1032 
1032 1032 1032 1032 1032 1032 1032 1032 1032 
1032 1032 1032 1032 1032 1032 1032 1032 1032 
1032 1032 1032 1032 1032 1032 1032 1032 1032 
1032 1032 1032 1032 1032 1032 1032 1032 1032 
1032 1032 1032 1032 1032 1032 1032 1032 1032 
1032 1032 1032 1032 1032 1032 1032 1032 1032 
1032 1032 1032 1032 1032 1032 1032 1032 1032 
1032 1032 1032 1032 1032 1032 1032 1032 1032 
1032 1032 1032 1032 1032 1032 1032 1032 1032 
1032 1032 1032 1032 1032 1032 1032 1032 1032 
1032 1032 1032 1032 1032 1032 1032 1032 1032 
1032 1032 1032 1032 1032 1032 1032 1032 1032 
1032 1032 1032 1032 1032 1032 1032 1032 1032 
1032 1032 1032 1032 1032 1032 1032 1032 1032 
1032 1032 1032 1032 1032 1032 1032 1032 1032 
1032 1032 1032 1032 1032 1032 1032 1032 1032 
1032 1032 1032 1032 1032 1032 1032 1032 1032 
1032 1032 1032 1032 1032 1032 1032 1032 1032 
1032 1032 1032 1032 1032 1032 1032 1032 1032 
1032 1032 1032 1032 1032 1032 1032 1032 1032 
1032 1032 1032 1032 1032 1032 1032 1032 1032 
1032 1032 1032 1032 1032 1032 1032 1032 1032 
1032 1032 1032 1032 1032 1032 1032 1032 1032 
1032 1032 1032 1032 1032 1032 1032 1032 1032 
1032 1032 1032 1032 1032 1032 1032 1032 1032 
1032 1032 1032 1032 1032 1032 1032 1032 1032 
1032 1032 1032 1032 1032 1032 1032 1032 1032 
1032 1032 1032 1032 1032 1032 1032 1032 1032 
1032 1032 1032 1032 1032 1032 1032 1032 1032 
1032 1032 1032 1032 1032 1032 1032 1032 1032 
1032 1032 1032 1032 1032 1032 1032 1032 1032 
1032 1032 1032 1032 1032 1032 1032 1032 1032 
1032 1032 1032 1032 1032 1032 1032 1032 1032 
1032 1032 1032 1032 1032 1032 1032 1032 1032 
1032 1032 1032 1032 1032 1032 1032 1032 1032 
1032 1032 1032 1032 1032 1032 1032 1032 1032 
1032 1032 1032 1032 1032 1032 1032 1032 1032 
1032 1032 1032 1032 1032 1032 1032 1032 1032 
1032 1032 1032 1032 1032 1032 1032 1032 1032 
1032 1032 1032 1032 1032 1032 1032 1032 1032 
1032 1032 1032 1032 1032 1032 1032 1032 1032 
1032 1032 1032 1032 1032 1032 1032 1032 1032 
1032 1032 1032 1032 1032 1032 1032 1032 1032 
1032 1032 1032 1032 1032 1032 1032 1032 1032 
1032 1032 1032 1032 1032 1032 1032 1032 1032 
1032 1032 1032 1032 1032 1032 1032 1032 1032 
1032 1032 1032 1032 1032 1032 1032 1032 1032 
1032 1032 1032 1032 1032 1032 1032 1032 1032 
1032 1032 1032 1032 1032 1032 1032 1032 1032 
1032 1032 1032 1032 1032 1032 1032 1032 1032 
1032 1032 1032 1032 1032 1032 1032 1032 1032 
1032 1032 1032 1032 1032 1032 1032 1032 1032 
1032 1032 1032 1032 1032 1032 1032 1032 1032 
1032 1032 1032 1032 1032 1032 1032 1032 1032 
1032 1032 1032 1032 1032 1032 1032 1032 1032 
1032 1032 1032 1032 1032 1032 1032 1032 1032 
1032 1032 1032 1032 1032 1032 1032 1032 1032 
1032 1032 1032 1032 1032 1032 1032 1032 1032 
1032 1032 1032 1032 1032 1032 1032 1032 1032 
1032 1032 1032 1032 1032 1032 1032 1032 1032 
1032 1032 1032 1032 1032 1032 1032 1032 1032 
1032 1032 1032 1032 1032 1032 1032 1032 1032 
1032 1032 1032 1032 1032 1032 1032 1032 1032 
1032 1032 1032 1032 1032 1032 1032 1032 1032 
1032 1032 1032 1032 1032 1032 1032 1032 1032 
1032 1032 1032 1032 1032 1032 1032 1032 1032 
1032 1032 1032 1032 1032 1032 1032 1032 1032 

