# vtk DataFile Version 4.2
vtk output
ASCII
DATASET POLYDATA
POINTS 5050 float
10.8003 20.3669 -39.2907 10.6043 20.6715 -39.4531 10.3789 20.2834 -39.5338 
11.0175 20.6856 -39.6569 4.69122 19.5065 -39.3785 4.5209 19.7491 -39.501 
4.394 19.5137 -39.4275 5.07595 19.43 -39.7433 10.7339 20.1456 -39.7525 
3.78431 18.175 -39.2337 3.5392 18.704 -39.4981 3.2517 18.0987 -39.4087 
4.64575 19.1413 -39.6584 4.07507 18.3553 -39.6177 3.642 17.6241 -39.2235 
3.19551 17.3672 -39.5856 4.00274 17.6669 -39.4289 3.66132 17.128 -39.772 
7.77629 23.3163 -40.2698 7.57939 23.8452 -40.8033 7.22906 23.1767 -40.4564 
8.21693 23.558 -40.5971 7.73894 22.3518 -40.1641 6.97888 22.418 -40.3727 
8.28909 22.8675 -40.4593 9.65776 22.6685 -40.4802 9.26097 22.4027 -40.4007 
9.82751 22.234 -40.2102 10.0641 22.3818 -40.692 4.80898 21.2705 -40.1774 
4.64198 21.7468 -40.7492 4.1231 21.3748 -40.5156 5.91096 21.3506 -40.1369 
5.37717 21.9874 -40.7182 6.9414 21.5146 -40.0775 6.32049 22.087 -40.5057 
7.80903 21.2994 -39.9624 8.85707 22.1832 -40.7041 8.82762 21.6587 -40.0783 
9.72318 21.5487 -39.9482 10.5849 22.0462 -40.4745 10.518 21.396 -39.9087 
11.0914 21.3647 -40.4783 2.95056 20.4172 -40.2135 2.90922 20.718 -40.7949 
2.39223 20.1515 -40.5854 3.82838 20.7416 -40.0938 3.49156 21.0414 -40.6287 
4.71458 20.2334 -39.8168 5.69963 20.4625 -39.9314 6.71268 20.4525 -39.9464 
7.50973 20.5812 -39.9483 8.39684 20.3741 -40.0925 9.67527 20.6824 -39.9202 
11.0643 20.5884 -40.5165 2.61584 19.7084 -40.1353 2.25345 19.3449 -40.4839 
3.79399 19.4912 -39.7575 5.75578 19.5288 -39.9289 6.68623 19.4195 -39.9286 
7.67779 19.4938 -40.07 8.33093 19.4314 -40.516 8.95599 19.879 -40.7398 
9.96937 20.0125 -40.2667 10.4724 20.0574 -40.6736 2.78065 18.7798 -39.9418 
2.09892 18.3326 -40.6196 4.52779 18.4437 -40.0575 5.08948 18.657 -40.3171 
5.70669 18.8376 -40.4702 6.29012 18.3874 -40.8177 6.53033 18.6414 -40.1526 
7.41705 18.4705 -40.175 8.06714 18.6569 -40.6342 2.64389 17.697 -40.0175 
2.10576 17.3567 -40.6481 4.24134 17.5423 -40.2271 4.75654 17.9854 -40.86 
7.04381 18.0235 -40.6061 7.73917 18.0413 -40.7504 2.83411 16.9608 -40.5467 
3.71352 16.9723 -40.6561 6.69251 23.4173 -40.9908 6.71733 23.9424 -41.7139 
6.07312 23.3671 -41.4426 7.69193 24.1057 -41.4643 8.71101 23.1729 -41.0184 
8.36958 23.8214 -41.3705 8.9144 23.2354 -41.7746 5.98583 22.7037 -41.0786 
5.667 23.0088 -41.5232 5.29895 22.5862 -41.4633 6.66174 22.7679 -40.72 
8.72011 22.6173 -40.8625 8.99895 22.5257 -41.3982 9.50218 22.4172 -40.6755 
-3.25992 21.2729 -41.2008 -3.59813 21.7498 -41.6981 -3.76163 21.1534 -41.5833 
-3.07588 21.5583 -41.6358 4.81789 22.0852 -41.2824 4.15091 21.6136 -41.2575 
9.25029 21.5789 -41.6142 9.86733 21.6293 -41.1342 10.7263 21.8277 -41.4601 
10.4407 21.248 -41.6529 11.3913 21.3274 -41.5247 -3.34939 20.7221 -41.1957 
-3.60468 20.5647 -41.4809 -2.95881 20.6063 -41.6545 2.5963 20.305 -41.1094 
3.05784 20.6675 -41.4752 3.49893 21.0787 -41.2588 9.88364 20.8204 -41.4748 
10.4861 20.6381 -41.1332 10.1143 20.2669 -41.3755 10.9668 20.9126 -41.5421 
-3.4958 20.119 -41.5882 2.51295 20.073 -41.5847 2.08627 19.4398 -41.1701 
8.38015 19.2201 -41.2774 8.58737 19.8926 -41.7 9.54075 20.0364 -41.3132 
1.69147 18.472 -41.1808 1.49815 18.8284 -41.5716 1.29585 18.1588 -41.4793 
5.17022 18.4351 -41.2065 5.63368 18.7349 -41.685 6.35599 18.4727 -41.6072 
8.04651 18.4621 -41.4645 1.61316 17.6964 -41.1014 1.3529 17.6222 -41.6955 
4.24101 17.4939 -41.349 4.75359 18.0094 -41.491 6.75457 18.083 -41.2446 
7.45029 18.0158 -41.386 1.89617 17.104 -41.2521 2.51011 16.9595 -41.507 
3.36023 17.0285 -41.4297 5.56304 23.3614 -41.9105 5.86838 23.903 -42.707 
5.11086 23.3913 -42.5513 6.84529 24.1005 -42.6951 7.85545 24.0027 -42.3714 
8.5482 23.6503 -42.1303 8.50472 23.6746 -42.7197 0.662424 22.5187 -42.3502 
0.762781 22.7235 -42.7865 0.471369 22.4951 -42.557 1.07378 22.5775 -42.6228 
4.6612 22.5111 -42.0098 4.63168 22.9291 -42.8792 4.18041 22.2966 -42.5569 
8.81389 23.3054 -42.4242 9.0421 22.4958 -42.3011 -4.19792 21.5856 -42.0889 
-4.0334 21.8446 -42.5629 -4.46714 21.5472 -42.5517 -3.17411 22.0537 -42.5162 
-2.73757 21.4197 -42.3672 -1.29396 21.4653 -42.4281 -1.46476 21.7309 -42.8561 
-1.57764 21.3176 -42.5792 -0.90904 21.5375 -42.6762 0.633354 22.1859 -42.6656 
1.71297 21.7569 -42.5396 1.19406 21.4851 -42.5217 1.83406 21.1201 -42.2745 
2.12681 21.6355 -42.5809 3.6933 21.4661 -42.0178 3.77732 21.9298 -42.7545 
3.15616 21.5141 -42.6417 8.71483 21.2995 -42.1698 8.20887 21.3498 -42.4855 
8.77604 21.9119 -42.5823 10.8531 21.9053 -42.5172 10.2535 21.636 -42.6336 
11.8163 21.4748 -42.2152 11.4845 21.7485 -42.3969 11.8976 21.5036 -42.5186 
-4.25702 21.2705 -42.4845 -3.97447 20.5043 -42.2453 -2.54491 20.3658 -42.7481 
-1.13745 21.2306 -42.555 -0.246081 20.8489 -42.531 -0.818731 20.4578 -42.5005 
-0.150172 20.2358 -42.1809 0.952558 20.5255 -42.151 0.349345 21.0643 -42.5229 
1.74092 20.4249 -42.037 2.54765 21.2159 -42.4521 2.61146 20.6383 -42.0399 
7.97236 20.5191 -42.2911 7.37993 20.5247 -42.6607 7.78989 20.9614 -42.8569 
8.81424 20.4411 -41.9291 9.43935 20.6357 -41.7871 10.5986 21.0759 -42.5072 
11.4631 21.2 -42.5229 -4.0533 19.5393 -42.0667 -4.31714 19.8837 -42.4669 
-4.74036 19.1933 -42.5328 -3.29842 19.3652 -41.9824 -2.37711 19.8198 -42.3972 
-2.20432 19.2827 -42.1933 -1.05178 19.4669 -42.0813 -1.60665 19.902 -42.5329 
-0.18835 19.2499 -41.9548 0.52397 19.6046 -41.9852 1.61733 19.6661 -41.8525 
7.44629 19.9928 -42.7258 7.98279 19.3533 -42.2351 -4.26953 18.6657 -42.2369 
-4.9047 18.3022 -42.6199 -3.83396 18.5104 -42.4786 -3.17485 18.8524 -42.6085 
-2.43877 18.9526 -42.6913 -1.80121 18.5486 -42.8567 -1.54398 18.6407 -42.186 
-0.608208 18.5091 -42.0806 0.722086 18.4545 -42.0166 4.6672 18.2652 -41.9473 
4.08927 18.3231 -42.4713 4.72206 18.8305 -42.7308 5.6282 18.9951 -42.5477 
6.38216 18.9635 -42.5589 7.02733 18.3847 -41.9842 7.38852 18.9875 -42.5864 
7.72215 18.5089 -42.0769 -4.47133 18.0648 -42.8197 -1.15292 18.0835 -42.4879 
-0.277974 18.0418 -42.7664 0.844541 17.9352 -42.7681 1.47382 17.7797 -42.4291 
1.98427 17.3276 -41.9785 2.39158 17.8704 -42.7263 2.90803 17.3653 -42.0836 
3.3542 18.0205 -42.5559 3.82073 17.6718 -42.0603 5.85466 23.826 -43.5377 
5.24484 23.3894 -43.5071 6.61589 23.9451 -43.415 7.66476 23.923 -43.3943 
9.09712 23.3763 -43.0047 8.69529 23.816 -43.3735 9.75626 23.2717 -43.3148 
9.54282 23.7048 -43.4809 9.92328 23.3217 -43.6343 -3.48715 22.3094 -43.1698 
-3.18291 22.7798 -43.793 -3.82363 22.5394 -43.7634 -2.79234 22.5055 -43.5138 
0.89211 22.9183 -43.6392 0.184729 22.5115 -43.3458 1.7401 22.1964 -42.868 
1.61994 22.8886 -43.4452 2.86108 22.2092 -43.1527 2.64918 22.7798 -43.6512 
3.3095 22.5435 -43.6861 4.71011 22.825 -43.6401 4.27243 22.401 -43.3775 
9.55492 22.3496 -43.0023 10.0509 22.6656 -43.6197 -4.36746 21.5155 -42.8328 
-4.07898 21.4431 -43.1618 -2.13207 21.2431 -42.8267 -2.30261 22.0101 -43.155 
-1.45942 22.1483 -43.5573 -0.299497 21.3889 -42.8207 -0.669844 22.0335 -43.3521 
0.739491 21.6754 -42.7495 2.55827 21.7177 -42.7669 3.66937 22.1291 -43.4227 
8.66052 21.584 -42.9117 9.40017 21.5291 -43.1191 10.7979 21.9512 -43.4655 
11.6241 21.5529 -42.9375 11.4554 21.3252 -43.7383 -4.33021 20.9319 -43.5126 
-4.82075 20.4425 -43.528 -4.44793 20.294 -42.993 -2.17258 20.4056 -43.132 
-1.47809 20.6874 -42.831 7.21078 20.3911 -43.1935 7.80102 20.7522 -43.5074 
8.77127 20.991 -43.5871 9.87144 21.0945 -43.3251 10.7226 20.8867 -43.5673 
-5.20155 19.5665 -43.1181 -5.44595 19.977 -43.6418 -5.74039 19.3188 -43.6362 
-2.31118 19.4283 -42.8772 -2.75622 19.5007 -43.2732 -2.62313 19.9138 -43.6726 
-1.90646 19.6526 -43.3604 6.96919 19.5937 -43.0782 6.30227 19.4206 -43.4589 
6.82247 19.9347 -43.8546 7.54617 19.4592 -42.7894 -5.41352 18.6466 -43.0235 
-5.66606 18.6333 -43.7662 -3.92211 18.3477 -43.1999 -3.30437 18.904 -43.3772 
-1.62335 18.6404 -43.5602 -0.187725 18.2926 -43.3325 -0.779024 18.2814 -43.4021 
-0.510915 18.6642 -43.6797 0.0984401 18.5709 -43.6641 3.00706 18.4443 -43.1146 
2.2481 18.5286 -43.6149 2.9305 18.7721 -43.7654 3.7999 18.8379 -43.5339 
3.74065 18.5596 -42.852 4.83117 18.9692 -43.7083 5.64678 19.1135 -43.4056 
-5.15884 18.076 -43.2525 -4.60578 18.0667 -43.5178 -1.26969 18.1214 -43.2017 
0.536687 18.1001 -43.3113 1.5139 18.0626 -43.3102 -4.12927 23.3341 -44.2369 
-4.30512 23.6533 -44.5247 -4.53565 23.1904 -44.5828 -4.05728 23.5926 -44.5187 
-0.23857 23.127 -44.215 -0.449089 23.749 -44.8691 -0.867962 23.295 -44.4898 
0.257324 23.5456 -44.6969 5.73288 23.5403 -43.9418 6.37022 23.5441 -44.049 
7.39007 23.5436 -44.0601 8.59177 23.422 -44.0332 9.48063 23.5365 -43.7956 
-4.35613 22.689 -44.1198 -4.68254 22.3382 -44.513 -3.61266 23.2342 -44.5784 
-1.98142 22.515 -43.9757 -2.57336 22.9991 -44.3784 -1.00863 22.6452 -44.0667 
-1.60052 23.0586 -44.5283 -0.388822 22.5684 -43.8252 0.554862 23.129 -44.2525 
1.42471 23.1653 -44.3693 2.55131 23.1344 -44.4978 3.85608 22.3815 -44.1292 
3.42723 22.7795 -44.3374 4.6447 22.464 -44.0341 4.12058 22.4158 -44.8773 
5.08116 22.6554 -44.2852 5.86383 22.9837 -44.4353 6.97218 22.9898 -44.741 
7.99148 23.1072 -44.6773 8.78515 22.9015 -44.5326 9.56417 22.8619 -44.0986 
9.25939 22.4725 -44.8838 -4.46481 21.5402 -43.9213 -4.98399 21.5276 -44.5934 
4.6473 22.1793 -44.51 10.0828 22.1978 -44.5012 10.7466 21.9832 -44.5353 
11.7987 21.4559 -44.2661 11.4131 21.7245 -44.4602 11.86 21.4849 -44.5428 
-5.17363 20.6923 -44.0721 -5.42954 21.0061 -44.6807 -5.7178 20.284 -44.4393 
-1.26547 20.2288 -44.1752 -1.74076 20.6601 -44.5924 -1.2738 20.9016 -44.5026 
-0.602928 21.0264 -44.4801 -0.0787312 20.3552 -44.1712 0.555476 21.0635 -44.6801 
0.875991 20.229 -44.2388 1.23693 20.5921 -44.6467 7.48445 20.4169 -43.834 
8.28102 20.5118 -44.1158 9.05523 20.5419 -44.3882 9.77913 20.6838 -44.1708 
10.5574 20.4997 -44.284 10.1139 20.3024 -44.6809 11.3465 20.7946 -44.5961 
11.7466 21.2432 -44.3907 -5.72685 19.5145 -44.5632 -4.56 19.7395 -44.8284 
-4.28553 19.2763 -44.3131 -4.98483 19.247 -44.4947 -3.50568 19.9539 -44.6286 
-3.4011 19.3726 -43.9431 -2.34275 20.1593 -44.3832 -1.35402 19.2636 -43.9202 
[...]
CELL_DATA 10200
SCALARS scalars float
LOOKUP_TABLE default
1005 1005 1005 1005 1005 1005 1005 1005 1005 
1005 1005 1005 1005 1005 1005 1005 1005 1005 
1005 1005 1005 1005 1005 1005 1005 1005 1005 
1005 1005 1005 1005 1005 1005 1005 1005 1005 
1005 1005 1005 1005 1005 1005 1005 1005 1005 
1005 1005 1005 1005 1005 1005 1005 1005 1005 
1005 1005 1005 1005 1005 1005 1005 1005 1005 
1005 1005 1005 1005 1005 1005 1005 1005 1005 
1005 1005 1005 1005 1005 1005 1005 1005 1005 
1005 1005 1005 1005 1005 1005 1005 1005 1005 
1005 1005 1005 1005 1005 1005 1005 1005 1005 
1005 1005 1005 1005 1005 1005 1005 1005 1005 
1005 1005 1005 1005 1005 1005 1005 1005 1005 
1005 1005 1005 1005 1005 1005 1005 1005 1005 
1005 1005 1005 1005 1005 1005 1005 1005 1005 
1005 1005 1005 1005 1005 1005 1005 1005 1005 
1005 1005 1005 1005 1005 1005 1005 1005 1005 
1005 1005 1005 1005 1005 1005 1005 1005 1005 
1005 1005 1005 1005 1005 1005 1005 1005 1005 
1005 1005 1005 1005 1005 1005 1005 1005 1005 
1005 1005 1005 1005 1005 1005 1005 1005 1005 
1005 1005 1005 1005 1005 1005 1005 1005 1005 
1005 1005 1005 1005 1005 1005 1005 1005 1005 
1005 1005 1005 1005 1005 1005 1005 1005 1005 
1005 1005 1005 1005 1005 1005 1005 1005 1005 
1005 1005 1005 1005 1005 1005 1005 1005 1005 
1005 1005 1005 1005 1005 1005 1005 1005 1005 
1005 1005 1005 1005 1005 1005 1005 1005 1005 
1005 1005 1005 1005 1005 1005 1005 1005 1005 
1005 1005 1005 1005 1005 1005 1005 1005 1005 
1005 1005 1005 1005 1005 1005 1005 1005 1005 
1005 1005 1005 1005 1005 1005 1005 1005 1005 
1005 1005 1005 1005 1005 1005 1005 1005 1005 
1005 1005 1005 1005 1005 1005 1005 1005 1005 
1005 1005 1005 1005 1005 1005 1005 1005 1005 
1005 1005 1005 1005 1005 1005 1005 1005 1005 
1005 1005 1005 1005 1005 1005 1005 1005 1005 
1005 1005 1005 1005 1005 1005 1005 1005 1005 
1005 1005 1005 1005 1005 1005 1005 1005 1005 
1005 1005 1005 1005 1005 1005 1005 1005 1005 
1005 1005 1005 1005 1005 1005 1005 1005 1005 
1005 1005 1005 1005 1005 1005 1005 1005 1005 
1005 1005 1005 1005 1005 1005 1005 1005 1005 
1005 1005 1005 1005 1005 1005 1005 1005 1005 
1005 1005 1005 1005 1005 1005 1005 1005 1005 
1005 1005 1005 1005 1005 1005 1005 1005 1005 
1005 1005 1005 1005 1005 1005 1005 1005 1005 
1005 1005 1005 1005 1005 1005 1005 1005 1005 
1005 1005 1005 1005 1005 1005 1005 1005 1005 
1005 1005 1005 1005 1005 1005 1005 1005 1005 
1005 1005 1005 1005 1005 1005 1005 1005 1005 
1005 1005 1005 1005 1005 1005 1005 1005 1005 
1005 1005 1005 1005 1005 1005 1005 1005 1005 
1005 1005 1005 1005 1005 1005 1005 1005 1005 
1005 1005 1005 1005 1005 1005 1005 1005 1005 
1005 1005 1005 1005 1005 1005 1005 1005 1005 
1005 1005 1005 1005 1005 1005 1005 1005 1005 
1005 1005 1005 1005 1005 1005 1005 1005 1005 
1005 1005 1005 1005 1005 1005 1005 1005 1005 
1005 1005 1005 1005 1005 1005 1005 1005 1005 
1005 1005 1005 1005 1005 1005 1005 1005 1005 
1005 1005 1005 1005 1005 1005 1005 1005 1005 
1005 1005 1005 1005 1005 1005 1005 1005 1005 
1005 1005 1005 1005 1005 1005 1005 1005 1005 
1005 1005 1005 1005 1005 1005 1005 1005 1005 
1005 1005 1005 1005 1005 1005 1005 1005 1005 
1005 1005 1005 1005 1005 1005 1005 1005 1005 
1005 1005 1005 1005 1005 1005 1005 1005 1005 
1005 1005 1005 1005 1005 1005 1005 1005 1005 
1005 1005 1005 1005 1005 1005 1005 1005 1005 
1005 1005 1005 1005 1005 1005 1005 1005 1005 
1005 1005 1005 1005 1005 1005 1005 1005 1005 
1005 1005 1005 1005 1005 1005 1005 1005 1005 
1005 1005 1005 1005 1005 1005 1005 1005 1005 
1005 1005 1005 1005 1005 1005 1005 1005 1005 
1005 1005 1005 1005 1005 1005 1005 1005 1005 
1005 1005 1005 1005 1005 1005 1005 1005 1005 
1005 1005 1005 1005 1005 1005 1005 1005 1005 
1005 1005 1005 1005 1005 1005 1005 1005 1005 
1005 1005 1005 1005 1005 1005 1005 1005 1005 
1005 1005 1005 1005 1005 1005 1005 1005 1005 
1005 1005 1005 1005 1005 1005 1005 1005 1005 
1005 1005 1005 1005 1005 1005 1005 1005 1005 
1005 1005 1005 1005 1005 1005 1005 1005 1005 
1005 1005 1005 1005 1005 1005 1005 1005 1005 
1005 1005 1005 1005 1005 1005 1005 1005 1005 
1005 1005 1005 1005 1005 1005 1005 1005 1005 
1005 1005 1005 1005 1005 1005 1005 1005 1005 
1005 1005 1005 1005 1005 1005 1005 1005 1005 
1005 1005 1005 1005 1005 1005 1005 1005 1005 
1005 1005 1005 1005 1005 1005 1005 1005 1005 
1005 1005 1005 1005 1005 1005 1005 1005 1005 
1005 1005 1005 1005 1005 1005 1005 1005 1005 
1005 1005 1005 1005 1005 1005 1005 1005 1005 
1005 1005 1005 1005 1005 1005 1005 1005 1005 
1005 1005 1005 1005 1005 1005 1005 1005 1005 
1005 1005 1005 1005 1005 1005 1005 1005 1005 
1005 1005 1005 1005 1005 1005 1005 1005 1005 
1005 1005 1005 1005 1005 1005 1005 1005 1005 
1005 1005 1005 1005 1005 1005 1005 1005 1005 
1005 1005 1005 1005 1005 1005 1005 1005 1005 
1005 1005 1005 1005 1005 1005 1005 1005 1005 
1005 1005 1005 1005 1005 1005 1005 1005 1005 
1005 1005 1005 1005 1005 1005 1005 1005 1005 
1005 1005 1005 1005 1005 1005 1005 1005 1005 
1005 1005 1005 1005 1005 1005 1005 1005 1005 
1005 1005 1005 1005 1005 1005 1005 1005 1005 
1005 1005 1005 1005 1005 1005 1005 1005 1005 
1005 1005 1005 1005 1005 1005 1005 1005 1005 
1005 1005 1005 1005 1005 1005 1005 1005 1005 
1005 1005 1005 1005 1005 1005 1005 1005 1005 
1005 1005 1005 1005 1005 1005 1005 1005 1005 
1005 1005 1005 1005 1005 1005 1005 1005 1005 
1005 1005 1005 1005 1005 1005 1005 1005 1005 
1005 1005 1005 1005 1005 1005 1005 1005 1005 
1005 1005 1005 1005 1005 1005 1005 1005 1005 
1005 1005 1005 1005 1005 1005 1005 1005 1005 
1005 1005 1005 1005 1005 1005 1005 1005 1005 
1005 1005 1005 1005 1005 1005 1005 1005 1005 
1005 1005 1005 1005 1005 1005 1005 1005 1005 
1005 1005 1005 1005 1005 1005 1005 1005 1005 
1005 1005 1005 1005 1005 1005 1005 1005 1005 
1005 1005 1005 1005 1005 1005 1005 1005 1005 
1005 1005 1005 1005 1005 1005 1005 1005 1005 
1005 1005 1005 1005 1005 1005 1005 1005 1005 
1005 1005 1005 1005 1005 1005 1005 1005 1005 
1005 1005 1005 1005 1005 1005 1005 1005 1005 
1005 1005 1005 1005 1005 1005 1005 1005 1005 
1005 1005 1005 1005 1005 1005 1005 1005 1005 
1005 1005 1005 1005 1005 1005 1005 1005 1005 
1005 1005 1005 1005 1005 1005 1005 1005 1005 
1005 1005 1005 1005 1005 1005 1005 1005 1005 
1005 1005 1005 1005 1005 1005 1005 1005 1005 
1005 1005 1005 1005 1005 1005 1005 1005 1005 
1005 1005 1005 1005 1005 1005 1005 1005 1005 
1005 1005 1005 1005 1005 1005 1005 1005 1005 
1005 1005 1005 1005 1005 1005 1005 1005 1005 
1005 1005 1005 1005 1005 1005 1005 1005 1005 
1005 1005 1005 1005 1005 1005 1005 1005 1005 
1005 1005 1005 1005 1005 1005 1005 1005 1005 
1005 1005 1005 1005 1005 1005 1005 1005 1005 
1005 1005 1005 1005 1005 1005 1005 1005 1005 
1005 1005 1005 1005 1005 1005 1005 1005 1005 
1005 1005 1005 1005 1005 1005 1005 1005 1005 
1005 1005 1005 1005 1005 1005 1005 1005 1005 
1005 1005 1005 1005 1005 1005 1005 1005 1005 
1005 1005 1005 1005 1005 1005 1005 1005 1005 
1005 1005 1005 1005 1005 1005 1005 1005 1005 
1005 1005 1005 1005 1005 1005 1005 1005 1005 
1005 1005 1005 1005 1005 1005 1005 1005 1005 
1005 1005 1005 1005 1005 1005 1005 1005 1005 
1005 1005 1005 1005 1005 1005 1005 1005 1005 
1005 1005 1005 1005 1005 1005 1005 1005 1005 
1005 1005 1005 1005 1005 1005 1005 1005 1005 
1005 1005 1005 1005 1005 1005 1005 1005 1005 
1005 1005 1005 1005 1005 1005 1005 1005 1005 
1005 1005 1005 1005 1005 1005 1005 1005 1005 
1005 1005 1005 1005 1005 1005 1005 1005 1005 
1005 1005 1005 1005 1005 1005 1005 1005 1005 
1005 1005 1005 1005 1005 1005 1005 1005 1005 
1005 1005 1005 1005 1005 1005 1005 1005 1005 
1005 1005 1005 1005 1005 1005 1005 1005 1005 
1005 1005 1005 1005 1005 1005 1005 1005 1005 
1005 1005 1005 1005 1005 1005 1005 1005 1005 
1005 1005 1005 1005 1005 1005 1005 1005 1005 
1005 1005 1005 1005 1005 1005 1005 1005 1005 
1005 1005 1005 1005 1005 1005 1005 1005 1005 
1005 1005 1005 1005 1005 1005 1005 1005 1005 
1005 1005 1005 1005 1005 1005 1005 1005 1005 
1005 1005 1005 1005 1005 1005 1005 1005 1005 
1005 1005 1005 1005 1005 1005 1005 1005 1005 
1005 1005 1005 1005 1005 1005 1005 1005 1005 
1005 1005 1005 1005 1005 1005 1005 1005 1005 
1005 1005 1005 1005 1005 1005 1005 1005 1005 
1005 1005 1005 1005 1005 1005 1005 1005 1005 
1005 1005 1005 1005 1005 1005 1005 1005 1005 
1005 1005 1005 1005 1005 1005 1005 1005 1005 
1005 1005 1005 1005 1005 1005 1005 1005 1005 
1005 1005 1005 1005 1005 1005 1005 1005 1005 
1005 1005 1005 1005 1005 1005 1005 1005 1005 
1005 1005 1005 1005 1005 1005 1005 1005 1005 
1005 1005 1005 1005 1005 1005 1005 1005 1005 
1005 1005 1005 1005 1005 1005 1005 1005 1005 
1005 1005 1005 1005 1005 1005 1005 1005 1005 
1005 1005 1005 1005 1005 1005 1005 1005 1005 
1005 1005 1005 1005 1005 1005 1005 1005 1005 
1005 1005 1005 1005 1005 1005 1005 1005 1005 
1005 1005 1005 1005 1005 1005 1005 1005 1005 
1005 1005 1005 1005 1005 1005 1005 1005 1005 
1005 1005 1005 1005 1005 1005 1005 1005 1005 
1005 1005 1005 1005 1005 1005 1005 1005 1005 
1005 1005 1005 1005 1005 1005 1005 1005 1005 
1005 1005 1005 1005 1005 1005 1005 1005 1005 
1005 1005 1005 1005 1005 1005 1005 1005 1005 
1005 1005 1005 1005 1005 1005 1005 1005 1005 
1005 1005 1005 1005 1005 1005 1005 1005 1005 
1005 1005 1005 1005 1005 1005 1005 1005 1005 
1005 1005 1005 1005 1005 1005 1005 1005 1005 
1005 1005 1005 1005 1005 1005 1005 1005 1005 
1005 1005 1005 1005 1005 1005 1005 1005 1005 
1005 1005 1005 1005 1005 1005 1005 1005 1005 
1005 1005 1005 1005 1005 1005 1005 1005 1005 
1005 1005 1005 1005 1005 1005 1005 1005 1005 
1005 1005 1005 1005 1005 1005 1005 1005 1005 
1005 1005 1005 1005 1005 1005 1005 1005 1005 
1005 1005 1005 1005 1005 1005 1005 1005 1005 
1005 1005 1005 1005 1005 1005 1005 1005 1005 
1005 1005 1005 1005 1005 1005 1005 1005 1005 
1005 1005 1005 1005 1005 1005 1005 1005 1005 
1005 1005 1005 1005 1005 1005 1005 1005 1005 
1005 1005 1005 1005 1005 1005 1005 1005 1005 
1005 1005 1005 1005 1005 1005 1005 1005 1005 
1005 1005 1005 1005 1005 1005 1005 1005 1005 
1005 1005 1005 1005 1005 1005 1005 1005 1005 
1005 1005 1005 1005 1005 1005 1005 1005 1005 
1005 1005 1005 1005 1005 1005 1005 1005 1005 
1005 1005 1005 1005 1005 1005 1005 1005 1005 
1005 1005 1005 1005 1005 1005 1005 1005 1005 
1005 1005 1005 1005 1005 1005 1005 1005 1005 
1005 1005 1005 1005 1005 1005 1005 1005 1005 
1005 1005 1005 1005 1005 1005 1005 1005 1005 
1005 1005 1005 1005 1005 1005 1005 1005 1005 
1005 1005 1005 1005 1005 1005 1005 1005 1005 
1005 1005 1005 1005 1005 1005 1005 1005 1005 
1005 1005 1005 1005 1005 1005 1005 1005 1005 
1005 1005 1005 1005 1005 1005 1005 1005 1005 
1005 1005 1005 1005 1005 1005 1005 1005 1005 
1005 1005 1005 1005 1005 1005 1005 1005 1005 
1005 1005 1005 1005 1005 1005 1005 1005 1005 
1005 1005 1005 1005 1005 1005 1005 1005 1005 
1005 1005 1005 1005 1005 1005 1005 1005 1005 
1005 1005 1005 1005 1005 1005 1005 1005 1005 
1005 1005 1005 1005 1005 1005 1005 1005 1005 
1005 1005 1005 1005 1005 1005 1005 1005 1005 
1005 1005 1005 1005 1005 1005 1005 1005 1005 
1005 1005 1005 1005 1005 1005 1005 1005 1005 
1005 1005 1005 1005 1005 1005 1005 1005 1005 
1005 1005 1005 1005 1005 1005 1005 1005 1005 
1005 1005 1005 1005 1005 1005 1005 1005 1005 
1005 1005 1005 1005 1005 1005 1005 1005 1005 
1005 1005 1005 1005 1005 1005 1005 1005 1005 
1005 1005 1005 1005 1005 1005 1005 1005 1005 
1005 1005 1005 1005 1005 1005 1005 1005 1005 
1005 1005 1005 1005 1005 1005 1005 1005 1005 
1005 1005 1005 1005 1005 1005 1005 1005 1005 
1005 1005 1005 1005 1005 1005 1005 1005 1005 
1005 1005 1005 1005 1005 1005 1005 1005 1005 
1005 1005 1005 1005 1005 1005 1005 1005 1005 
1005 1005 1005 1005 1005 1005 1005 1005 1005 
1005 1005 1005 1005 1005 1005 1005 1005 1005 
1005 1005 1005 1005 1005 1005 1005 1005 1005 
1005 1005 1005 1005 1005 1005 1005 1005 1005 
1005 1005 1005 1005 1005 1005 1005 1005 1005 
1005 1005 1005 1005 1005 1005 1005 1005 1005 
1005 1005 1005 1005 1005 1005 1005 1005 1005 
1005 1005 1005 1005 1005 1005 1005 1005 1005 
1005 1005 1005 1005 1005 1005 1005 1005 1005 
1005 1005 1005 1005 1005 1005 1005 1005 1005 
1005 1005 1005 1005 1005 1005 1005 1005 1005 
1005 1005 1005 1005 1005 1005 1005 1005 1005 
1005 1005 1005 1005 1005 1005 1005 1005 1005 
1005 1005 1005 1005 1005 1005 1005 1005 1005 
1005 1005 1005 1005 1005 1005 1005 1005 1005 
1005 1005 1005 1005 1005 1005 1005 1005 1005 
1005 1005 1005 1005 1005 1005 1005 1005 1005 
1005 1005 1005 1005 1005 1005 1005 1005 1005 
1005 1005 1005 1005 1005 1005 1005 1005 1005 
1005 1005 1005 1005 1005 1005 1005 1005 1005 
1005 1005 1005 1005 1005 1005 1005 1005 1005 
1005 1005 1005 1005 1005 1005 1005 1005 1005 
1005 1005 1005 1005 1005 1005 1005 1005 1005 
1005 1005 1005 1005 1005 1005 1005 1005 1005 
1005 1005 1005 1005 1005 1005 1005 1005 1005 
1005 1005 1005 1005 1005 1005 1005 1005 1005 
1005 1005 1005 1005 1005 1005 1005 1005 1005 
1005 1005 1005 1005 1005 1005 1005 1005 1005 
1005 1005 1005 1005 1005 1005 1005 1005 1005 
1005 1005 1005 1005 1005 1005 1005 1005 1005 
1005 1005 1005 1005 1005 1005 1005 1005 1005 
1005 1005 1005 1005 1005 1005 1005 1005 1005 
1005 1005 1005 1005 1005 1005 1005 1005 1005 
1005 1005 1005 1005 1005 1005 1005 1005 1005 
1005 1005 1005 1005 1005 1005 1005 1005 1005 
1005 1005 1005 1005 1005 1005 1005 1005 1005 
1005 1005 1005 1005 1005 1005 1005 1005 1005 
1005 1005 1005 1005 1005 1005 1005 1005 1005 
1005 1005 1005 1005 1005 1005 1005 1005 1005 
1005 1005 1005 1005 1005 1005 1005 1005 1005 
1005 1005 1005 1005 1005 1005 1005 1005 1005 
1005 1005 1005 1005 1005 1005 1005 1005 1005 
1005 1005 1005 1005 1005 1005 1005 1005 1005 
1005 1005 1005 1005 1005 1005 1005 1005 1005 
1005 1005 1005 1005 1005 1005 1005 1005 1005 
1005 1005 1005 1005 1005 1005 1005 1005 1005 
1005 1005 1005 1005 1005 1005 1005 1005 1005 
1005 1005 1005 1005 1005 1005 1005 1005 1005 
1005 1005 1005 1005 1005 1005 1005 1005 1005 
1005 1005 1005 1005 1005 1005 1005 1005 1005 
1005 1005 1005 1005 1005 1005 1005 1005 1005 
1005 1005 1005 1005 1005 1005 1005 1005 1005 
1005 1005 1005 1005 1005 1005 1005 1005 1005 
1005 1005 1005 1005 1005 1005 1005 1005 1005 
1005 1005 1005 1005 1005 1005 1005 1005 1005 
1005 1005 1005 1005 1005 1005 1005 1005 1005 
1005 1005 1005 1005 1005 1005 1005 1005 1005 
1005 1005 1005 1005 1005 1005 1005 1005 1005 
1005 1005 1005 1005 1005 1005 1005 1005 1005 
1005 1005 1005 1005 1005 1005 1005 1005 1005 
1005 1005 1005 1005 1005 1005 1005 1005 1005 
1005 1005 1005 1005 1005 1005 1005 1005 1005 
1005 1005 1005 1005 1005 1005 1005 1005 1005 
1005 1005 1005 1005 1005 1005 1005 1005 1005 
1005 1005 1005 1005 1005 1005 1005 1005 1005 
1005 1005 1005 1005 1005 1005 1005 1005 1005 
1005 1005 1005 1005 1005 1005 1005 1005 1005 
1005 1005 1005 1005 1005 1005 1005 1005 1005 
1005 1005 1005 1005 1005 1005 1005 1005 1005 
1005 1005 1005 1005 1005 1005 1005 1005 1005 
1005 1005 1005 1005 1005 1005 1005 1005 1005 
1005 1005 1005 1005 1005 1005 1005 1005 1005 
1005 1005 1005 1005 1005 1005 1005 1005 1005 
1005 1005 1005 1005 1005 1005 1005 1005 1005 
1005 1005 1005 1005 1005 1005 1005 1005 1005 
1005 1005 1005 1005 1005 1005 1005 1005 1005 
1005 1005 1005 1005 1005 1005 1005 1005 1005 
1005 1005 1005 1005 1005 1005 1005 1005 1005 
1005 1005 1005 1005 1005 1005 1005 1005 1005 
1005 1005 1005 1005 1005 1005 1005 1005 1005 
1005 1005 1005 1005 1005 1005 1005 1005 1005 
1005 1005 1005 1005 1005 1005 1005 1005 1005 
1005 1005 1005 1005 1005 1005 1005 1005 1005 
1005 1005 1005 1005 1005 1005 1005 1005 1005 
1005 1005 1005 1005 1005 1005 1005 1005 1005 
1005 1005 1005 1005 1005 1005 1005 1005 1005 
1005 1005 1005 1005 1005 1005 1005 1005 1005 
1005 1005 1005 1005 1005 1005 1005 1005 1005 
1005 1005 1005 1005 1005 1005 1005 1005 1005 
1005 1005 1005 1005 1005 1005 1005 1005 1005 
1005 1005 1005 1005 1005 1005 1005 1005 1005 
1005 1005 1005 1005 1005 1005 1005 1005 1005 
1005 1005 1005 1005 1005 1005 1005 1005 1005 
1005 1005 1005 1005 1005 1005 1005 1005 1005 
1005 1005 1005 1005 1005 1005 1005 1005 1005 
1005 1005 1005 1005 1005 1005 1005 1005 1005 
1005 1005 1005 1005 1005 1005 1005 1005 1005 
1005 1005 1005 1005 1005 1005 1005 1005 1005 
1005 1005 1005 1005 1005 1005 1005 1005 1005 
1005 1005 1005 1005 1005 1005 1005 1005 1005 
1005 1005 1005 1005 1005 1005 1005 1005 1005 
1005 1005 1005 1005 1005 1005 1005 1005 1005 
1005 1005 1005 1005 1005 1005 1005 1005 1005 
1005 1005 1005 1005 1005 1005 1005 1005 1005 
1005 1005 1005 1005 1005 1005 1005 1005 1005 
1005 1005 1005 1005 1005 1005 1005 1005 1005 
1005 1005 1005 1005 1005 1005 1005 1005 1005 
1005 1005 1005 1005 1005 1005 1005 1005 1005 
1005 1005 1005 1005 1005 1005 1005 1005 1005 
1005 1005 1005 1005 1005 1005 1005 1005 1005 
1005 1005 1005 1005 1005 1005 1005 1005 1005 
1005 1005 1005 1005 1005 1005 1005 1005 1005 
1005 1005 1005 1005 1005 1005 1005 1005 1005 
1005 1005 1005 1005 1005 1005 1005 1005 1005 
1005 1005 1005 1005 1005 1005 1005 1005 1005 
1005 1005 1005 1005 1005 1005 1005 1005 1005 
1005 1005 1005 1005 1005 1005 1005 1005 1005 
1005 1005 1005 1005 1005 1005 1005 1005 1005 
1005 1005 1005 1005 1005 1005 1005 1005 1005 
1005 1005 1005 1005 1005 1005 1005 1005 1005 
1005 1005 1005 1005 1005 1005 1005 1005 1005 
1005 1005 1005 1005 1005 1005 1005 1005 1005 
1005 1005 1005 1005 1005 1005 1005 1005 1005 
1005 1005 1005 1005 1005 1005 1005 1005 1005 
1005 1005 1005 1005 1005 1005 1005 1005 1005 
1005 1005 1005 1005 1005 1005 1005 1005 1005 
1005 1005 1005 1005 1005 1005 1005 1005 1005 
1005 1005 1005 1005 1005 1005 1005 1005 1005 
1005 1005 1005 1005 1005 1005 1005 1005 1005 
1005 1005 1005 1005 1005 1005 1005 1005 1005 
1005 1005 1005 1005 1005 1005 1005 1005 1005 
1005 1005 1005 1005 1005 1005 1005 1005 1005 
1005 1005 1005 1005 1005 1005 1005 1005 1005 
1005 1005 1005 1005 1005 1005 1005 1005 1005 
1005 1005 1005 1005 1005 1005 1005 1005 1005 
1005 1005 1005 1005 1005 1005 1005 1005 1005 
1005 1005 1005 1005 1005 1005 1005 1005 1005 
1005 1005 1005 1005 1005 1005 1005 1005 1005 
1005 1005 1005 1005 1005 1005 1005 1005 1005 
1005 1005 1005 1005 1005 1005 1005 1005 1005 
1005 1005 1005 1005 1005 1005 1005 1005 1005 
1005 1005 1005 1005 1005 1005 1005 1005 1005 
1005 1005 1005 1005 1005 1005 1005 1005 1005 
1005 1005 1005 1005 1005 1005 1005 1005 1005 
1005 1005 1005 1005 1005 1005 1005 1005 1005 
1005 1005 1005 1005 1005 1005 1005 1005 1005 
1005 1005 1005 1005 1005 1005 1005 1005 1005 
1005 1005 1005 1005 1005 1005 1005 1005 1005 
1005 1005 1005 1005 1005 1005 1005 1005 1005 
1005 1005 1005 1005 1005 1005 1005 1005 1005 
1005 1005 1005 1005 1005 1005 1005 1005 1005 
1005 1005 1005 1005 1005 1005 1005 1005 1005 
1005 1005 1005 1005 1005 1005 1005 1005 1005 
1005 1005 1005 1005 1005 1005 1005 1005 1005 
1005 1005 1005 1005 1005 1005 1005 1005 1005 
1005 1005 1005 1005 1005 1005 1005 1005 1005 
1005 1005 1005 1005 1005 1005 1005 1005 1005 
1005 1005 1005 1005 1005 1005 1005 1005 1005 
1005 1005 1005 1005 1005 1005 1005 1005 1005 
1005 1005 1005 1005 1005 1005 1005 1005 1005 
1005 1005 1005 1005 1005 1005 1005 1005 1005 
1005 1005 1005 1005 1005 1005 1005 1005 1005 
1005 1005 1005 1005 1005 1005 1005 1005 1005 
1005 1005 1005 1005 1005 1005 1005 1005 1005 
1005 1005 1005 1005 1005 1005 1005 1005 1005 
1005 1005 1005 1005 1005 1005 1005 1005 1005 
1005 1005 1005 1005 1005 1005 1005 1005 1005 
1005 1005 1005 1005 1005 1005 1005 1005 1005 
1005 1005 1005 1005 1005 1005 1005 1005 1005 
1005 1005 1005 1005 1005 1005 1005 1005 1005 
1005 1005 1005 1005 1005 1005 1005 1005 1005 
1005 1005 1005 1005 1005 1005 1005 1005 1005 
1005 1005 1005 1005 1005 1005 1005 1005 1005 
1005 1005 1005 1005 1005 1005 1005 1005 1005 
1005 1005 1005 1005 1005 1005 1005 1005 1005 
1005 1005 1005 1005 1005 1005 1005 1005 1005 
1005 1005 1005 1005 1005 1005 1005 1005 1005 
1005 1005 1005 1005 1005 1005 1005 1005 1005 
1005 1005 1005 1005 1005 1005 1005 1005 1005 
1005 1005 1005 1005 1005 1005 1005 1005 1005 
1005 1005 1005 1005 1005 1005 1005 1005 1005 
1005 1005 1005 1005 1005 1005 1005 1005 1005 
1005 1005 1005 1005 1005 1005 1005 1005 1005 
1005 1005 1005 1005 1005 1005 1005 1005 1005 
1005 1005 1005 1005 1005 1005 1005 1005 1005 