# vtk DataFile Version 4.2
vtk output
ASCII
DATASET POLYDATA
POINTS 24100 float
12.7599 -19.6503 44.3321 12.765 -19.3259 43.9388 13.1374 -19.5376 44.1537 
12.4583 -19.4082 44.0628 13.2401 -20.0169 44.3547 13.5225 -19.7697 43.9367 
13.7159 -20.234 44.1423 12.7186 -20.1594 44.4695 12.2555 -19.6479 44.2159 
12.1478 -20.0866 44.3961 11.579 -20.2217 44.2946 11.6465 -19.7609 44.0275 
11.2783 -20.0883 44.0413 13.3491 -20.6633 44.3635 13.7494 -20.8244 44.1377 
12.8108 -20.66 44.4588 12.2035 -20.6991 44.4615 11.6587 -20.6922 44.3716 
11.2649 -20.5482 44.1327 13.3346 -21.2841 44.347 13.7305 -21.4452 44.1285 
12.7952 -21.2794 44.4387 12.1815 -21.318 44.4423 11.6471 -21.3104 44.3581 
11.2679 -21.152 44.1347 13.3194 -21.8984 44.3518 13.7301 -22.0557 44.1362 
12.7784 -21.888 44.438 12.1745 -21.9295 44.4318 11.6356 -21.9219 44.342 
11.2502 -21.7613 44.123 13.321 -22.5124 44.3635 13.7199 -22.6574 44.1317 
12.7734 -22.508 44.4493 12.2683 -22.4404 44.4368 11.7515 -22.5654 44.3163 
11.2913 -22.3284 44.1128 13.3225 -23.0673 44.3219 13.6102 -23.1607 44.1021 
12.805 -23.1188 44.4476 12.1872 -23.082 44.381 11.7465 -23.1009 44.1819 
11.4446 -22.7898 44.0818 13.3017 -23.4657 44.1942 13.0485 -23.8354 44.1139 
12.908 -23.5789 44.3306 12.3864 -23.6639 44.3252 11.9053 -23.5522 44.1496 
12.5821 -24.026 44.0419 12.0578 -23.9336 43.9726 10.4319 -26.6919 44.2424 
10.4056 -26.5239 44.1675 10.5363 -26.6905 44.1133 10.2493 -26.6602 43.9907 
10.4243 -26.8672 44.1676 9.86017 -27.2287 44.0798 9.94512 -27.3192 44.1767 
9.77232 -27.3111 44.2236 9.65903 -27.2656 43.9928 10.2502 -28.0488 44.3104 
10.5081 -27.7478 44.1121 10.6844 -28.1008 44.0638 9.80497 -27.391 43.996 
10.1355 -27.8648 44.0081 10.367 -28.3382 44.3364 10.5819 -28.617 44.0195 
9.88 -28.2023 44.1597 9.95362 -28.4407 44.3273 9.63773 -28.5428 43.944 
10.1848 -28.7535 44.1941 9.77313 -28.8226 44.0698 9.07196 -17.6888 43.735 
9.17515 -17.3763 43.4734 9.37323 -17.7438 43.4596 8.74428 -17.8668 43.7195 
8.78032 -17.4185 43.5702 8.41404 -17.6283 43.3464 9.14118 -18.0886 43.7076 
9.378 -18.3443 43.3161 8.82765 -18.2352 43.6411 8.51847 -18.0907 43.4734 
9.07665 -18.4481 43.5271 12.6883 -19.2743 43.3451 13.1019 -19.4531 43.68 
11.9911 -19.4572 43.8814 12.2084 -19.2481 43.5361 11.6182 -19.4758 43.7438 
11.6124 -19.3033 43.4279 11.2722 -19.4767 43.5041 13.9334 -20.0537 43.8263 
13.7907 -19.9133 43.4198 14.1478 -20.2712 43.4759 13.3879 -19.6739 43.4141 
10.9876 -20.2702 43.7744 11.0892 -19.8113 43.6693 10.7759 -20.0219 43.4519 
9.13742 -20.2394 43.6851 9.04861 -19.8436 43.4033 9.4041 -20.1868 43.5244 
8.86573 -20.1871 43.4062 14.0468 -20.498 43.8437 14.2353 -20.7594 43.5094 
10.9767 -20.8498 43.8061 10.6947 -20.5272 43.4774 9.21981 -20.5778 43.7023 
9.37504 -20.763 43.5245 9.00135 -20.6593 43.4974 14.0445 -21.1053 43.8217 
14.2476 -21.2886 43.4255 10.9704 -21.4656 43.8057 10.6792 -21.1404 43.4848 
9.13993 -20.9715 43.4759 14.0328 -21.7231 43.8166 14.2484 -21.888 43.4212 
10.9611 -22.0687 43.8121 10.6727 -21.7491 43.5019 14.0329 -22.3369 43.8274 
14.2462 -22.4866 43.427 11.0623 -22.6941 43.8232 10.6698 -22.4316 43.4575 
13.9507 -23.0432 43.8417 14.2386 -23.118 43.452 11.4726 -23.1955 43.9593 
11.1345 -23.2519 43.7022 10.8192 -22.9675 43.5042 13.9556 -23.7405 43.7891 
14.2567 -23.7487 43.4799 13.4904 -23.7073 43.9654 11.5783 -23.6563 43.8361 
11.2813 -23.6284 43.5237 10.9577 -23.378 43.3178 14.0332 -24.2231 43.7291 
14.2264 -24.2852 43.3747 13.595 -24.2752 43.7951 13.0009 -24.2512 43.8208 
12.5226 -24.3139 43.6385 12.1057 -24.1552 43.4901 11.6485 -23.9138 43.4886 
13.8342 -24.5527 43.4961 13.249 -24.5862 43.4661 12.675 -24.5257 43.3706 
10.3005 -26.2259 43.8278 10.3808 -25.8857 43.4091 10.7211 -26.1251 43.5414 
9.79509 -26.0541 43.6663 9.92856 -25.9083 43.483 9.67505 -26.0283 43.5356 
10.8598 -26.6401 43.7828 11.0543 -26.3752 43.335 11.2282 -26.8189 43.5325 
9.8917 -26.2603 43.5629 10.027 -26.7205 43.4038 11.0515 -27.1762 43.7595 
11.2754 -27.2818 43.461 10.3147 -27.2629 43.9184 9.75801 -27.09 43.5595 
9.52608 -27.315 43.5466 10.9439 -27.6876 43.823 11.2209 -27.9217 43.318 
9.76404 -27.5786 43.5569 9.98071 -27.8095 43.6338 10.9864 -28.1502 43.6412 
10.8301 -28.5792 43.5157 9.77494 -28.1657 43.7193 9.50089 -28.4461 43.3818 
10.4011 -29.076 43.9298 10.6469 -29.114 43.6228 9.97516 -29.2445 43.8338 
9.55237 -29.0161 43.4737 10.3652 -29.5369 43.6926 10.5669 -29.6471 43.3252 
10.0291 -29.6925 43.5804 9.73591 -29.5187 43.4453 10.2216 -29.8965 43.3806 
11.4383 -16.0515 43.0686 11.6975 -15.7199 42.8851 11.8708 -16.0866 42.9289 
11.3195 -15.7882 42.8965 11.5861 -16.3737 43.0818 11.8176 -16.5456 42.8896 
11.065 -16.1385 42.9807 11.1772 -16.4539 43.0668 10.832 -16.4169 42.8819 
8.58099 -16.6599 43.0722 8.64346 -16.3085 42.7241 8.91409 -16.5633 42.9515 
8.25393 -16.5466 42.779 11.3985 -16.7601 42.9221 10.9398 -16.7294 42.8641 
8.96564 -16.9701 43.2152 9.25874 -16.8119 42.873 9.44859 -17.2845 43.0158 
8.56307 -17.1086 43.3096 8.33148 -17.0613 43.0181 9.57789 -17.8827 42.9747 
8.25841 -17.5583 42.8424 9.57738 -18.4325 42.8736 8.66718 -18.5169 43.3078 
8.32026 -18.1317 42.9548 9.09921 -18.8104 43.2764 9.46639 -18.9987 42.9647 
8.74597 -19.0297 43.1038 8.40349 -18.7151 42.8531 12.8064 -19.2587 42.8816 
13.0982 -19.4916 43.0915 12.3211 -19.1164 42.9604 11.7204 -19.1135 42.9729 
10.7658 -19.5951 43.2214 11.1251 -19.1948 42.9838 10.2403 -19.6764 43.0392 
10.5468 -19.2666 42.8574 10.1072 -19.4417 42.8077 9.23549 -19.4793 43.1957 
9.57566 -19.5649 42.9497 8.81679 -19.5792 42.895 8.59819 -19.1518 42.6967 
15.1768 -20.1074 43.0036 15.2879 -19.9617 42.9042 15.3364 -20.207 42.9024 
15.0437 -20.0209 42.8962 14.0345 -20.1981 43.1393 13.8157 -20.0571 42.9727 
13.5156 -19.7948 42.9708 10.3634 -20.1532 43.2482 9.85722 -19.6814 42.9126 
9.78213 -19.9412 43.1713 8.61091 -20.2021 43.0764 8.682 -19.9238 43.0969 
8.50789 -20.1041 42.9132 15.0922 -20.2662 42.8944 14.0835 -20.3455 42.8361 
14.3057 -20.7464 42.9487 10.3027 -20.8397 43.2747 9.7825 -20.6387 43.3003 
8.79535 -20.5264 42.9609 8.60453 -20.24 42.7974 14.3245 -21.3869 43.0003 
10.305 -21.4522 43.2783 9.88993 -21.2237 43.2091 9.37658 -21.3224 43.2037 
8.95808 -21.2139 42.9155 14.3219 -21.8815 42.8987 10.3766 -21.9888 43.3059 
9.90254 -21.8819 43.1266 9.41556 -21.8502 42.9683 9.12496 -21.7033 42.8541 
14.3286 -22.4882 42.896 10.3338 -22.4776 43.1382 10.0882 -22.5129 42.838 
9.66907 -22.1945 42.724 14.3454 -23.1113 42.9236 10.6045 -23.1096 42.9526 
10.3327 -22.875 42.8339 14.3619 -23.7416 42.933 11.2287 -23.7221 43.104 
10.9083 -23.521 42.8721 14.2843 -24.269 42.7895 12.2866 -24.3909 43.2718 
11.986 -24.2888 42.9625 11.5436 -24.0198 42.8052 13.9677 -24.5896 42.969 
13.4126 -24.6763 42.9558 12.7758 -24.6457 42.9012 12.2602 -24.5047 42.868 
10.2378 -25.8562 42.8926 10.723 -26.013 43.0711 9.84194 -25.9997 43.2926 
9.97847 -26.1621 42.969 11.0242 -26.3406 42.7534 11.2635 -26.7526 43.0824 
9.95481 -26.5403 42.8713 11.3317 -27.312 42.9458 9.80408 -26.8425 43.0154 
9.27111 -27.5126 43.1274 9.39596 -27.0357 42.9891 8.96615 -27.2363 42.8308 
11.3924 -27.9468 42.756 9.56431 -27.9542 43.2832 9.21392 -27.8408 43.0309 
8.90151 -27.6867 42.868 11.0551 -28.4019 43.2668 11.1772 -28.4389 42.8589 
9.18994 -28.1687 42.9477 9.35816 -28.6563 43.0325 10.9619 -28.703 42.9778 
10.782 -29.1323 42.9914 9.3643 -29.0089 42.9083 10.6256 -29.7818 42.7722 
9.86625 -29.8133 43.2875 9.60534 -29.5221 42.9355 10.2889 -30.0121 42.9408 
9.9479 -29.9206 43.0397 12.1274 -14.8053 42.5268 12.1552 -14.4086 42.3407 
12.515 -14.6661 42.3371 11.5073 -14.8262 42.5112 11.6544 -14.3507 42.2124 
11.2489 -14.6089 42.2503 12.7172 -15.3031 42.5388 12.8435 -14.9757 42.333 
13.1292 -15.2697 42.3155 12.2348 -15.2516 42.6298 11.6427 -15.3513 42.6939 
11.0452 -14.8669 42.3868 10.9311 -15.286 42.5744 10.2696 -15.4501 42.5024 
10.443 -14.9727 42.2213 10.0408 -15.2405 42.2603 13.2306 -15.8663 42.5245 
13.464 -15.5368 42.2235 13.611 -15.9442 42.2587 12.7376 -15.9732 42.6314 
12.2096 -15.7042 42.7046 10.9157 -15.9161 42.7434 10.3821 -15.9157 42.6183 
9.76287 -15.5312 42.2234 9.76739 -15.9621 42.5256 9.44884 -15.8432 42.2479 
13.3601 -16.4913 42.5509 13.7225 -16.5527 42.251 12.84 -16.5108 42.6379 
12.2373 -16.4319 42.7068 10.459 -16.6045 42.6554 9.89077 -16.3966 42.6024 
9.14619 -16.1011 42.4448 9.29447 -16.4403 42.6802 8.56692 -16.0897 42.2726 
7.98424 -16.5516 42.4883 8.12064 -16.2807 42.4461 7.80351 -16.4901 42.129 
13.4257 -16.9535 42.4743 13.6124 -17.1261 42.2636 12.8949 -17.098 42.5483 
12.2345 -17.099 42.619 11.635 -17.0793 42.6877 10.9048 -17.1417 42.6559 
10.2753 -17.213 42.558 9.7531 -16.9263 42.6488 8.13779 -17.0335 42.5362 
7.89587 -16.8221 42.2216 13.1985 -17.3598 42.3169 12.7366 -17.5032 42.3435 
12.4649 -17.7089 42.2775 12.2281 -17.6383 42.4729 11.5942 -17.7152 42.5804 
10.9833 -17.733 42.5726 10.3725 -17.7185 42.5464 9.85956 -17.5472 42.6508 
8.17113 -17.706 42.4099 13.8812 -18.4263 42.4904 14.0464 -18.0758 42.2591 
14.3537 -18.3617 42.3547 13.2215 -18.379 42.5019 13.562 -17.9803 42.2913 
12.62 -18.4637 42.4384 12.9769 -18.0329 42.2776 12.1685 -18.0189 42.2682 
12.5134 -18.2117 42.2222 11.9966 -18.4086 42.3126 11.6307 -18.3491 42.5005 
10.9518 -18.3366 42.5617 10.3565 -18.3263 42.5479 9.86813 -18.1505 42.6378 
8.20464 -18.3712 42.3373 15.109 -19.0222 42.5075 15.1845 -18.6539 42.3151 
15.5277 -18.8881 42.3231 14.4292 -18.8654 42.5239 14.8113 -18.5335 42.3171 
13.8822 -18.9851 42.5862 13.4596 -18.8061 42.5972 12.8167 -18.9049 42.6481 
12.2328 -18.4687 42.3045 12.0522 -18.7696 42.5728 11.4419 -18.8942 42.6726 
10.955 -18.8441 42.6499 10.3164 -18.9563 42.6282 9.83029 -18.7718 42.6489 
8.3798 -18.8832 42.4014 15.6603 -19.3746 42.5144 15.854 -19.1893 42.3364 
16.0774 -19.6029 42.3111 15.1709 -19.6792 42.7037 14.58 -19.5219 42.6031 
14.0547 -19.4045 42.584 13.4087 -19.391 42.6825 9.7942 -19.3397 42.7384 
8.78675 -19.4828 42.3782 8.59821 -19.1869 42.128 15.6684 -20.0404 42.6495 
16.1503 -20.2937 42.3527 14.7579 -20.1478 42.7025 14.012 -19.9899 42.6758 
8.62018 -19.9918 42.7618 8.76125 -20.032 42.361 15.8388 -20.6016 42.5036 
[...]
CELL_DATA 48408
SCALARS scalars float
LOOKUP_TABLE default
2027 2027 2027 2027 2027 2027 2027 2027 2027 
2027 2027 2027 2027 2027 2027 2027 2027 2027 
2027 2027 2027 2027 2027 2027 2027 2027 2027 
2027 2027 2027 2027 2027 2027 2027 2027 2027 
2027 2027 2027 2027 2027 2027 2027 2027 2027 
2027 2027 2027 2027 2027 2027 2027 2027 2027 
2027 2027 2027 2027 2027 2027 2027 2027 2027 
2027 2027 2027 2027 2027 2027 2027 2027 2027 
2027 2027 2027 2027 2027 2027 2027 2027 2027 
2027 2027 2027 2027 2027 2027 2027 2027 2027 
2027 2027 2027 2027 2027 2027 2027 2027 2027 
2027 2027 2027 2027 2027 2027 2027 2027 2027 
2027 2027 2027 2027 2027 2027 2027 2027 2027 
2027 2027 2027 2027 2027 2027 2027 2027 2027 
2027 2027 2027 2027 2027 2027 2027 2027 2027 
2027 2027 2027 2027 2027 2027 2027 2027 2027 
2027 2027 2027 2027 2027 2027 2027 2027 2027 
2027 2027 2027 2027 2027 2027 2027 2027 2027 
2027 2027 2027 2027 2027 2027 2027 2027 2027 
2027 2027 2027 2027 2027 2027 2027 2027 2027 
2027 2027 2027 2027 2027 2027 2027 2027 2027 
2027 2027 2027 2027 2027 2027 2027 2027 2027 
2027 2027 2027 2027 2027 2027 2027 2027 2027 
2027 2027 2027 2027 2027 2027 2027 2027 2027 
2027 2027 2027 2027 2027 2027 2027 2027 2027 
2027 2027 2027 2027 2027 2027 2027 2027 2027 
2027 2027 2027 2027 2027 2027 2027 2027 2027 
2027 2027 2027 2027 2027 2027 2027 2027 2027 
2027 2027 2027 2027 2027 2027 2027 2027 2027 
2027 2027 2027 2027 2027 2027 2027 2027 2027 
2027 2027 2027 2027 2027 2027 2027 2027 2027 
2027 2027 2027 2027 2027 2027 2027 2027 2027 
2027 2027 2027 2027 2027 2027 2027 2027 2027 
2027 2027 2027 2027 2027 2027 2027 2027 2027 
2027 2027 2027 2027 2027 2027 2027 2027 2027 
2027 2027 2027 2027 2027 2027 2027 2027 2027 
2027 2027 2027 2027 2027 2027 2027 2027 2027 
2027 2027 2027 2027 2027 2027 2027 2027 2027 
2027 2027 2027 2027 2027 2027 2027 2027 2027 
2027 2027 2027 2027 2027 2027 2027 2027 2027 
2027 2027 2027 2027 2027 2027 2027 2027 2027 
2027 2027 2027 2027 2027 2027 2027 2027 2027 
2027 2027 2027 2027 2027 2027 2027 2027 2027 
2027 2027 2027 2027 2027 2027 2027 2027 2027 
2027 2027 2027 2027 2027 2027 2027 2027 2027 
2027 2027 2027 2027 2027 2027 2027 2027 2027 
2027 2027 2027 2027 2027 2027 2027 2027 2027 
2027 2027 2027 2027 2027 2027 2027 2027 2027 
2027 2027 2027 2027 2027 2027 2027 2027 2027 
2027 2027 2027 2027 2027 2027 2027 2027 2027 
2027 2027 2027 2027 2027 2027 2027 2027 2027 
2027 2027 2027 2027 2027 2027 2027 2027 2027 
2027 2027 2027 2027 2027 2027 2027 2027 2027 
2027 2027 2027 2027 2027 2027 2027 2027 2027 
2027 2027 2027 2027 2027 2027 2027 2027 2027 
2027 2027 2027 2027 2027 2027 2027 2027 2027 
2027 2027 2027 2027 2027 2027 2027 2027 2027 
2027 2027 2027 2027 2027 2027 2027 2027 2027 
2027 2027 2027 2027 2027 2027 2027 2027 2027 
2027 2027 2027 2027 2027 2027 2027 2027 2027 
2027 2027 2027 2027 2027 2027 2027 2027 2027 
2027 2027 2027 2027 2027 2027 2027 2027 2027 
2027 2027 2027 2027 2027 2027 2027 2027 2027 
2027 2027 2027 2027 2027 2027 2027 2027 2027 
2027 2027 2027 2027 2027 2027 2027 2027 2027 
2027 2027 2027 2027 2027 2027 2027 2027 2027 
2027 2027 2027 2027 2027 2027 2027 2027 2027 
2027 2027 2027 2027 2027 2027 2027 2027 2027 
2027 2027 2027 2027 2027 2027 2027 2027 2027 
2027 2027 2027 2027 2027 2027 2027 2027 2027 
2027 2027 2027 2027 2027 2027 2027 2027 2027 
2027 2027 2027 2027 2027 2027 2027 2027 2027 
2027 2027 2027 2027 2027 2027 2027 2027 2027 
2027 2027 2027 2027 2027 2027 2027 2027 2027 
2027 2027 2027 2027 2027 2027 2027 2027 2027 
2027 2027 2027 2027 2027 2027 2027 2027 2027 
2027 2027 2027 2027 2027 2027 2027 2027 2027 
2027 2027 2027 2027 2027 2027 2027 2027 2027 
2027 2027 2027 2027 2027 2027 2027 2027 2027 
2027 2027 2027 2027 2027 2027 2027 2027 2027 
2027 2027 2027 2027 2027 2027 2027 2027 2027 
2027 2027 2027 2027 2027 2027 2027 2027 2027 
2027 2027 2027 2027 2027 2027 2027 2027 2027 
2027 2027 2027 2027 2027 2027 2027 2027 2027 
2027 2027 2027 2027 2027 2027 2027 2027 2027 
2027 2027 2027 2027 2027 2027 2027 2027 2027 
2027 2027 2027 2027 2027 2027 2027 2027 2027 
2027 2027 2027 2027 2027 2027 2027 2027 2027 
2027 2027 2027 2027 2027 2027 2027 2027 2027 
2027 2027 2027 2027 2027 2027 2027 2027 2027 
2027 2027 2027 2027 2027 2027 2027 2027 2027 
2027 2027 2027 2027 2027 2027 2027 2027 2027 
2027 2027 2027 2027 2027 2027 2027 2027 2027 
2027 2027 2027 2027 2027 2027 2027 2027 2027 
2027 2027 2027 2027 2027 2027 2027 2027 2027 
2027 2027 2027 2027 2027 2027 2027 2027 2027 
2027 2027 2027 2027 2027 2027 2027 2027 2027 
2027 2027 2027 2027 2027 2027 2027 2027 2027 
2027 2027 2027 2027 2027 2027 2027 2027 2027 
2027 2027 2027 2027 2027 2027 2027 2027 2027 
2027 2027 2027 2027 2027 2027 2027 2027 2027 
2027 2027 2027 2027 2027 2027 2027 2027 2027 
2027 2027 2027 2027 2027 2027 2027 2027 2027 
2027 2027 2027 2027 2027 2027 2027 2027 2027 
2027 2027 2027 2027 2027 2027 2027 2027 2027 
2027 2027 2027 2027 2027 2027 2027 2027 2027 
2027 2027 2027 2027 2027 2027 2027 2027 2027 
2027 2027 2027 2027 2027 2027 2027 2027 2027 
2027 2027 2027 2027 2027 2027 2027 2027 2027 
2027 2027 2027 2027 2027 2027 2027 2027 2027 
2027 2027 2027 2027 2027 2027 2027 2027 2027 
2027 2027 2027 2027 2027 2027 2027 2027 2027 
2027 2027 2027 2027 2027 2027 2027 2027 2027 
2027 2027 2027 2027 2027 2027 2027 2027 2027 
2027 2027 2027 2027 2027 2027 2027 2027 2027 
2027 2027 2027 2027 2027 2027 2027 2027 2027 
2027 2027 2027 2027 2027 2027 2027 2027 2027 
2027 2027 2027 2027 2027 2027 2027 2027 2027 
2027 2027 2027 2027 2027 2027 2027 2027 2027 
2027 2027 2027 2027 2027 2027 2027 2027 2027 
2027 2027 2027 2027 2027 2027 2027 2027 2027 
2027 2027 2027 2027 2027 2027 2027 2027 2027 
2027 2027 2027 2027 2027 2027 2027 2027 2027 
2027 2027 2027 2027 2027 2027 2027 2027 2027 
2027 2027 2027 2027 2027 2027 2027 2027 2027 
2027 2027 2027 2027 2027 2027 2027 2027 2027 
2027 2027 2027 2027 2027 2027 2027 2027 2027 
2027 2027 2027 2027 2027 2027 2027 2027 2027 
2027 2027 2027 2027 2027 2027 2027 2027 2027 
2027 2027 2027 2027 2027 2027 2027 2027 2027 
2027 2027 2027 2027 2027 2027 2027 2027 2027 
2027 2027 2027 2027 2027 2027 2027 2027 2027 
2027 2027 2027 2027 2027 2027 2027 2027 2027 
2027 2027 2027 2027 2027 2027 2027 2027 2027 
2027 2027 2027 2027 2027 2027 2027 2027 2027 
2027 2027 2027 2027 2027 2027 2027 2027 2027 
2027 2027 2027 2027 2027 2027 2027 2027 2027 
2027 2027 2027 2027 2027 2027 2027 2027 2027 
2027 2027 2027 2027 2027 2027 2027 2027 2027 
2027 2027 2027 2027 2027 2027 2027 2027 2027 
2027 2027 2027 2027 2027 2027 2027 2027 2027 
2027 2027 2027 2027 2027 2027 2027 2027 2027 
2027 2027 2027 2027 2027 2027 2027 2027 2027 
2027 2027 2027 2027 2027 2027 2027 2027 2027 
2027 2027 2027 2027 2027 2027 2027 2027 2027 
2027 2027 2027 2027 2027 2027 2027 2027 2027 
2027 2027 2027 2027 2027 2027 2027 2027 2027 
2027 2027 2027 2027 2027 2027 2027 2027 2027 
2027 2027 2027 2027 2027 2027 2027 2027 2027 
2027 2027 2027 2027 2027 2027 2027 2027 2027 
2027 2027 2027 2027 2027 2027 2027 2027 2027 
2027 2027 2027 2027 2027 2027 2027 2027 2027 
2027 2027 2027 2027 2027 2027 2027 2027 2027 
2027 2027 2027 2027 2027 2027 2027 2027 2027 
2027 2027 2027 2027 2027 2027 2027 2027 2027 
2027 2027 2027 2027 2027 2027 2027 2027 2027 
2027 2027 2027 2027 2027 2027 2027 2027 2027 
2027 2027 2027 2027 2027 2027 2027 2027 2027 
2027 2027 2027 2027 2027 2027 2027 2027 2027 
2027 2027 2027 2027 2027 2027 2027 2027 2027 
2027 2027 2027 2027 2027 2027 2027 2027 2027 
2027 2027 2027 2027 2027 2027 2027 2027 2027 
2027 2027 2027 2027 2027 2027 2027 2027 2027 
2027 2027 2027 2027 2027 2027 2027 2027 2027 
2027 2027 2027 2027 2027 2027 2027 2027 2027 
2027 2027 2027 2027 2027 2027 2027 2027 2027 
2027 2027 2027 2027 2027 2027 2027 2027 2027 
2027 2027 2027 2027 2027 2027 2027 2027 2027 
2027 2027 2027 2027 2027 2027 2027 2027 2027 
2027 2027 2027 2027 2027 2027 2027 2027 2027 
2027 2027 2027 2027 2027 2027 2027 2027 2027 
2027 2027 2027 2027 2027 2027 2027 2027 2027 
2027 2027 2027 2027 2027 2027 2027 2027 2027 
2027 2027 2027 2027 2027 2027 2027 2027 2027 
2027 2027 2027 2027 2027 2027 2027 2027 2027 
2027 2027 2027 2027 2027 2027 2027 2027 2027 
2027 2027 2027 2027 2027 2027 2027 2027 2027 
2027 2027 2027 2027 2027 2027 2027 2027 2027 
2027 2027 2027 2027 2027 2027 2027 2027 2027 
2027 2027 2027 2027 2027 2027 2027 2027 2027 
2027 2027 2027 2027 2027 2027 2027 2027 2027 
2027 2027 2027 2027 2027 2027 2027 2027 2027 
2027 2027 2027 2027 2027 2027 2027 2027 2027 
2027 2027 2027 2027 2027 2027 2027 2027 2027 
2027 2027 2027 2027 2027 2027 2027 2027 2027 
2027 2027 2027 2027 2027 2027 2027 2027 2027 
2027 2027 2027 2027 2027 2027 2027 2027 2027 
2027 2027 2027 2027 2027 2027 2027 2027 2027 
2027 2027 2027 2027 2027 2027 2027 2027 2027 
2027 2027 2027 2027 2027 2027 2027 2027 2027 
2027 2027 2027 2027 2027 2027 2027 2027 2027 
2027 2027 2027 2027 2027 2027 2027 2027 2027 
2027 2027 2027 2027 2027 2027 2027 2027 2027 
2027 2027 2027 2027 2027 2027 2027 2027 2027 
2027 2027 2027 2027 2027 2027 2027 2027 2027 
2027 2027 2027 2027 2027 2027 2027 2027 2027 
2027 2027 2027 2027 2027 2027 2027 2027 2027 
2027 2027 2027 2027 2027 2027 2027 2027 2027 
2027 2027 2027 2027 2027 2027 2027 2027 2027 
2027 2027 2027 2027 2027 2027 2027 2027 2027 
2027 2027 2027 2027 2027 2027 2027 2027 2027 
2027 2027 2027 2027 2027 2027 2027 2027 2027 
2027 2027 2027 2027 2027 2027 2027 2027 2027 
2027 2027 2027 2027 2027 2027 2027 2027 2027 
2027 2027 2027 2027 2027 2027 2027 2027 2027 
2027 2027 2027 2027 2027 2027 2027 2027 2027 
2027 2027 2027 2027 2027 2027 2027 2027 2027 
2027 2027 2027 2027 2027 2027 2027 2027 2027 
2027 2027 2027 2027 2027 2027 2027 2027 2027 
2027 2027 2027 2027 2027 2027 2027 2027 2027 
2027 2027 2027 2027 2027 2027 2027 2027 2027 
2027 2027 2027 2027 2027 2027 2027 2027 2027 
2027 2027 2027 2027 2027 2027 2027 2027 2027 
2027 2027 2027 2027 2027 2027 2027 2027 2027 
2027 2027 2027 2027 2027 2027 2027 2027 2027 
2027 2027 2027 2027 2027 2027 2027 2027 2027 
2027 2027 2027 2027 2027 2027 2027 2027 2027 
2027 2027 2027 2027 2027 2027 2027 2027 2027 
2027 2027 2027 2027 2027 2027 2027 2027 2027 
2027 2027 2027 2027 2027 2027 2027 2027 2027 
2027 2027 2027 2027 2027 2027 2027 2027 2027 
2027 2027 2027 2027 2027 2027 2027 2027 2027 
2027 2027 2027 2027 2027 2027 2027 2027 2027 
2027 2027 2027 2027 2027 2027 2027 2027 2027 
2027 2027 2027 2027 2027 2027 2027 2027 2027 
2027 2027 2027 2027 2027 2027 2027 2027 2027 
2027 2027 2027 2027 2027 2027 2027 2027 2027 
2027 2027 2027 2027 2027 2027 2027 2027 2027 
2027 2027 2027 2027 2027 2027 2027 2027 2027 
2027 2027 2027 2027 2027 2027 2027 2027 2027 
2027 2027 2027 2027 2027 2027 2027 2027 2027 
2027 2027 2027 2027 2027 2027 2027 2027 2027 
2027 2027 2027 2027 2027 2027 2027 2027 2027 
2027 2027 2027 2027 2027 2027 2027 2027 2027 
2027 2027 2027 2027 2027 2027 2027 2027 2027 
2027 2027 2027 2027 2027 2027 2027 2027 2027 
2027 2027 2027 2027 2027 2027 2027 2027 2027 
2027 2027 2027 2027 2027 2027 2027 2027 2027 
2027 2027 2027 2027 2027 2027 2027 2027 2027 
2027 2027 2027 2027 2027 2027 2027 2027 2027 
2027 2027 2027 2027 2027 2027 2027 2027 2027 
2027 2027 2027 2027 2027 2027 2027 2027 2027 
2027 2027 2027 2027 2027 2027 2027 2027 2027 
2027 2027 2027 2027 2027 2027 2027 2027 2027 
2027 2027 2027 2027 2027 2027 2027 2027 2027 
2027 2027 2027 2027 2027 2027 2027 2027 2027 
2027 2027 2027 2027 2027 2027 2027 2027 2027 
2027 2027 2027 2027 2027 2027 2027 2027 2027 
2027 2027 2027 2027 2027 2027 2027 2027 2027 
2027 2027 2027 2027 2027 2027 2027 2027 2027 
2027 2027 2027 2027 2027 2027 2027 2027 2027 
2027 2027 2027 2027 2027 2027 2027 2027 2027 
2027 2027 2027 2027 2027 2027 2027 2027 2027 
2027 2027 2027 2027 2027 2027 2027 2027 2027 
2027 2027 2027 2027 2027 2027 2027 2027 2027 
2027 2027 2027 2027 2027 2027 2027 2027 2027 
2027 2027 2027 2027 2027 2027 2027 2027 2027 
2027 2027 2027 2027 2027 2027 2027 2027 2027 
2027 2027 2027 2027 2027 2027 2027 2027 2027 
2027 2027 2027 2027 2027 2027 2027 2027 2027 
2027 2027 2027 2027 2027 2027 2027 2027 2027 
2027 2027 2027 2027 2027 2027 2027 2027 2027 
2027 2027 2027 2027 2027 2027 2027 2027 2027 
2027 2027 2027 2027 2027 2027 2027 2027 2027 
2027 2027 2027 2027 2027 2027 2027 2027 2027 
2027 2027 2027 2027 2027 2027 2027 2027 2027 
2027 2027 2027 2027 2027 2027 2027 2027 2027 
2027 2027 2027 2027 2027 2027 2027 2027 2027 
2027 2027 2027 2027 2027 2027 2027 2027 2027 
2027 2027 2027 2027 2027 2027 2027 2027 2027 
2027 2027 2027 2027 2027 2027 2027 2027 2027 
2027 2027 2027 2027 2027 2027 2027 2027 2027 
2027 2027 2027 2027 2027 2027 2027 2027 2027 
2027 2027 2027 2027 2027 2027 2027 2027 2027 
2027 2027 2027 2027 2027 2027 2027 2027 2027 
2027 2027 2027 2027 2027 2027 2027 2027 2027 
2027 2027 2027 2027 2027 2027 2027 2027 2027 
2027 2027 2027 2027 2027 2027 2027 2027 2027 
2027 2027 2027 2027 2027 2027 2027 2027 2027 
2027 2027 2027 2027 2027 2027 2027 2027 2027 
2027 2027 2027 2027 2027 2027 2027 2027 2027 
2027 2027 2027 2027 2027 2027 2027 2027 2027 
2027 2027 2027 2027 2027 2027 2027 2027 2027 
2027 2027 2027 2027 2027 2027 2027 2027 2027 
2027 2027 2027 2027 2027 2027 2027 2027 2027 
2027 2027 2027 2027 2027 2027 2027 2027 2027 
2027 2027 2027 2027 2027 2027 2027 2027 2027 
2027 2027 2027 2027 2027 2027 2027 2027 2027 
2027 2027 2027 2027 2027 2027 2027 2027 2027 
2027 2027 2027 2027 2027 2027 2027 2027 2027 
2027 2027 2027 2027 2027 2027 2027 2027 2027 
2027 2027 2027 2027 2027 2027 2027 2027 2027 
2027 2027 2027 2027 2027 2027 2027 2027 2027 
2027 2027 2027 2027 2027 2027 2027 2027 2027 
2027 2027 2027 2027 2027 2027 2027 2027 2027 
2027 2027 2027 2027 2027 2027 2027 2027 2027 
2027 2027 2027 2027 2027 2027 2027 2027 2027 
2027 2027 2027 2027 2027 2027 2027 2027 2027 
2027 2027 2027 2027 2027 2027 2027 2027 2027 
2027 2027 2027 2027 2027 2027 2027 2027 2027 
2027 2027 2027 2027 2027 2027 2027 2027 2027 
2027 2027 2027 2027 2027 2027 2027 2027 2027 
2027 2027 2027 2027 2027 2027 2027 2027 2027 
2027 2027 2027 2027 2027 2027 2027 2027 2027 
2027 2027 2027 2027 2027 2027 2027 2027 2027 
2027 2027 2027 2027 2027 2027 2027 2027 2027 
2027 2027 2027 2027 2027 2027 2027 2027 2027 
2027 2027 2027 2027 2027 2027 2027 2027 2027 
2027 2027 2027 2027 2027 2027 2027 2027 2027 
2027 2027 2027 2027 2027 2027 2027 2027 2027 
2027 2027 2027 2027 2027 2027 2027 2027 2027 
2027 2027 2027 2027 2027 2027 2027 2027 2027 
2027 2027 2027 2027 2027 2027 2027 2027 2027 
2027 2027 2027 2027 2027 2027 2027 2027 2027 
2027 2027 2027 2027 2027 2027 2027 2027 2027 
2027 2027 2027 2027 2027 2027 2027 2027 2027 
2027 2027 2027 2027 2027 2027 2027 2027 2027 
2027 2027 2027 2027 2027 2027 2027 2027 2027 
2027 2027 2027 2027 2027 2027 2027 2027 2027 
2027 2027 2027 2027 2027 2027 2027 2027 2027 
2027 2027 2027 2027 2027 2027 2027 2027 2027 
2027 2027 2027 2027 2027 2027 2027 2027 2027 
2027 2027 2027 2027 2027 2027 2027 2027 2027 
2027 2027 2027 2027 2027 2027 2027 2027 2027 
2027 2027 2027 2027 2027 2027 2027 2027 2027 
2027 2027 2027 2027 2027 2027 2027 2027 2027 
2027 2027 2027 2027 2027 2027 2027 2027 2027 
2027 2027 2027 2027 2027 2027 2027 2027 2027 
2027 2027 2027 2027 2027 2027 2027 2027 2027 
2027 2027 2027 2027 2027 2027 2027 2027 2027 
2027 2027 2027 2027 2027 2027 2027 2027 2027 
2027 2027 2027 2027 2027 2027 2027 2027 2027 
2027 2027 2027 2027 2027 2027 2027 2027 2027 
2027 2027 2027 2027 2027 2027 2027 2027 2027 
2027 2027 2027 2027 2027 2027 2027 2027 2027 
2027 2027 2027 2027 2027 2027 2027 2027 2027 
2027 2027 2027 2027 2027 2027 2027 2027 2027 
2027 2027 2027 2027 2027 2027 2027 2027 2027 
2027 2027 2027 2027 2027 2027 2027 2027 2027 
2027 2027 2027 2027 2027 2027 2027 2027 2027 
2027 2027 2027 2027 2027 2027 2027 2027 2027 
2027 2027 2027 2027 2027 2027 2027 2027 2027 
2027 2027 2027 2027 2027 2027 2027 2027 2027 
2027 2027 2027 2027 2027 2027 2027 2027 2027 
2027 2027 2027 2027 2027 2027 2027 2027 2027 
2027 2027 2027 2027 2027 2027 2027 2027 2027 
2027 2027 2027 2027 2027 2027 2027 2027 2027 
2027 2027 2027 2027 2027 2027 2027 2027 2027 
2027 2027 2027 2027 2027 2027 2027 2027 2027 
2027 2027 2027 2027 2027 2027 2027 2027 2027 
2027 2027 2027 2027 2027 2027 2027 2027 2027 
2027 2027 2027 2027 2027 2027 2027 2027 2027 
2027 2027 2027 2027 2027 2027 2027 2027 2027 
2027 2027 2027 2027 2027 2027 2027 2027 2027 
2027 2027 2027 2027 2027 2027 2027 2027 2027 
2027 2027 2027 2027 2027 2027 2027 2027 2027 
2027 2027 2027 2027 2027 2027 2027 2027 2027 
2027 2027 2027 2027 2027 2027 2027 2027 2027 
2027 2027 2027 2027 2027 2027 2027 2027 2027 
2027 2027 2027 2027 2027 2027 2027 2027 2027 
2027 2027 2027 2027 2027 2027 2027 2027 2027 
2027 2027 2027 2027 2027 2027 2027 2027 2027 
2027 2027 2027 2027 2027 2027 2027 2027 2027 
2027 2027 2027 2027 2027 2027 2027 2027 2027 
2027 2027 2027 2027 2027 2027 2027 2027 2027 
2027 2027 2027 2027 2027 2027 2027 2027 2027 
2027 2027 2027 2027 2027 2027 2027 2027 2027 
2027 2027 2027 2027 2027 2027 2027 2027 2027 
2027 2027 2027 2027 2027 2027 2027 2027 2027 
2027 2027 2027 2027 2027 2027 2027 2027 2027 
2027 2027 2027 2027 2027 2027 2027 2027 2027 
2027 2027 2027 2027 2027 2027 2027 2027 2027 
2027 2027 2027 2027 2027 2027 2027 2027 2027 
2027 2027 2027 2027 2027 2027 2027 2027 2027 
2027 2027 2027 2027 2027 2027 2027 2027 2027 
2027 2027 2027 2027 2027 2027 2027 2027 2027 
2027 2027 2027 2027 2027 2027 2027 2027 2027 
2027 2027 2027 2027 2027 2027 2027 2027 2027 
2027 2027 2027 2027 2027 2027 2027 2027 2027 
2027 2027 2027 2027 2027 2027 2027 2027 2027 
2027 2027 2027 2027 2027 2027 2027 2027 2027 
2027 2027 2027 2027 2027 2027 2027 2027 2027 
2027 2027 2027 2027 2027 2027 2027 2027 2027 
2027 2027 2027 2027 2027 2027 2027 2027 2027 
2027 2027 2027 2027 2027 2027 2027 2027 2027 
2027 2027 2027 2027 2027 2027 2027 2027 2027 
2027 2027 2027 2027 2027 2027 2027 2027 2027 
2027 2027 2027 2027 2027 2027 2027 2027 2027 
2027 2027 2027 2027 2027 2027 2027 2027 2027 
2027 2027 2027 2027 2027 2027 2027 2027 2027 
2027 2027 2027 2027 2027 2027 2027 2027 2027 
2027 2027 2027 2027 2027 2027 2027 2027 2027 
2027 2027 2027 2027 2027 2027 2027 2027 2027 
2027 2027 2027 2027 2027 2027 2027 2027 2027 
2027 2027 2027 2027 2027 2027 2027 2027 2027 
2027 2027 2027 2027 2027 2027 2027 2027 2027 
2027 2027 2027 2027 2027 2027 2027 2027 2027 
2027 2027 2027 2027 2027 2027 2027 2027 2027 
2027 2027 2027 2027 2027 2027 2027 2027 2027 
2027 2027 2027 2027 2027 2027 2027 2027 2027 
2027 2027 2027 2027 2027 2027 2027 2027 2027 
2027 2027 2027 2027 2027 2027 2027 2027 2027 
2027 2027 2027 2027 2027 2027 2027 2027 2027 
2027 2027 2027 2027 2027 2027 2027 2027 2027 
2027 2027 2027 2027 2027 2027 2027 2027 2027 
2027 2027 2027 2027 2027 2027 2027 2027 2027 
2027 2027 2027 2027 2027 2027 2027 2027 2027 
2027 2027 2027 2027 2027 2027 2027 2027 2027 
2027 2027 2027 2027 2027 2027 2027 2027 2027 
2027 2027 2027 2027 2027 2027 2027 2027 2027 
2027 2027 2027 2027 2027 2027 2027 2027 2027 
2027 2027 2027 2027 2027 2027 2027 2027 2027 
2027 2027 2027 2027 2027 2027 2027 2027 2027 
2027 2027 2027 2027 2027 2027 2027 2027 2027 
2027 2027 2027 2027 2027 2027 2027 2027 2027 
2027 2027 2027 2027 2027 2027 2027 2027 2027 
2027 2027 2027 2027 2027 2027 2027 2027 2027 
2027 2027 2027 2027 2027 2027 2027 2027 2027 
2027 2027 2027 2027 2027 2027 2027 2027 2027 
2027 2027 2027 2027 2027 2027 2027 2027 2027 
2027 2027 2027 2027 2027 2027 2027 2027 2027 
2027 2027 2027 2027 2027 2027 2027 2027 2027 
2027 2027 2027 2027 2027 2027 2027 2027 2027 
2027 2027 2027 2027 2027 2027 2027 2027 2027 
2027 2027 2027 2027 2027 2027 2027 2027 2027 
2027 2027 2027 2027 2027 2027 2027 2027 2027 
2027 2027 2027 2027 2027 2027 2027 2027 2027 
2027 2027 2027 2027 2027 2027 2027 2027 2027 
2027 2027 2027 2027 2027 2027 2027 2027 2027 
2027 2027 2027 2027 2027 2027 2027 2027 2027 
2027 2027 2027 2027 2027 2027 2027 2027 2027 
2027 2027 2027 2027 2027 2027 2027 2027 2027 
2027 2027 2027 2027 2027 2027 2027 2027 2027 