# vtk DataFile Version 4.2
vtk output
ASCII
DATASET POLYDATA
POINTS 3578 float
63.0656 -5.18389 14.3269 63.2637 -5.79684 14.8175 63.5601 -5.42457 14.3388 
62.7348 -5.58694 14.6643 63.1998 -5.01622 13.5377 63.6957 -5.52117 13.5311 
62.4775 -5.33976 14.1515 62.4981 -5.11021 13.4547 61.9773 -5.49449 13.5869 
63.3593 -5.05883 12.6625 63.8333 -5.68758 12.3094 62.6797 -5.06465 12.3984 
61.8122 -5.64318 12.5346 63.2882 -5.17216 11.7406 63.6146 -5.65748 11.4054 
62.7605 -5.32809 11.5227 62.2586 -5.5632 11.7926 63.0683 -5.69527 11.1348 
63.4049 -6.7996 14.9406 63.8189 -6.24981 14.3353 61.9678 -5.87247 14.3756 
62.5452 -6.28234 14.952 61.0111 -6.09026 14.3657 61.6071 -6.61771 15.0485 
60.1087 -6.14943 14.2627 60.6285 -6.48729 14.9864 59.8882 -6.49302 14.7066 
67.081 -6.13647 13.4176 67.2754 -6.64726 14.0189 67.657 -6.69735 13.5747 
66.1697 -6.10396 13.1903 66.4342 -6.56231 13.7597 65.7207 -6.62672 13.5203 
64.0444 -6.20167 13.3072 61.2755 -5.82417 13.3767 60.4393 -5.95194 13.6289 
59.4538 -6.38137 14.0754 59.627 -6.18761 13.3508 58.8917 -6.73448 13.4043 
67.2833 -6.37201 12.9726 66.8703 -6.72859 12.2608 66.5818 -6.07684 12.7036 
65.3711 -6.39457 13.1203 65.4454 -6.1497 12.5767 64.4408 -6.18646 12.5104 
64.647 -6.48314 13.0767 61.1864 -5.96148 12.5434 60.47 -6.11218 12.696 
59.7166 -6.38194 12.5865 59.2139 -6.59945 12.8318 66.0692 -6.40995 11.9766 
65.0563 -6.45078 11.9287 64.0511 -6.62258 11.8587 63.7439 -6.2022 11.5735 
62.4676 -5.85185 11.2801 61.8758 -6.20736 11.5664 61.0424 -6.52881 11.9273 
60.0798 -6.74366 12.1341 63.2042 -6.39099 11.1087 62.2765 -6.59692 11.0534 
57.1763 -6.05634 10.2854 57.4069 -6.75869 10.8467 57.9715 -6.30259 10.3377 
56.1419 -6.02513 10.5109 56.3185 -6.53815 10.8878 55.3287 -6.09225 10.4476 
55.4868 -6.39496 10.8607 54.3463 -6.15587 10.4942 54.6324 -6.56619 11.012 
53.3509 -6.13588 10.4692 53.5918 -6.37928 11.0027 52.5691 -6.20986 10.3606 
52.4346 -6.57452 10.974 51.9022 -6.53038 10.5056 58.1285 -6.16536 9.73419 
58.4183 -6.3862 9.98954 58.7929 -6.63346 9.57846 57.5085 -6.0568 9.48143 
56.3569 -6.10419 9.71575 55.126 -6.54946 9.91636 55.7341 -6.7422 9.30062 
54.0445 -6.5529 10.1346 53.0805 -6.55489 10.1162 52.1213 -6.67305 10.1538 
58.3219 -6.56175 9.1437 57.2472 -6.54178 8.93077 56.311 -6.59673 8.9472 
61.0008 -7.06173 15.5325 61.3406 -7.8282 15.8328 61.7561 -7.31811 15.4713 
60.0151 -6.94611 15.3888 60.301 -7.62219 15.8917 59.0117 -7.07867 15.3727 
59.3289 -7.61219 15.9052 58.1053 -7.1646 15.2459 58.4049 -7.61768 15.8369 
57.7229 -7.62269 15.593 67.2443 -7.1486 14.4774 67.3489 -7.74743 14.778 
67.7412 -7.20715 14.2708 66.7782 -7.62885 14.6116 64.2548 -7.05914 14.3941 
64.183 -7.66457 14.7936 64.7622 -7.56722 14.304 63.5255 -7.73154 15.1701 
62.5346 -7.23597 15.2394 59.1813 -6.75099 14.4839 58.3104 -6.93043 14.4797 
57.4303 -7.38322 15.0672 57.4687 -7.1287 14.4001 56.9354 -7.50219 14.5344 
67.81 -7.67746 13.6292 66.4335 -7.34945 14.1911 64.9419 -6.98184 13.6781 
65.5049 -7.44886 13.9816 64.2949 -6.74791 13.765 58.3823 -6.94618 13.7015 
57.6226 -7.14578 13.5826 56.8816 -7.44721 13.7365 67.3244 -7.31871 12.9495 
66.8198 -7.52359 12.4198 59.4263 -6.85766 12.3663 58.8545 -7.201 12.6084 
58.0321 -7.5203 12.9181 57.0665 -7.73361 13.0759 66.4122 -6.92991 11.5454 
66.6184 -7.37781 11.7523 65.6421 -6.93251 11.3836 64.6455 -7.07242 11.4412 
63.8651 -7.36953 11.5547 63.4323 -7.37738 11.6498 63.3124 -6.9957 11.4466 
63.0337 -7.68361 11.3689 61.4559 -6.90576 11.327 60.8672 -7.33693 11.4637 
60.1825 -7.55439 11.765 59.2576 -7.6014 12.1092 54.0058 -7.00286 11.5308 
54.2051 -7.84021 11.8472 54.6815 -7.37314 11.4586 53.0515 -6.91563 11.5284 
53.3263 -7.63031 11.9442 52.3897 -7.0553 11.5254 52.3743 -7.62623 11.8679 
51.7716 -7.45955 11.5317 66.0782 -7.50642 11.1767 65.1176 -7.65299 11.0275 
64.0854 -7.78547 11.164 62.4367 -7.59271 11.0501 61.2392 -7.64111 11.0945 
58.4757 -6.79591 10.3332 58.021 -7.54686 10.8046 58.8209 -7.34461 10.3607 
57.1658 -7.63808 11.0445 56.34 -7.46687 11.057 55.3476 -7.3086 11.1435 
51.232 -6.97542 10.4472 51.3879 -7.13398 10.9839 50.5297 -7.28702 10.4149 
50.3598 -7.64787 11.0072 49.8778 -7.61753 10.5811 59.2472 -7.16052 9.7662 
59.2406 -7.83531 9.93128 59.6225 -7.72588 9.40522 55.319 -7.02504 9.52357 
54.8905 -7.32975 9.60688 54.2494 -7.34911 9.81316 53.2802 -7.55916 9.92242 
52.3367 -7.50306 10.0162 51.2039 -7.48243 10.1097 50.2361 -7.62455 10.2373 
49.3893 -7.41415 9.77068 49.4816 -7.7421 9.54644 49.3651 -7.33731 9.5207 
49.1124 -7.46687 9.64278 59.1773 -7.26131 9.16787 58.3207 -7.32768 8.77357 
57.401 -7.1283 8.49626 57.8376 -7.4996 8.44794 56.6081 -7.02933 8.44209 
55.8286 -7.21538 8.64733 55.2205 -7.42906 9.13079 49.0535 -7.70228 9.26597 
57.276 -7.66602 8.02898 56.1941 -7.54352 8.08404 63.0033 -8.03588 15.5314 
63.1947 -8.83043 15.7935 63.6978 -8.43178 15.4324 62.2369 -7.7938 15.5976 
62.1888 -8.51728 15.8751 61.143 -8.66616 15.9845 60.4744 -8.36485 16.0097 
59.5749 -8.52461 16.1336 58.5711 -8.34917 16.1501 56.941 -7.91456 15.3291 
57.5857 -8.31748 16.0265 56.1101 -8.18186 15.4469 56.5376 -8.49372 16.0226 
55.5088 -8.29565 15.2173 55.6279 -8.51086 15.9616 55.024 -8.58141 15.6754 
67.3006 -8.72032 14.9251 67.8137 -8.17259 14.3879 66.1714 -8.08604 14.4387 
66.4587 -8.46095 14.8447 65.7089 -8.69777 14.5367 64.3734 -8.67933 14.9914 
64.8751 -8.22736 14.4606 56.2591 -7.96988 14.422 55.5759 -8.41439 14.5076 
55.0756 -8.57611 15.0453 67.7996 -8.78174 13.6097 65.571 -8.2667 14.2486 
56.4504 -7.95282 13.4064 55.8524 -8.45285 13.7236 67.4198 -8.34214 13.1258 
66.5247 -8.54134 12.963 66.2289 -7.95291 12.3022 65.4058 -8.55809 12.7801 
65.5752 -8.21514 12.1842 64.8691 -8.58504 12.5411 58.4479 -7.88373 12.3777 
57.8553 -8.32679 12.4734 57.1447 -8.55188 12.717 56.2501 -8.61084 13.0513 
66.1166 -7.93188 11.564 65.7114 -8.57136 11.505 65.1647 -8.78481 12.0215 
63.4153 -7.79755 11.4067 60.4622 -7.92161 11.3824 59.9808 -8.42641 11.5296 
59.2992 -8.63751 11.8494 58.2615 -8.62757 12.1363 54.0934 -8.7381 11.8289 
54.7807 -8.18079 11.5119 53.3277 -8.55466 12.0657 52.3054 -8.53091 12.0885 
50.9064 -7.91134 11.5463 51.2917 -8.4644 11.9471 50.326 -8.13005 11.5476 
50.4581 -8.51789 11.8177 49.8797 -8.68168 11.4776 65.4386 -8.42782 11.0166 
64.304 -8.51733 10.9225 63.2235 -8.25224 11.0938 62.3274 -8.79205 11.1304 
61.2734 -8.55095 10.9765 60.4189 -8.59831 11.1603 58.5303 -7.85719 10.4551 
57.9955 -8.34891 10.6105 57.3077 -8.58276 10.8993 56.343 -8.46963 11.0223 
55.2926 -8.53982 11.1295 49.3062 -7.90009 10.1732 49.2709 -8.42808 10.983 
48.0447 -8.13778 10.2335 48.3174 -8.62195 10.846 47.6466 -8.62387 10.6359 
59.1923 -8.80642 9.7996 59.6914 -8.54854 9.28582 58.4926 -8.52706 10.2027 
54.3352 -7.8495 9.14626 53.4309 -8.04118 9.41898 52.7818 -8.40141 9.56477 
52.2566 -8.438 9.83501 51.3399 -8.42362 9.895 50.3806 -8.25288 9.94845 
49.754 -8.45628 9.50223 48.341 -7.85232 9.46891 47.3618 -8.36741 10.1102 
47.3828 -8.13092 9.4292 46.9249 -8.70882 9.71422 59.2793 -8.12905 8.9032 
58.3769 -8.00187 8.45168 58.9307 -8.50305 8.48598 55.2884 -7.83021 8.31017 
54.4348 -8.16098 8.21879 53.5863 -8.25895 8.6447 52.8265 -8.52882 8.879 
49.1667 -8.37329 8.98499 48.3299 -8.24309 8.81722 47.7663 -8.50254 8.43713 
47.5111 -8.22095 8.72594 46.9053 -8.69497 8.66529 58.2016 -8.70108 7.84923 
57.4242 -8.15028 7.46826 57.6592 -8.46596 7.3931 56.4098 -8.00413 7.511 
55.3571 -8.2111 7.51939 54.8485 -8.43251 7.57367 54.3017 -8.67155 7.95116 
53.3116 -8.6914 8.13825 47.4079 -8.78057 8.09034 57.1361 -8.37231 7.20433 
56.3318 -8.49272 7.16587 55.5352 -8.57459 7.22668 47.2488 -8.32156 6.51131 
47.3463 -8.62013 6.93129 47.526 -8.81195 6.3829 47.0149 -8.73888 6.60184 
47.19 -8.57421 6.06009 59.3163 -8.314 4.49769 59.1395 -8.63731 4.74486 
59.7323 -8.59191 4.70929 58.9118 -8.57412 4.52152 49.339 -8.35682 4.50437 
49.2679 -8.81628 4.69106 49.5897 -8.70316 4.22402 48.9276 -8.60434 4.59003 
46.2692 -8.2748 4.34297 46.2961 -8.44206 4.63231 46.4627 -8.52573 4.26009 
46.1147 -8.44397 4.49596 59.4921 -8.61877 4.23849 58.0652 -8.69965 3.90615 
58.5751 -8.50342 3.62123 58.2875 -8.33046 3.49188 57.9114 -8.59492 3.53692 
49.186 -8.48478 4.24729 48.2997 -8.4448 3.72341 48.5736 -8.52369 3.60028 
48.3401 -8.37375 3.46319 48.0831 -8.54354 3.58394 46.3408 -8.28894 3.79613 
46.5832 -8.64519 3.49928 45.8924 -8.57066 3.9002 58.4614 -8.65358 3.20204 
57.1404 -8.6859 2.90882 57.6811 -8.62914 2.55824 57.3242 -8.35447 2.51171 
56.886 -8.69223 2.36589 48.4561 -8.69766 3.20811 46.0763 -8.53185 3.24475 
57.4543 -8.64242 2.22377 48.3506 -8.3113 1.36521 48.4615 -8.55156 1.7914 
48.6208 -8.76413 1.45525 48.0625 -8.48577 1.53345 48.1029 -8.69043 1.13271 
56.0853 -9.16748 17.3022 56.3835 -9.81877 17.8428 56.901 -9.4245 17.3608 
54.9875 -9.10096 17.4032 55.3303 -9.61931 17.9065 54.0829 -9.16837 17.2846 
54.3941 -9.60731 17.8531 53.7252 -9.62415 17.6127 58.9335 -9.0706 16.4755 
59.4853 -9.7853 16.7657 59.6552 -9.34944 16.4045 58.0342 -8.9952 16.5152 
58.5875 -9.67415 16.9842 57.0282 -8.99621 16.6899 57.6279 -9.48508 17.0865 
56.1207 -8.83204 16.5453 55.2111 -8.838 16.5008 54.2707 -8.95618 16.5114 
53.4285 -9.40165 17.1096 53.4298 -9.17303 16.4653 52.9129 -9.53258 16.6065 
63.2048 -9.78007 15.8613 63.8607 -9.24864 15.5043 62.3552 -9.53289 15.9975 
61.4669 -9.35765 16.0069 60.4718 -9.44197 16.1512 54.5518 -8.85703 15.4298 
53.6183 -9.15299 15.4223 52.8261 -9.47862 15.8008 67.286 -9.76779 14.9503 
67.8075 -9.2482 14.3799 66.3908 -9.48851 15.0623 65.1345 -8.8231 14.5494 
65.2659 -9.39931 14.8942 64.3427 -9.66707 15.1657 55.1189 -8.77755 14.3613 
54.4199 -9.16509 14.3487 53.6934 -9.42282 14.584 53.0927 -9.51862 15.0295 
67.791 -9.85765 13.5962 66.1576 -9.24753 13.4474 66.6645 -9.44241 13.3672 
66.2574 -9.86575 13.7118 65.6937 -9.6377 13.6353 55.3164 -8.98804 13.5405 
54.8376 -9.48864 13.5704 54.1316 -9.8139 13.9799 67.283 -9.43272 13.169 
65.5 -9.1823 13.2471 64.6016 -9.24103 12.9686 64.4507 -9.00124 12.4413 
63.9875 -9.67107 12.6773 57.4538 -8.93006 12.37 56.9566 -9.42061 12.5021 
56.308 -9.63227 12.8164 55.467 -9.53324 13.1251 65.2515 -9.75226 11.8526 
[...]
CELL_DATA 7196
SCALARS scalars float
LOOKUP_TABLE default
2001 2001 2001 2001 2001 2001 2001 2001 2001 
2001 2001 2001 2001 2001 2001 2001 2001 2001 
2001 2001 2001 2001 2001 2001 2001 2001 2001 
2001 2001 2001 2001 2001 2001 2001 2001 2001 
2001 2001 2001 2001 2001 2001 2001 2001 2001 
2001 2001 2001 2001 2001 2001 2001 2001 2001 
2001 2001 2001 2001 2001 2001 2001 2001 2001 
2001 2001 2001 2001 2001 2001 2001 2001 2001 
2001 2001 2001 2001 2001 2001 2001 2001 2001 
2001 2001 2001 2001 2001 2001 2001 2001 2001 
2001 2001 2001 2001 2001 2001 2001 2001 2001 
2001 2001 2001 2001 2001 2001 2001 2001 2001 
2001 2001 2001 2001 2001 2001 2001 2001 2001 
2001 2001 2001 2001 2001 2001 2001 2001 2001 
2001 2001 2001 2001 2001 2001 2001 2001 2001 
2001 2001 2001 2001 2001 2001 2001 2001 2001 
2001 2001 2001 2001 2001 2001 2001 2001 2001 
2001 2001 2001 2001 2001 2001 2001 2001 2001 
2001 2001 2001 2001 2001 2001 2001 2001 2001 
2001 2001 2001 2001 2001 2001 2001 2001 2001 
2001 2001 2001 2001 2001 2001 2001 2001 2001 
2001 2001 2001 2001 2001 2001 2001 2001 2001 
2001 2001 2001 2001 2001 2001 2001 2001 2001 
2001 2001 2001 2001 2001 2001 2001 2001 2001 
2001 2001 2001 2001 2001 2001 2001 2001 2001 
2001 2001 2001 2001 2001 2001 2001 2001 2001 
2001 2001 2001 2001 2001 2001 2001 2001 2001 
2001 2001 2001 2001 2001 2001 2001 2001 2001 
2001 2001 2001 2001 2001 2001 2001 2001 2001 
2001 2001 2001 2001 2001 2001 2001 2001 2001 
2001 2001 2001 2001 2001 2001 2001 2001 2001 
2001 2001 2001 2001 2001 2001 2001 2001 2001 
2001 2001 2001 2001 2001 2001 2001 2001 2001 
2001 2001 2001 2001 2001 2001 2001 2001 2001 
2001 2001 2001 2001 2001 2001 2001 2001 2001 
2001 2001 2001 2001 2001 2001 2001 2001 2001 
2001 2001 2001 2001 2001 2001 2001 2001 2001 
2001 2001 2001 2001 2001 2001 2001 2001 2001 
2001 2001 2001 2001 2001 2001 2001 2001 2001 
2001 2001 2001 2001 2001 2001 2001 2001 2001 
2001 2001 2001 2001 2001 2001 2001 2001 2001 
2001 2001 2001 2001 2001 2001 2001 2001 2001 
2001 2001 2001 2001 2001 2001 2001 2001 2001 
2001 2001 2001 2001 2001 2001 2001 2001 2001 
2001 2001 2001 2001 2001 2001 2001 2001 2001 
2001 2001 2001 2001 2001 2001 2001 2001 2001 
2001 2001 2001 2001 2001 2001 2001 2001 2001 
2001 2001 2001 2001 2001 2001 2001 2001 2001 
2001 2001 2001 2001 2001 2001 2001 2001 2001 
2001 2001 2001 2001 2001 2001 2001 2001 2001 
2001 2001 2001 2001 2001 2001 2001 2001 2001 
2001 2001 2001 2001 2001 2001 2001 2001 2001 
2001 2001 2001 2001 2001 2001 2001 2001 2001 
2001 2001 2001 2001 2001 2001 2001 2001 2001 
2001 2001 2001 2001 2001 2001 2001 2001 2001 
2001 2001 2001 2001 2001 2001 2001 2001 2001 
2001 2001 2001 2001 2001 2001 2001 2001 2001 
2001 2001 2001 2001 2001 2001 2001 2001 2001 
2001 2001 2001 2001 2001 2001 2001 2001 2001 
2001 2001 2001 2001 2001 2001 2001 2001 2001 
2001 2001 2001 2001 2001 2001 2001 2001 2001 
2001 2001 2001 2001 2001 2001 2001 2001 2001 
2001 2001 2001 2001 2001 2001 2001 2001 2001 
2001 2001 2001 2001 2001 2001 2001 2001 2001 
2001 2001 2001 2001 2001 2001 2001 2001 2001 
2001 2001 2001 2001 2001 2001 2001 2001 2001 
2001 2001 2001 2001 2001 2001 2001 2001 2001 
2001 2001 2001 2001 2001 2001 2001 2001 2001 
2001 2001 2001 2001 2001 2001 2001 2001 2001 
2001 2001 2001 2001 2001 2001 2001 2001 2001 
2001 2001 2001 2001 2001 2001 2001 2001 2001 
2001 2001 2001 2001 2001 2001 2001 2001 2001 
2001 2001 2001 2001 2001 2001 2001 2001 2001 
2001 2001 2001 2001 2001 2001 2001 2001 2001 
2001 2001 2001 2001 2001 2001 2001 2001 2001 
2001 2001 2001 2001 2001 2001 2001 2001 2001 
2001 2001 2001 2001 2001 2001 2001 2001 2001 
2001 2001 2001 2001 2001 2001 2001 2001 2001 
2001 2001 2001 2001 2001 2001 2001 2001 2001 
2001 2001 2001 2001 2001 2001 2001 2001 2001 
2001 2001 2001 2001 2001 2001 2001 2001 2001 
2001 2001 2001 2001 2001 2001 2001 2001 2001 
2001 2001 2001 2001 2001 2001 2001 2001 2001 
2001 2001 2001 2001 2001 2001 2001 2001 2001 
2001 2001 2001 2001 2001 2001 2001 2001 2001 
2001 2001 2001 2001 2001 2001 2001 2001 2001 
2001 2001 2001 2001 2001 2001 2001 2001 2001 
2001 2001 2001 2001 2001 2001 2001 2001 2001 
2001 2001 2001 2001 2001 2001 2001 2001 2001 
2001 2001 2001 2001 2001 2001 2001 2001 2001 
2001 2001 2001 2001 2001 2001 2001 2001 2001 
2001 2001 2001 2001 2001 2001 2001 2001 2001 
2001 2001 2001 2001 2001 2001 2001 2001 2001 
2001 2001 2001 2001 2001 2001 2001 2001 2001 
2001 2001 2001 2001 2001 2001 2001 2001 2001 
2001 2001 2001 2001 2001 2001 2001 2001 2001 
2001 2001 2001 2001 2001 2001 2001 2001 2001 
2001 2001 2001 2001 2001 2001 2001 2001 2001 
2001 2001 2001 2001 2001 2001 2001 2001 2001 
2001 2001 2001 2001 2001 2001 2001 2001 2001 
2001 2001 2001 2001 2001 2001 2001 2001 2001 
2001 2001 2001 2001 2001 2001 2001 2001 2001 
2001 2001 2001 2001 2001 2001 2001 2001 2001 
2001 2001 2001 2001 2001 2001 2001 2001 2001 
2001 2001 2001 2001 2001 2001 2001 2001 2001 
2001 2001 2001 2001 2001 2001 2001 2001 2001 
2001 2001 2001 2001 2001 2001 2001 2001 2001 
2001 2001 2001 2001 2001 2001 2001 2001 2001 
2001 2001 2001 2001 2001 2001 2001 2001 2001 
2001 2001 2001 2001 2001 2001 2001 2001 2001 
2001 2001 2001 2001 2001 2001 2001 2001 2001 
2001 2001 2001 2001 2001 2001 2001 2001 2001 
2001 2001 2001 2001 2001 2001 2001 2001 2001 
2001 2001 2001 2001 2001 2001 2001 2001 2001 
2001 2001 2001 2001 2001 2001 2001 2001 2001 
2001 2001 2001 2001 2001 2001 2001 2001 2001 
2001 2001 2001 2001 2001 2001 2001 2001 2001 
2001 2001 2001 2001 2001 2001 2001 2001 2001 
2001 2001 2001 2001 2001 2001 2001 2001 2001 
2001 2001 2001 2001 2001 2001 2001 2001 2001 
2001 2001 2001 2001 2001 2001 2001 2001 2001 
2001 2001 2001 2001 2001 2001 2001 2001 2001 
2001 2001 2001 2001 2001 2001 2001 2001 2001 
2001 2001 2001 2001 2001 2001 2001 2001 2001 
2001 2001 2001 2001 2001 2001 2001 2001 2001 
2001 2001 2001 2001 2001 2001 2001 2001 2001 
2001 2001 2001 2001 2001 2001 2001 2001 2001 
2001 2001 2001 2001 2001 2001 2001 2001 2001 
2001 2001 2001 2001 2001 2001 2001 2001 2001 
2001 2001 2001 2001 2001 2001 2001 2001 2001 
2001 2001 2001 2001 2001 2001 2001 2001 2001 
2001 2001 2001 2001 2001 2001 2001 2001 2001 
2001 2001 2001 2001 2001 2001 2001 2001 2001 
2001 2001 2001 2001 2001 2001 2001 2001 2001 
2001 2001 2001 2001 2001 2001 2001 2001 2001 
2001 2001 2001 2001 2001 2001 2001 2001 2001 
2001 2001 2001 2001 2001 2001 2001 2001 2001 
2001 2001 2001 2001 2001 2001 2001 2001 2001 
2001 2001 2001 2001 2001 2001 2001 2001 2001 
2001 2001 2001 2001 2001 2001 2001 2001 2001 
2001 2001 2001 2001 2001 2001 2001 2001 2001 
2001 2001 2001 2001 2001 2001 2001 2001 2001 
2001 2001 2001 2001 2001 2001 2001 2001 2001 
2001 2001 2001 2001 2001 2001 2001 2001 2001 
2001 2001 2001 2001 2001 2001 2001 2001 2001 
2001 2001 2001 2001 2001 2001 2001 2001 2001 
2001 2001 2001 2001 2001 2001 2001 2001 2001 
2001 2001 2001 2001 2001 2001 2001 2001 2001 
2001 2001 2001 2001 2001 2001 2001 2001 2001 
2001 2001 2001 2001 2001 2001 2001 2001 2001 
2001 2001 2001 2001 2001 2001 2001 2001 2001 
2001 2001 2001 2001 2001 2001 2001 2001 2001 
2001 2001 2001 2001 2001 2001 2001 2001 2001 
2001 2001 2001 2001 2001 2001 2001 2001 2001 
2001 2001 2001 2001 2001 2001 2001 2001 2001 
2001 2001 2001 2001 2001 2001 2001 2001 2001 
2001 2001 2001 2001 2001 2001 2001 2001 2001 
2001 2001 2001 2001 2001 2001 2001 2001 2001 
2001 2001 2001 2001 2001 2001 2001 2001 2001 
2001 2001 2001 2001 2001 2001 2001 2001 2001 
2001 2001 2001 2001 2001 2001 2001 2001 2001 
2001 2001 2001 2001 2001 2001 2001 2001 2001 
2001 2001 2001 2001 2001 2001 2001 2001 2001 
2001 2001 2001 2001 2001 2001 2001 2001 2001 
2001 2001 2001 2001 2001 2001 2001 2001 2001 
2001 2001 2001 2001 2001 2001 2001 2001 2001 
2001 2001 2001 2001 2001 2001 2001 2001 2001 
2001 2001 2001 2001 2001 2001 2001 2001 2001 
2001 2001 2001 2001 2001 2001 2001 2001 2001 
2001 2001 2001 2001 2001 2001 2001 2001 2001 
2001 2001 2001 2001 2001 2001 2001 2001 2001 
2001 2001 2001 2001 2001 2001 2001 2001 2001 
2001 2001 2001 2001 2001 2001 2001 2001 2001 
2001 2001 2001 2001 2001 2001 2001 2001 2001 
2001 2001 2001 2001 2001 2001 2001 2001 2001 
2001 2001 2001 2001 2001 2001 2001 2001 2001 
2001 2001 2001 2001 2001 2001 2001 2001 2001 
2001 2001 2001 2001 2001 2001 2001 2001 2001 
2001 2001 2001 2001 2001 2001 2001 2001 2001 
2001 2001 2001 2001 2001 2001 2001 2001 2001 
2001 2001 2001 2001 2001 2001 2001 2001 2001 
2001 2001 2001 2001 2001 2001 2001 2001 2001 
2001 2001 2001 2001 2001 2001 2001 2001 2001 
2001 2001 2001 2001 2001 2001 2001 2001 2001 
2001 2001 2001 2001 2001 2001 2001 2001 2001 
2001 2001 2001 2001 2001 2001 2001 2001 2001 
2001 2001 2001 2001 2001 2001 2001 2001 2001 
2001 2001 2001 2001 2001 2001 2001 2001 2001 
2001 2001 2001 2001 2001 2001 2001 2001 2001 
2001 2001 2001 2001 2001 2001 2001 2001 2001 
2001 2001 2001 2001 2001 2001 2001 2001 2001 
2001 2001 2001 2001 2001 2001 2001 2001 2001 
2001 2001 2001 2001 2001 2001 2001 2001 2001 
2001 2001 2001 2001 2001 2001 2001 2001 2001 
2001 2001 2001 2001 2001 2001 2001 2001 2001 
2001 2001 2001 2001 2001 2001 2001 2001 2001 
2001 2001 2001 2001 2001 2001 2001 2001 2001 
2001 2001 2001 2001 2001 2001 2001 2001 2001 
2001 2001 2001 2001 2001 2001 2001 2001 2001 
2001 2001 2001 2001 2001 2001 2001 2001 2001 
2001 2001 2001 2001 2001 2001 2001 2001 2001 
2001 2001 2001 2001 2001 2001 2001 2001 2001 
2001 2001 2001 2001 2001 2001 2001 2001 2001 
2001 2001 2001 2001 2001 2001 2001 2001 2001 
2001 2001 2001 2001 2001 2001 2001 2001 2001 
2001 2001 2001 2001 2001 2001 2001 2001 2001 
2001 2001 2001 2001 2001 2001 2001 2001 2001 
2001 2001 2001 2001 2001 2001 2001 2001 2001 
2001 2001 2001 2001 2001 2001 2001 2001 2001 
2001 2001 2001 2001 2001 2001 2001 2001 2001 
2001 2001 2001 2001 2001 2001 2001 2001 2001 
2001 2001 2001 2001 2001 2001 2001 2001 2001 
2001 2001 2001 2001 2001 2001 2001 2001 2001 
2001 2001 2001 2001 2001 2001 2001 2001 2001 
2001 2001 2001 2001 2001 2001 2001 2001 2001 
2001 2001 2001 2001 2001 2001 2001 2001 2001 
2001 2001 2001 2001 2001 2001 2001 2001 2001 
2001 2001 2001 2001 2001 2001 2001 2001 2001 
2001 2001 2001 2001 2001 2001 2001 2001 2001 
2001 2001 2001 2001 2001 2001 2001 2001 2001 
2001 2001 2001 2001 2001 2001 2001 2001 2001 
2001 2001 2001 2001 2001 2001 2001 2001 2001 
2001 2001 2001 2001 2001 2001 2001 2001 2001 
2001 2001 2001 2001 2001 2001 2001 2001 2001 
2001 2001 2001 2001 2001 2001 2001 2001 2001 
2001 2001 2001 2001 2001 2001 2001 2001 2001 
2001 2001 2001 2001 2001 2001 2001 2001 2001 
2001 2001 2001 2001 2001 2001 2001 2001 2001 
2001 2001 2001 2001 2001 2001 2001 2001 2001 
2001 2001 2001 2001 2001 2001 2001 2001 2001 
2001 2001 2001 2001 2001 2001 2001 2001 2001 
2001 2001 2001 2001 2001 2001 2001 2001 2001 
2001 2001 2001 2001 2001 2001 2001 2001 2001 
2001 2001 2001 2001 2001 2001 2001 2001 2001 
2001 2001 2001 2001 2001 2001 2001 2001 2001 
2001 2001 2001 2001 2001 2001 2001 2001 2001 
2001 2001 2001 2001 2001 2001 2001 2001 2001 
2001 2001 2001 2001 2001 2001 2001 2001 2001 
2001 2001 2001 2001 2001 2001 2001 2001 2001 
2001 2001 2001 2001 2001 2001 2001 2001 2001 
2001 2001 2001 2001 2001 2001 2001 2001 2001 
2001 2001 2001 2001 2001 2001 2001 2001 2001 
2001 2001 2001 2001 2001 2001 2001 2001 2001 
2001 2001 2001 2001 2001 2001 2001 2001 2001 
2001 2001 2001 2001 2001 2001 2001 2001 2001 
2001 2001 2001 2001 2001 2001 2001 2001 2001 
2001 2001 2001 2001 2001 2001 2001 2001 2001 
2001 2001 2001 2001 2001 2001 2001 2001 2001 
2001 2001 2001 2001 2001 2001 2001 2001 2001 
2001 2001 2001 2001 2001 2001 2001 2001 2001 
2001 2001 2001 2001 2001 2001 2001 2001 2001 
2001 2001 2001 2001 2001 2001 2001 2001 2001 
2001 2001 2001 2001 2001 2001 2001 2001 2001 
2001 2001 2001 2001 2001 2001 2001 2001 2001 
2001 2001 2001 2001 2001 2001 2001 2001 2001 
2001 2001 2001 2001 2001 2001 2001 2001 2001 
2001 2001 2001 2001 2001 2001 2001 2001 2001 
2001 2001 2001 2001 2001 2001 2001 2001 2001 
2001 2001 2001 2001 2001 2001 2001 2001 2001 
2001 2001 2001 2001 2001 2001 2001 2001 2001 
2001 2001 2001 2001 2001 2001 2001 2001 2001 
2001 2001 2001 2001 2001 2001 2001 2001 2001 
2001 2001 2001 2001 2001 2001 2001 2001 2001 
2001 2001 2001 2001 2001 2001 2001 2001 2001 
2001 2001 2001 2001 2001 2001 2001 2001 2001 
2001 2001 2001 2001 2001 2001 2001 2001 2001 
2001 2001 2001 2001 2001 2001 2001 2001 2001 
2001 2001 2001 2001 2001 2001 2001 2001 2001 
2001 2001 2001 2001 2001 2001 2001 2001 2001 
2001 2001 2001 2001 2001 2001 2001 2001 2001 
2001 2001 2001 2001 2001 2001 2001 2001 2001 
2001 2001 2001 2001 2001 2001 2001 2001 2001 
2001 2001 2001 2001 2001 2001 2001 2001 2001 
2001 2001 2001 2001 2001 2001 2001 2001 2001 
2001 2001 2001 2001 2001 2001 2001 2001 2001 
2001 2001 2001 2001 2001 2001 2001 2001 2001 
2001 2001 2001 2001 2001 2001 2001 2001 2001 
2001 2001 2001 2001 2001 2001 2001 2001 2001 
2001 2001 2001 2001 2001 2001 2001 2001 2001 
2001 2001 2001 2001 2001 2001 2001 2001 2001 
2001 2001 2001 2001 2001 2001 2001 2001 2001 
2001 2001 2001 2001 2001 2001 2001 2001 2001 
2001 2001 2001 2001 2001 2001 2001 2001 2001 
2001 2001 2001 2001 2001 2001 2001 2001 2001 
2001 2001 2001 2001 2001 2001 2001 2001 2001 
2001 2001 2001 2001 2001 2001 2001 2001 2001 
2001 2001 2001 2001 2001 2001 2001 2001 2001 
2001 2001 2001 2001 2001 2001 2001 2001 2001 
2001 2001 2001 2001 2001 2001 2001 2001 2001 
2001 2001 2001 2001 2001 2001 2001 2001 2001 
2001 2001 2001 2001 2001 2001 2001 2001 2001 
2001 2001 2001 2001 2001 2001 2001 2001 2001 
2001 2001 2001 2001 2001 2001 2001 2001 2001 
2001 2001 2001 2001 2001 2001 2001 2001 2001 
2001 2001 2001 2001 2001 2001 2001 2001 2001 
2001 2001 2001 2001 2001 2001 2001 2001 2001 
2001 2001 2001 2001 2001 2001 2001 2001 2001 
2001 2001 2001 2001 2001 2001 2001 2001 2001 
2001 2001 2001 2001 2001 2001 2001 2001 2001 
2001 2001 2001 2001 2001 2001 2001 2001 2001 
2001 2001 2001 2001 2001 2001 2001 2001 2001 
2001 2001 2001 2001 2001 2001 2001 2001 2001 
2001 2001 2001 2001 2001 2001 2001 2001 2001 
2001 2001 2001 2001 2001 2001 2001 2001 2001 
2001 2001 2001 2001 2001 2001 2001 2001 2001 
2001 2001 2001 2001 2001 2001 2001 2001 2001 
2001 2001 2001 2001 2001 2001 2001 2001 2001 
2001 2001 2001 2001 2001 2001 2001 2001 2001 
2001 2001 2001 2001 2001 2001 2001 2001 2001 
2001 2001 2001 2001 2001 2001 2001 2001 2001 
2001 2001 2001 2001 2001 2001 2001 2001 2001 
2001 2001 2001 2001 2001 2001 2001 2001 2001 
2001 2001 2001 2001 2001 2001 2001 2001 2001 
2001 2001 2001 2001 2001 2001 2001 2001 2001 
2001 2001 2001 2001 2001 2001 2001 2001 2001 
2001 2001 2001 2001 2001 2001 2001 2001 2001 
2001 2001 2001 2001 2001 2001 2001 2001 2001 
2001 2001 2001 2001 2001 2001 2001 2001 2001 
2001 2001 2001 2001 2001 2001 2001 2001 2001 
2001 2001 2001 2001 2001 2001 2001 2001 2001 
2001 2001 2001 2001 2001 2001 2001 2001 2001 
2001 2001 2001 2001 2001 2001 2001 2001 2001 
2001 2001 2001 2001 2001 2001 2001 2001 2001 
2001 2001 2001 2001 2001 2001 2001 2001 2001 
2001 2001 2001 2001 2001 2001 2001 2001 2001 
2001 2001 2001 2001 2001 2001 2001 2001 2001 
2001 2001 2001 2001 2001 2001 2001 2001 2001 
2001 2001 2001 2001 2001 2001 2001 2001 2001 
2001 2001 2001 2001 2001 2001 2001 2001 2001 
2001 2001 2001 2001 2001 2001 2001 2001 2001 
2001 2001 2001 2001 2001 2001 2001 2001 2001 
2001 2001 2001 2001 2001 2001 2001 2001 2001 
2001 2001 2001 2001 2001 2001 2001 2001 2001 
2001 2001 2001 2001 2001 2001 2001 2001 2001 
2001 2001 2001 2001 2001 2001 2001 2001 2001 
2001 2001 2001 2001 2001 2001 2001 2001 2001 
2001 2001 2001 2001 2001 2001 2001 2001 2001 
2001 2001 2001 2001 2001 2001 2001 2001 2001 
2001 2001 2001 2001 2001 2001 2001 2001 2001 
2001 2001 2001 2001 2001 2001 2001 2001 2001 
2001 2001 2001 2001 2001 2001 2001 2001 2001 
2001 2001 2001 2001 2001 2001 2001 2001 2001 
2001 2001 2001 2001 2001 2001 2001 2001 2001 
2001 2001 2001 2001 2001 2001 2001 2001 2001 
2001 2001 2001 2001 2001 2001 2001 2001 2001 
2001 2001 2001 2001 2001 2001 2001 2001 2001 
2001 2001 2001 2001 2001 2001 2001 2001 2001 
2001 2001 2001 2001 2001 2001 2001 2001 2001 
2001 2001 2001 2001 2001 2001 2001 2001 2001 
2001 2001 2001 2001 2001 2001 2001 2001 2001 
2001 2001 2001 2001 2001 2001 2001 2001 2001 
2001 2001 2001 2001 2001 2001 2001 2001 2001 
2001 2001 2001 2001 2001 2001 2001 2001 2001 
2001 2001 2001 2001 2001 2001 2001 2001 2001 
2001 2001 2001 2001 2001 2001 2001 2001 2001 
2001 2001 2001 2001 2001 2001 2001 2001 2001 
2001 2001 2001 2001 2001 2001 2001 2001 2001 
2001 2001 2001 2001 2001 2001 2001 2001 2001 
2001 2001 2001 2001 2001 2001 2001 2001 2001 
2001 2001 2001 2001 2001 2001 2001 2001 2001 
2001 2001 2001 2001 2001 2001 2001 2001 2001 
2001 2001 2001 2001 2001 2001 2001 2001 2001 
2001 2001 2001 2001 2001 2001 2001 2001 2001 
2001 2001 2001 2001 2001 2001 2001 2001 2001 
2001 2001 2001 2001 2001 2001 2001 2001 2001 
2001 2001 2001 2001 2001 2001 2001 2001 2001 
2001 2001 2001 2001 2001 2001 2001 2001 2001 
2001 2001 2001 2001 2001 2001 2001 2001 2001 
2001 2001 2001 2001 2001 2001 2001 2001 2001 
2001 2001 2001 2001 2001 2001 2001 2001 2001 
2001 2001 2001 2001 2001 2001 2001 2001 2001 
2001 2001 2001 2001 2001 2001 2001 2001 2001 
2001 2001 2001 2001 2001 2001 2001 2001 2001 
2001 2001 2001 2001 2001 2001 2001 2001 2001 
2001 2001 2001 2001 2001 2001 2001 2001 2001 
2001 2001 2001 2001 2001 2001 2001 2001 2001 
2001 2001 2001 2001 2001 2001 2001 2001 2001 
2001 2001 2001 2001 2001 2001 2001 2001 2001 
2001 2001 2001 2001 2001 2001 2001 2001 2001 
2001 2001 2001 2001 2001 2001 2001 2001 2001 
2001 2001 2001 2001 2001 2001 2001 2001 2001 
2001 2001 2001 2001 2001 2001 2001 2001 2001 
2001 2001 2001 2001 2001 2001 2001 2001 2001 
2001 2001 2001 2001 2001 2001 2001 2001 2001 
2001 2001 2001 2001 2001 2001 2001 2001 2001 
2001 2001 2001 2001 2001 2001 2001 2001 2001 
2001 2001 2001 2001 2001 2001 2001 2001 2001 
2001 2001 2001 2001 2001 2001 2001 2001 2001 
2001 2001 2001 2001 2001 2001 2001 2001 2001 
2001 2001 2001 2001 2001 2001 2001 2001 2001 
2001 2001 2001 2001 2001 2001 2001 2001 2001 
2001 2001 2001 2001 2001 2001 2001 2001 2001 
2001 2001 2001 2001 2001 2001 2001 2001 2001 
2001 2001 2001 2001 2001 2001 2001 2001 2001 
2001 2001 2001 2001 2001 2001 2001 2001 2001 
2001 2001 2001 2001 2001 2001 2001 2001 2001 
2001 2001 2001 2001 2001 2001 2001 2001 2001 
2001 2001 2001 2001 2001 2001 2001 2001 2001 
2001 2001 2001 2001 2001 2001 2001 2001 2001 
2001 2001 2001 2001 2001 2001 2001 2001 2001 
2001 2001 2001 2001 2001 2001 2001 2001 2001 
2001 2001 2001 2001 2001 2001 2001 2001 2001 
2001 2001 2001 2001 2001 2001 2001 2001 2001 
2001 2001 2001 2001 2001 2001 2001 2001 2001 
2001 2001 2001 2001 2001 2001 2001 2001 2001 
2001 2001 2001 2001 2001 2001 2001 2001 2001 
2001 2001 2001 2001 2001 2001 2001 2001 2001 
2001 2001 2001 2001 2001 2001 2001 2001 2001 
2001 2001 2001 2001 2001 2001 2001 2001 2001 
2001 2001 2001 2001 2001 2001 2001 2001 2001 
2001 2001 2001 2001 2001 2001 2001 2001 2001 
2001 2001 2001 2001 2001 2001 2001 2001 2001 
2001 2001 2001 2001 2001 2001 2001 2001 2001 
2001 2001 2001 2001 2001 2001 2001 2001 2001 
2001 2001 2001 2001 2001 2001 2001 2001 2001 
2001 2001 2001 2001 2001 2001 2001 2001 2001 
2001 2001 2001 2001 2001 2001 2001 2001 2001 
2001 2001 2001 2001 2001 2001 2001 2001 2001 
2001 2001 2001 2001 2001 2001 2001 2001 2001 
2001 2001 2001 2001 2001 2001 2001 2001 2001 
2001 2001 2001 2001 2001 2001 2001 2001 2001 
2001 2001 2001 2001 2001 2001 2001 2001 2001 
2001 2001 2001 2001 2001 2001 2001 2001 2001 
2001 2001 2001 2001 2001 2001 2001 2001 2001 
2001 2001 2001 2001 2001 2001 2001 2001 2001 
2001 2001 2001 2001 2001 2001 2001 2001 2001 
2001 2001 2001 2001 2001 2001 2001 2001 2001 
2001 2001 2001 2001 2001 2001 2001 2001 2001 
2001 2001 2001 2001 2001 2001 2001 2001 2001 
2001 2001 2001 2001 2001 2001 2001 2001 2001 
2001 2001 2001 2001 2001 2001 2001 2001 2001 
2001 2001 2001 2001 2001 2001 2001 2001 2001 
2001 2001 2001 2001 2001 2001 2001 2001 2001 