# vtk DataFile Version 4.2
vtk output
ASCII
DATASET POLYDATA
POINTS 28094 float
9.9536 5.27223 88.7213 9.50168 5.79662 88.4157 9.24844 5.20076 88.5063 
10.0745 5.69189 88.4158 9.89657 4.48251 88.8829 9.16319 4.24339 88.531 
10.5496 5.12346 88.5567 10.8104 4.38635 88.8379 11.1477 4.64823 88.4273 
9.75077 3.36084 88.941 9.00738 3.39863 88.5742 10.7504 3.4622 89.0448 
11.6007 4.02784 88.5488 11.6253 3.38549 88.8037 12.1235 3.53495 88.4034 
9.02359 2.56039 88.7685 8.51847 2.89767 88.4058 8.41952 2.2947 88.4035 
9.85609 2.30198 89.0319 10.5562 2.57508 89.074 11.4073 2.39863 88.8486 
12.2105 2.76574 88.467 8.80361 1.8642 88.5522 9.22872 1.26014 88.4203 
9.49576 1.684 88.7995 10.5252 1.65005 88.851 11.3134 1.57848 88.5644 
11.9334 2.00847 88.4225 10.0316 0.984363 88.4788 10.838 1.07437 88.4306 
9.86905 7.30065 87.7933 9.60767 7.85294 87.4208 9.09724 7.33154 87.5467 
10.9706 7.40693 87.845 10.4258 8.0528 87.4887 11.9185 7.24404 87.7873 
11.3634 7.99119 87.5017 12.1126 7.66946 87.4404 8.78457 6.53264 87.8174 
8.47074 6.88815 87.4455 8.03438 6.28603 87.5657 9.72166 6.26967 88.0993 
10.7065 6.52768 87.9884 11.729 6.51024 87.9869 12.5747 7.07618 87.5622 
12.7738 6.36019 87.8209 13.1427 6.6426 87.4497 7.99445 5.53155 87.8254 
7.54864 5.99544 87.363 7.37086 5.34431 87.3647 8.85614 5.73447 88.1383 
10.7903 5.47726 88.1616 11.6997 5.51269 87.9967 12.7176 5.46767 87.9795 
13.5541 6.03891 87.5569 13.597 5.4008 87.7741 14.0452 5.55591 87.4206 
7.79669 4.45403 87.8678 7.29257 4.40823 87.394 8.53951 4.77743 88.1512 
11.8591 4.40786 88.1417 12.7686 4.44899 87.9868 13.8142 4.39795 87.8642 
14.3066 4.78732 87.4835 7.54328 3.44598 87.8822 7.02229 3.52959 87.4609 
8.40233 3.64454 88.1824 12.783 3.34638 88.1007 13.7636 3.43037 87.9717 
14.6161 4.025 87.5496 14.6151 3.3796 87.7639 15.1185 3.52508 87.3999 
6.99835 2.52482 87.831 6.60642 3.06277 87.3759 6.35406 2.40149 87.3976 
7.93076 2.51204 88.1066 12.7456 2.1704 88.1143 13.5944 2.59883 87.9932 
14.4259 2.42 87.8094 15.1779 2.7766 87.4644 6.80238 1.47212 87.8686 
6.13837 1.36893 87.4163 7.67848 1.46279 88.0001 8.55258 1.47591 88.1642 
11.8185 1.22056 88.1593 12.8832 1.27825 88.0103 13.7365 1.57698 87.8809 
14.429 1.50855 87.5836 14.9189 2.00857 87.4455 6.81433 0.451659 87.904 
6.15255 0.209591 87.5493 7.71027 0.446328 88.0153 8.69904 0.438196 88.0039 
9.65263 0.462833 88.1086 10.8417 0.431837 88.1151 11.6931 0.462871 88.0104 
12.4323 0.405801 87.8929 13.4105 0.593228 87.8005 14.2498 0.538542 87.3363 
6.82584 -0.564786 87.9186 6.1765 -0.803477 87.533 7.7165 -0.566033 88.0515 
8.73605 -0.573884 88.0155 9.56747 -0.403836 87.9931 10.4217 -0.592231 87.8888 
11.5063 -0.303613 87.8216 12.2903 -0.588829 87.3452 13.0117 -0.134504 87.5262 
13.6868 -0.0614387 87.3814 6.81848 -1.49354 87.8233 6.32763 -1.64567 87.469 
7.52414 -1.38712 88.0249 8.44259 -1.61828 87.9162 9.55799 -1.33705 87.8165 
10.3135 -1.58578 87.3037 11.0119 -1.10383 87.5123 11.6547 -1.01549 87.3607 
6.83037 -2.17087 87.5865 7.26477 -2.73637 87.4187 7.57641 -2.23153 87.7706 
8.31385 -2.42451 87.5646 9.06932 -2.16262 87.4935 9.74061 -2.03636 87.2934 
7.87395 -2.84664 87.3888 10.8196 -3.87122 87.8099 10.7582 -3.32307 87.4096 
10.1494 -3.48369 87.3956 11.2659 -3.33237 87.336 9.98033 -4.30504 87.7758 
9.54568 -4.10945 87.428 9.45783 -4.72565 87.4516 10.5702 -4.56677 87.9042 
11.5991 -3.94475 87.6215 11.3927 -4.48764 87.7871 12.0309 -4.38205 87.4704 
10.0157 -5.01057 87.5564 10.9631 -5.0652 87.5471 11.8249 -4.8892 87.4391 
9.87337 9.30553 86.8336 9.78948 9.91956 86.5078 9.20319 9.47937 86.4874 
10.9691 9.39238 86.8644 10.4761 10.0235 86.4896 11.8922 9.22999 86.7906 
11.6369 10.0143 86.277 12.2997 9.55903 86.354 8.79177 8.49892 86.8306 
8.48884 8.8786 86.4526 8.0481 8.26719 86.5844 9.69723 8.39627 87.1313 
10.6876 8.6777 87.1533 11.7597 8.45849 87.1318 12.5452 9.04672 86.5878 
12.7365 8.34505 86.8486 13.1106 8.62833 86.4588 7.9236 7.63766 86.8007 
7.56625 8.00713 86.3534 7.35739 7.39441 86.3543 8.73977 7.60246 87.1719 
12.818 7.43434 87.1931 13.7478 8.07104 86.3478 13.7757 7.32418 86.8438 
14.2942 7.50241 86.3823 7.79845 6.77902 87.0727 7.25569 6.40239 86.557 
13.8136 6.39721 87.1934 14.7658 7.05285 86.3263 14.7502 6.33751 86.8612 
15.2831 6.53765 86.3785 7.18072 5.4381 86.5241 14.7212 5.34316 87.1295 
15.7679 6.07278 86.3509 15.754 5.34509 86.8457 16.277 5.53346 86.3549 
7.0655 4.4108 86.5772 15.0222 4.26114 87.2006 15.7571 4.44246 87.0249 
16.7472 5.06053 86.3332 16.7821 4.36112 86.833 17.3349 4.54908 86.3673 
6.75096 3.62648 86.9495 6.70655 3.89833 86.1814 6.37645 3.20922 86.7383 
15.7524 3.35329 87.1114 16.5732 3.61884 86.9861 17.6176 4.04611 86.5798 
17.4216 3.37326 86.7728 18.0531 3.63993 86.4419 5.98426 2.44116 86.6451 
15.5725 2.22872 87.1377 16.5473 2.48809 86.8403 17.3571 2.61203 86.5794 
17.9286 3.0531 86.4542 5.72084 1.59076 86.8415 5.6049 2.09432 86.3281 
5.40101 1.41946 86.3514 14.9718 1.23184 87.1931 15.8293 1.40041 86.8786 
16.3603 1.36838 86.4439 16.9031 2.01956 86.4456 5.67958 0.762289 87.0131 
5.31148 0.471026 86.3826 14.828 0.497597 87.0112 15.3874 0.559759 86.8079 
15.956 0.68062 86.4996 5.66582 -0.247458 87.0381 5.17585 -0.64325 86.4218 
12.7995 -0.588169 87.1214 13.378 -0.566592 86.9597 14.1381 -0.375987 86.772 
14.9552 -0.0796997 86.4421 15.6836 0.175168 86.2668 5.76599 -1.41648 87.0319 
5.15591 -1.83511 86.3599 10.9266 -1.69732 87.08 11.7065 -1.68338 87.0171 
12.1992 -1.35234 86.7498 12.9029 -1.06973 86.4021 13.8516 -0.852116 86.1819 
5.79289 -2.46849 86.811 5.35684 -2.75461 86.226 6.55836 -2.49675 87.1889 
8.68519 -2.91952 87.1433 9.71769 -2.72045 87.0322 10.274 -2.39237 86.4561 
10.7052 -2.138 86.3778 11.0142 -2.45037 86.1079 11.5254 -2.57728 86.872 
12.6952 -1.89757 86.4012 12.7755 -2.50745 86.8617 13.9662 -2.64406 86.8775 
13.6781 -2.15738 86.3176 15.0002 -2.6373 86.905 14.7066 -2.16194 86.3253 
16.0063 -2.64028 86.9258 15.704 -2.12618 86.374 16.9283 -2.76074 86.8322 
16.4999 -2.2171 86.5288 17.2616 -2.30085 86.3482 5.82958 -3.10306 86.5841 
6.15049 -3.5241 86.5181 6.61114 -3.41705 86.8311 7.77275 -3.43187 87.0726 
8.72156 -3.56621 86.9756 9.35427 -3.50111 87.1079 10.7398 -2.8556 86.5882 
12.0201 -3.70872 87.23 12.7418 -3.53967 87.0186 13.7297 -3.52305 87.0276 
14.7188 -3.53329 87.0645 15.7171 -3.51282 87.0706 16.5807 -3.38724 87.034 
17.6165 -2.91593 86.5913 17.4246 -3.63895 86.7749 18.0383 -3.34847 86.4502 
6.55803 -4.06465 86.3878 7.13365 -4.9177 86.5288 7.65918 -4.52561 86.874 
8.84386 -4.42296 87.0884 12.5989 -4.69897 87.1031 13.7107 -4.55823 87.0054 
14.7052 -4.56782 87.0214 15.5419 -4.41993 87.0347 16.5296 -4.51357 86.8596 
17.383 -4.41511 86.5546 17.9348 -3.94323 86.4264 7.71594 -5.38457 86.789 
7.32948 -5.49458 86.5564 8.45764 -5.45308 86.8749 9.42846 -5.43877 87.0245 
10.4484 -5.58198 87.0242 11.6294 -5.45571 87.0009 12.5581 -5.54337 86.8167 
13.4531 -5.42288 86.8394 14.4689 -5.44553 86.8414 15.5518 -5.37144 86.8093 
16.3057 -5.44283 86.5451 16.927 -5.01418 86.4357 7.7416 -6.00162 86.4142 
8.93537 -6.12527 86.5265 9.94377 -6.10462 86.4982 10.9555 -6.06816 86.4804 
11.9913 -6.04464 86.4746 13.0109 -6.05137 86.4842 14.0132 -6.08178 86.5001 
15.0102 -6.10091 86.4842 15.818 -5.94768 86.4177 9.82795 10.2917 85.9905 
9.65198 10.8062 85.3926 9.13227 10.2923 85.5634 10.9979 10.5076 85.9676 
10.4709 10.992 85.4684 11.6683 10.4963 85.8489 11.4268 10.9391 85.4753 
12.1131 10.5593 85.5516 7.9067 9.48516 85.7375 7.69468 9.93584 85.2952 
7.39098 9.37807 85.3574 8.67637 9.57383 86.0036 8.37379 10.0415 85.4759 
13.0609 9.27254 86.0835 12.6267 9.98174 85.7659 13.759 9.18909 85.718 
13.4514 9.85619 85.4708 14.0541 9.65259 85.1512 7.82932 8.79031 86.071 
7.27677 8.40605 85.531 13.5994 8.6766 86.0749 14.2358 8.70201 85.4185 
7.1877 7.47148 85.4653 14.7049 7.43234 86.0195 14.5297 7.85723 85.7654 
15.1076 7.53958 85.2502 7.19197 6.5099 85.4784 15.7279 6.4506 86.0301 
15.6471 6.82865 85.5348 16.2314 6.42035 85.4693 7.1937 5.50738 85.4956 
11.7027 5.21315 85.8029 11.3202 5.35127 85.4503 11.7654 5.9681 85.2577 
12.1909 5.43567 85.4367 16.699 5.43006 85.986 16.7242 5.92405 85.4507 
17.184 5.43252 85.4724 19.8899 5.53719 85.6634 19.5755 5.81272 85.4371 
19.3923 5.47861 85.4896 20.49 5.39928 85.6611 20.3461 5.9059 85.5039 
20.9902 5.62697 85.4441 7.06514 4.63065 85.4866 11.5427 4.70342 85.7912 
11.3097 4.43265 85.2144 12.0916 4.79164 85.6247 18.0814 4.30495 86.0617 
17.5647 4.96842 85.7265 18.9302 4.2144 85.7504 18.3922 4.91196 85.442 
19.9334 5.06624 85.4418 19.1369 4.64272 85.3724 20.8423 5.11423 85.4247 
6.70303 3.99874 85.2236 6.18769 3.32572 85.7787 11.7882 4.23876 85.5151 
18.503 3.39742 86.1199 19.5874 4.07313 85.5227 19.4154 3.35382 85.7435 
19.9943 3.62158 85.4224 5.7462 2.68442 85.9043 5.70066 2.94881 85.1579 
5.39398 2.23264 85.6674 10.7255 2.28908 85.7306 10.3856 2.22 85.5625 
10.58 2.66832 85.3135 11.1198 2.64037 85.3378 17.6794 2.34743 86.2128 
18.5784 2.37691 85.8518 19.3917 2.37044 85.3338 19.9174 3.0303 85.4178 
5.07618 1.36142 85.5174 10.6208 1.7265 85.7621 10.2964 1.53158 85.3861 
11.1424 1.79722 85.5651 16.8462 1.42544 86.0339 17.6186 1.59024 85.8335 
18.2511 1.59368 85.5987 18.782 1.82934 85.3917 4.96574 0.260415 85.7663 
10.8225 1.19433 85.511 16.2609 0.450964 85.6135 17.0121 0.90329 85.3421 
17.8642 1.15519 85.2465 4.7505 -0.47726 85.8734 4.59194 0.0457686 85.3573 
4.37843 -0.622594 85.3731 14.5496 -0.621761 86.0485 15.1749 -0.701927 85.3633 
15.6739 -0.23098 85.5362 4.69226 -1.23967 85.9768 4.33694 -1.62942 85.2176 
12.7881 -1.61649 86.0351 13.2436 -1.52328 85.5265 13.8101 -1.23309 85.277 
14.4451 -0.904586 85.456 17.8428 -1.8443 85.8078 17.6258 -1.28494 85.1355 
17.2503 -1.53118 85.5102 18.33 -1.49136 85.3193 4.71111 -2.00255 85.7321 
4.9665 -2.69487 85.4486 10.5495 -2.454 85.5612 10.796 -2.37714 85.5274 
10.8853 -2.60663 85.5459 13.6036 -1.8872 85.5097 14.5184 -2.0308 85.563 
15.4331 -1.89287 85.3394 16.6165 -1.81742 85.7377 18.0483 -2.67192 86.2375 
18.8283 -1.87481 85.4567 18.8904 -2.51531 85.9347 19.7609 -2.74214 85.7724 
19.5177 -2.2186 85.5347 20.2068 -2.54312 85.2392 5.75663 -3.45731 86.1358 
[...]
CELL_DATA 56256
SCALARS scalars float
LOOKUP_TABLE default
1028 1028 1028 1028 1028 1028 1028 1028 1028 
1028 1028 1028 1028 1028 1028 1028 1028 1028 
1028 1028 1028 1028 1028 1028 1028 1028 1028 
1028 1028 1028 1028 1028 1028 1028 1028 1028 
1028 1028 1028 1028 1028 1028 1028 1028 1028 
1028 1028 1028 1028 1028 1028 1028 1028 1028 
1028 1028 1028 1028 1028 1028 1028 1028 1028 
1028 1028 1028 1028 1028 1028 1028 1028 1028 
1028 1028 1028 1028 1028 1028 1028 1028 1028 
1028 1028 1028 1028 1028 1028 1028 1028 1028 
1028 1028 1028 1028 1028 1028 1028 1028 1028 
1028 1028 1028 1028 1028 1028 1028 1028 1028 
1028 1028 1028 1028 1028 1028 1028 1028 1028 
1028 1028 1028 1028 1028 1028 1028 1028 1028 
1028 1028 1028 1028 1028 1028 1028 1028 1028 
1028 1028 1028 1028 1028 1028 1028 1028 1028 
1028 1028 1028 1028 1028 1028 1028 1028 1028 
1028 1028 1028 1028 1028 1028 1028 1028 1028 
1028 1028 1028 1028 1028 1028 1028 1028 1028 
1028 1028 1028 1028 1028 1028 1028 1028 1028 
1028 1028 1028 1028 1028 1028 1028 1028 1028 
1028 1028 1028 1028 1028 1028 1028 1028 1028 
1028 1028 1028 1028 1028 1028 1028 1028 1028 
1028 1028 1028 1028 1028 1028 1028 1028 1028 
1028 1028 1028 1028 1028 1028 1028 1028 1028 
1028 1028 1028 1028 1028 1028 1028 1028 1028 
1028 1028 1028 1028 1028 1028 1028 1028 1028 
1028 1028 1028 1028 1028 1028 1028 1028 1028 
1028 1028 1028 1028 1028 1028 1028 1028 1028 
1028 1028 1028 1028 1028 1028 1028 1028 1028 
1028 1028 1028 1028 1028 1028 1028 1028 1028 
1028 1028 1028 1028 1028 1028 1028 1028 1028 
1028 1028 1028 1028 1028 1028 1028 1028 1028 
1028 1028 1028 1028 1028 1028 1028 1028 1028 
1028 1028 1028 1028 1028 1028 1028 1028 1028 
1028 1028 1028 1028 1028 1028 1028 1028 1028 
1028 1028 1028 1028 1028 1028 1028 1028 1028 
1028 1028 1028 1028 1028 1028 1028 1028 1028 
1028 1028 1028 1028 1028 1028 1028 1028 1028 
1028 1028 1028 1028 1028 1028 1028 1028 1028 
1028 1028 1028 1028 1028 1028 1028 1028 1028 
1028 1028 1028 1028 1028 1028 1028 1028 1028 
1028 1028 1028 1028 1028 1028 1028 1028 1028 
1028 1028 1028 1028 1028 1028 1028 1028 1028 
1028 1028 1028 1028 1028 1028 1028 1028 1028 
1028 1028 1028 1028 1028 1028 1028 1028 1028 
1028 1028 1028 1028 1028 1028 1028 1028 1028 
1028 1028 1028 1028 1028 1028 1028 1028 1028 
1028 1028 1028 1028 1028 1028 1028 1028 1028 
1028 1028 1028 1028 1028 1028 1028 1028 1028 
1028 1028 1028 1028 1028 1028 1028 1028 1028 
1028 1028 1028 1028 1028 1028 1028 1028 1028 
1028 1028 1028 1028 1028 1028 1028 1028 1028 
1028 1028 1028 1028 1028 1028 1028 1028 1028 
1028 1028 1028 1028 1028 1028 1028 1028 1028 
1028 1028 1028 1028 1028 1028 1028 1028 1028 
1028 1028 1028 1028 1028 1028 1028 1028 1028 
1028 1028 1028 1028 1028 1028 1028 1028 1028 
1028 1028 1028 1028 1028 1028 1028 1028 1028 
1028 1028 1028 1028 1028 1028 1028 1028 1028 
1028 1028 1028 1028 1028 1028 1028 1028 1028 
1028 1028 1028 1028 1028 1028 1028 1028 1028 
1028 1028 1028 1028 1028 1028 1028 1028 1028 
1028 1028 1028 1028 1028 1028 1028 1028 1028 
1028 1028 1028 1028 1028 1028 1028 1028 1028 
1028 1028 1028 1028 1028 1028 1028 1028 1028 
1028 1028 1028 1028 1028 1028 1028 1028 1028 
1028 1028 1028 1028 1028 1028 1028 1028 1028 
1028 1028 1028 1028 1028 1028 1028 1028 1028 
1028 1028 1028 1028 1028 1028 1028 1028 1028 
1028 1028 1028 1028 1028 1028 1028 1028 1028 
1028 1028 1028 1028 1028 1028 1028 1028 1028 
1028 1028 1028 1028 1028 1028 1028 1028 1028 
1028 1028 1028 1028 1028 1028 1028 1028 1028 
1028 1028 1028 1028 1028 1028 1028 1028 1028 
1028 1028 1028 1028 1028 1028 1028 1028 1028 
1028 1028 1028 1028 1028 1028 1028 1028 1028 
1028 1028 1028 1028 1028 1028 1028 1028 1028 
1028 1028 1028 1028 1028 1028 1028 1028 1028 
1028 1028 1028 1028 1028 1028 1028 1028 1028 
1028 1028 1028 1028 1028 1028 1028 1028 1028 
1028 1028 1028 1028 1028 1028 1028 1028 1028 
1028 1028 1028 1028 1028 1028 1028 1028 1028 
1028 1028 1028 1028 1028 1028 1028 1028 1028 
1028 1028 1028 1028 1028 1028 1028 1028 1028 
1028 1028 1028 1028 1028 1028 1028 1028 1028 
1028 1028 1028 1028 1028 1028 1028 1028 1028 
1028 1028 1028 1028 1028 1028 1028 1028 1028 
1028 1028 1028 1028 1028 1028 1028 1028 1028 
1028 1028 1028 1028 1028 1028 1028 1028 1028 
1028 1028 1028 1028 1028 1028 1028 1028 1028 
1028 1028 1028 1028 1028 1028 1028 1028 1028 
1028 1028 1028 1028 1028 1028 1028 1028 1028 
1028 1028 1028 1028 1028 1028 1028 1028 1028 
1028 1028 1028 1028 1028 1028 1028 1028 1028 
1028 1028 1028 1028 1028 1028 1028 1028 1028 
1028 1028 1028 1028 1028 1028 1028 1028 1028 
1028 1028 1028 1028 1028 1028 1028 1028 1028 
1028 1028 1028 1028 1028 1028 1028 1028 1028 
1028 1028 1028 1028 1028 1028 1028 1028 1028 
1028 1028 1028 1028 1028 1028 1028 1028 1028 
1028 1028 1028 1028 1028 1028 1028 1028 1028 
1028 1028 1028 1028 1028 1028 1028 1028 1028 
1028 1028 1028 1028 1028 1028 1028 1028 1028 
1028 1028 1028 1028 1028 1028 1028 1028 1028 
1028 1028 1028 1028 1028 1028 1028 1028 1028 
1028 1028 1028 1028 1028 1028 1028 1028 1028 
1028 1028 1028 1028 1028 1028 1028 1028 1028 
1028 1028 1028 1028 1028 1028 1028 1028 1028 
1028 1028 1028 1028 1028 1028 1028 1028 1028 
1028 1028 1028 1028 1028 1028 1028 1028 1028 
1028 1028 1028 1028 1028 1028 1028 1028 1028 
1028 1028 1028 1028 1028 1028 1028 1028 1028 
1028 1028 1028 1028 1028 1028 1028 1028 1028 
1028 1028 1028 1028 1028 1028 1028 1028 1028 
1028 1028 1028 1028 1028 1028 1028 1028 1028 
1028 1028 1028 1028 1028 1028 1028 1028 1028 
1028 1028 1028 1028 1028 1028 1028 1028 1028 
1028 1028 1028 1028 1028 1028 1028 1028 1028 
1028 1028 1028 1028 1028 1028 1028 1028 1028 
1028 1028 1028 1028 1028 1028 1028 1028 1028 
1028 1028 1028 1028 1028 1028 1028 1028 1028 
1028 1028 1028 1028 1028 1028 1028 1028 1028 
1028 1028 1028 1028 1028 1028 1028 1028 1028 
1028 1028 1028 1028 1028 1028 1028 1028 1028 
1028 1028 1028 1028 1028 1028 1028 1028 1028 
1028 1028 1028 1028 1028 1028 1028 1028 1028 
1028 1028 1028 1028 1028 1028 1028 1028 1028 
1028 1028 1028 1028 1028 1028 1028 1028 1028 
1028 1028 1028 1028 1028 1028 1028 1028 1028 
1028 1028 1028 1028 1028 1028 1028 1028 1028 
1028 1028 1028 1028 1028 1028 1028 1028 1028 
1028 1028 1028 1028 1028 1028 1028 1028 1028 
1028 1028 1028 1028 1028 1028 1028 1028 1028 
1028 1028 1028 1028 1028 1028 1028 1028 1028 
1028 1028 1028 1028 1028 1028 1028 1028 1028 
1028 1028 1028 1028 1028 1028 1028 1028 1028 
1028 1028 1028 1028 1028 1028 1028 1028 1028 
1028 1028 1028 1028 1028 1028 1028 1028 1028 
1028 1028 1028 1028 1028 1028 1028 1028 1028 
1028 1028 1028 1028 1028 1028 1028 1028 1028 
1028 1028 1028 1028 1028 1028 1028 1028 1028 
1028 1028 1028 1028 1028 1028 1028 1028 1028 
1028 1028 1028 1028 1028 1028 1028 1028 1028 
1028 1028 1028 1028 1028 1028 1028 1028 1028 
1028 1028 1028 1028 1028 1028 1028 1028 1028 
1028 1028 1028 1028 1028 1028 1028 1028 1028 
1028 1028 1028 1028 1028 1028 1028 1028 1028 
1028 1028 1028 1028 1028 1028 1028 1028 1028 
1028 1028 1028 1028 1028 1028 1028 1028 1028 
1028 1028 1028 1028 1028 1028 1028 1028 1028 
1028 1028 1028 1028 1028 1028 1028 1028 1028 
1028 1028 1028 1028 1028 1028 1028 1028 1028 
1028 1028 1028 1028 1028 1028 1028 1028 1028 
1028 1028 1028 1028 1028 1028 1028 1028 1028 
1028 1028 1028 1028 1028 1028 1028 1028 1028 
1028 1028 1028 1028 1028 1028 1028 1028 1028 
1028 1028 1028 1028 1028 1028 1028 1028 1028 
1028 1028 1028 1028 1028 1028 1028 1028 1028 
1028 1028 1028 1028 1028 1028 1028 1028 1028 
1028 1028 1028 1028 1028 1028 1028 1028 1028 
1028 1028 1028 1028 1028 1028 1028 1028 1028 
1028 1028 1028 1028 1028 1028 1028 1028 1028 
1028 1028 1028 1028 1028 1028 1028 1028 1028 
1028 1028 1028 1028 1028 1028 1028 1028 1028 
1028 1028 1028 1028 1028 1028 1028 1028 1028 
1028 1028 1028 1028 1028 1028 1028 1028 1028 
1028 1028 1028 1028 1028 1028 1028 1028 1028 
1028 1028 1028 1028 1028 1028 1028 1028 1028 
1028 1028 1028 1028 1028 1028 1028 1028 1028 
1028 1028 1028 1028 1028 1028 1028 1028 1028 
1028 1028 1028 1028 1028 1028 1028 1028 1028 
1028 1028 1028 1028 1028 1028 1028 1028 1028 
1028 1028 1028 1028 1028 1028 1028 1028 1028 
1028 1028 1028 1028 1028 1028 1028 1028 1028 
1028 1028 1028 1028 1028 1028 1028 1028 1028 
1028 1028 1028 1028 1028 1028 1028 1028 1028 
1028 1028 1028 1028 1028 1028 1028 1028 1028 
1028 1028 1028 1028 1028 1028 1028 1028 1028 
1028 1028 1028 1028 1028 1028 1028 1028 1028 
1028 1028 1028 1028 1028 1028 1028 1028 1028 
1028 1028 1028 1028 1028 1028 1028 1028 1028 
1028 1028 1028 1028 1028 1028 1028 1028 1028 
1028 1028 1028 1028 1028 1028 1028 1028 1028 
1028 1028 1028 1028 1028 1028 1028 1028 1028 
1028 1028 1028 1028 1028 1028 1028 1028 1028 
1028 1028 1028 1028 1028 1028 1028 1028 1028 
1028 1028 1028 1028 1028 1028 1028 1028 1028 
1028 1028 1028 1028 1028 1028 1028 1028 1028 
1028 1028 1028 1028 1028 1028 1028 1028 1028 
1028 1028 1028 1028 1028 1028 1028 1028 1028 
1028 1028 1028 1028 1028 1028 1028 1028 1028 
1028 1028 1028 1028 1028 1028 1028 1028 1028 
1028 1028 1028 1028 1028 1028 1028 1028 1028 
1028 1028 1028 1028 1028 1028 1028 1028 1028 
1028 1028 1028 1028 1028 1028 1028 1028 1028 
1028 1028 1028 1028 1028 1028 1028 1028 1028 
1028 1028 1028 1028 1028 1028 1028 1028 1028 
1028 1028 1028 1028 1028 1028 1028 1028 1028 
1028 1028 1028 1028 1028 1028 1028 1028 1028 
1028 1028 1028 1028 1028 1028 1028 1028 1028 
1028 1028 1028 1028 1028 1028 1028 1028 1028 
1028 1028 1028 1028 1028 1028 1028 1028 1028 
1028 1028 1028 1028 1028 1028 1028 1028 1028 
1028 1028 1028 1028 1028 1028 1028 1028 1028 
1028 1028 1028 1028 1028 1028 1028 1028 1028 
1028 1028 1028 1028 1028 1028 1028 1028 1028 
1028 1028 1028 1028 1028 1028 1028 1028 1028 
1028 1028 1028 1028 1028 1028 1028 1028 1028 
1028 1028 1028 1028 1028 1028 1028 1028 1028 
1028 1028 1028 1028 1028 1028 1028 1028 1028 
1028 1028 1028 1028 1028 1028 1028 1028 1028 
1028 1028 1028 1028 1028 1028 1028 1028 1028 
1028 1028 1028 1028 1028 1028 1028 1028 1028 
1028 1028 1028 1028 1028 1028 1028 1028 1028 
1028 1028 1028 1028 1028 1028 1028 1028 1028 
1028 1028 1028 1028 1028 1028 1028 1028 1028 
1028 1028 1028 1028 1028 1028 1028 1028 1028 
1028 1028 1028 1028 1028 1028 1028 1028 1028 
1028 1028 1028 1028 1028 1028 1028 1028 1028 
1028 1028 1028 1028 1028 1028 1028 1028 1028 
1028 1028 1028 1028 1028 1028 1028 1028 1028 
1028 1028 1028 1028 1028 1028 1028 1028 1028 
1028 1028 1028 1028 1028 1028 1028 1028 1028 
1028 1028 1028 1028 1028 1028 1028 1028 1028 
1028 1028 1028 1028 1028 1028 1028 1028 1028 
1028 1028 1028 1028 1028 1028 1028 1028 1028 
1028 1028 1028 1028 1028 1028 1028 1028 1028 
1028 1028 1028 1028 1028 1028 1028 1028 1028 
1028 1028 1028 1028 1028 1028 1028 1028 1028 
1028 1028 1028 1028 1028 1028 1028 1028 1028 
1028 1028 1028 1028 1028 1028 1028 1028 1028 
1028 1028 1028 1028 1028 1028 1028 1028 1028 
1028 1028 1028 1028 1028 1028 1028 1028 1028 
1028 1028 1028 1028 1028 1028 1028 1028 1028 
1028 1028 1028 1028 1028 1028 1028 1028 1028 
1028 1028 1028 1028 1028 1028 1028 1028 1028 
1028 1028 1028 1028 1028 1028 1028 1028 1028 
1028 1028 1028 1028 1028 1028 1028 1028 1028 
1028 1028 1028 1028 1028 1028 1028 1028 1028 
1028 1028 1028 1028 1028 1028 1028 1028 1028 
1028 1028 1028 1028 1028 1028 1028 1028 1028 
1028 1028 1028 1028 1028 1028 1028 1028 1028 
1028 1028 1028 1028 1028 1028 1028 1028 1028 
1028 1028 1028 1028 1028 1028 1028 1028 1028 
1028 1028 1028 1028 1028 1028 1028 1028 1028 
1028 1028 1028 1028 1028 1028 1028 1028 1028 
1028 1028 1028 1028 1028 1028 1028 1028 1028 
1028 1028 1028 1028 1028 1028 1028 1028 1028 
1028 1028 1028 1028 1028 1028 1028 1028 1028 
1028 1028 1028 1028 1028 1028 1028 1028 1028 
1028 1028 1028 1028 1028 1028 1028 1028 1028 
1028 1028 1028 1028 1028 1028 1028 1028 1028 
1028 1028 1028 1028 1028 1028 1028 1028 1028 
1028 1028 1028 1028 1028 1028 1028 1028 1028 
1028 1028 1028 1028 1028 1028 1028 1028 1028 
1028 1028 1028 1028 1028 1028 1028 1028 1028 
1028 1028 1028 1028 1028 1028 1028 1028 1028 
1028 1028 1028 1028 1028 1028 1028 1028 1028 
1028 1028 1028 1028 1028 1028 1028 1028 1028 
1028 1028 1028 1028 1028 1028 1028 1028 1028 
1028 1028 1028 1028 1028 1028 1028 1028 1028 
1028 1028 1028 1028 1028 1028 1028 1028 1028 
1028 1028 1028 1028 1028 1028 1028 1028 1028 
1028 1028 1028 1028 1028 1028 1028 1028 1028 
1028 1028 1028 1028 1028 1028 1028 1028 1028 
1028 1028 1028 1028 1028 1028 1028 1028 1028 
1028 1028 1028 1028 1028 1028 1028 1028 1028 
1028 1028 1028 1028 1028 1028 1028 1028 1028 
1028 1028 1028 1028 1028 1028 1028 1028 1028 
1028 1028 1028 1028 1028 1028 1028 1028 1028 
1028 1028 1028 1028 1028 1028 1028 1028 1028 
1028 1028 1028 1028 1028 1028 1028 1028 1028 
1028 1028 1028 1028 1028 1028 1028 1028 1028 
1028 1028 1028 1028 1028 1028 1028 1028 1028 
1028 1028 1028 1028 1028 1028 1028 1028 1028 
1028 1028 1028 1028 1028 1028 1028 1028 1028 
1028 1028 1028 1028 1028 1028 1028 1028 1028 
1028 1028 1028 1028 1028 1028 1028 1028 1028 
1028 1028 1028 1028 1028 1028 1028 1028 1028 
1028 1028 1028 1028 1028 1028 1028 1028 1028 
1028 1028 1028 1028 1028 1028 1028 1028 1028 
1028 1028 1028 1028 1028 1028 1028 1028 1028 
1028 1028 1028 1028 1028 1028 1028 1028 1028 
1028 1028 1028 1028 1028 1028 1028 1028 1028 
1028 1028 1028 1028 1028 1028 1028 1028 1028 
1028 1028 1028 1028 1028 1028 1028 1028 1028 
1028 1028 1028 1028 1028 1028 1028 1028 1028 
1028 1028 1028 1028 1028 1028 1028 1028 1028 
1028 1028 1028 1028 1028 1028 1028 1028 1028 
1028 1028 1028 1028 1028 1028 1028 1028 1028 
1028 1028 1028 1028 1028 1028 1028 1028 1028 
1028 1028 1028 1028 1028 1028 1028 1028 1028 
1028 1028 1028 1028 1028 1028 1028 1028 1028 
1028 1028 1028 1028 1028 1028 1028 1028 1028 
1028 1028 1028 1028 1028 1028 1028 1028 1028 
1028 1028 1028 1028 1028 1028 1028 1028 1028 
1028 1028 1028 1028 1028 1028 1028 1028 1028 
1028 1028 1028 1028 1028 1028 1028 1028 1028 
1028 1028 1028 1028 1028 1028 1028 1028 1028 
1028 1028 1028 1028 1028 1028 1028 1028 1028 
1028 1028 1028 1028 1028 1028 1028 1028 1028 
1028 1028 1028 1028 1028 1028 1028 1028 1028 
1028 1028 1028 1028 1028 1028 1028 1028 1028 
1028 1028 1028 1028 1028 1028 1028 1028 1028 
1028 1028 1028 1028 1028 1028 1028 1028 1028 
1028 1028 1028 1028 1028 1028 1028 1028 1028 
1028 1028 1028 1028 1028 1028 1028 1028 1028 
1028 1028 1028 1028 1028 1028 1028 1028 1028 
1028 1028 1028 1028 1028 1028 1028 1028 1028 
1028 1028 1028 1028 1028 1028 1028 1028 1028 
1028 1028 1028 1028 1028 1028 1028 1028 1028 
1028 1028 1028 1028 1028 1028 1028 1028 1028 
1028 1028 1028 1028 1028 1028 1028 1028 1028 
1028 1028 1028 1028 1028 1028 1028 1028 1028 
1028 1028 1028 1028 1028 1028 1028 1028 1028 
1028 1028 1028 1028 1028 1028 1028 1028 1028 
1028 1028 1028 1028 1028 1028 1028 1028 1028 
1028 1028 1028 1028 1028 1028 1028 1028 1028 
1028 1028 1028 1028 1028 1028 1028 1028 1028 
1028 1028 1028 1028 1028 1028 1028 1028 1028 
1028 1028 1028 1028 1028 1028 1028 1028 1028 
1028 1028 1028 1028 1028 1028 1028 1028 1028 
1028 1028 1028 1028 1028 1028 1028 1028 1028 
1028 1028 1028 1028 1028 1028 1028 1028 1028 
1028 1028 1028 1028 1028 1028 1028 1028 1028 
1028 1028 1028 1028 1028 1028 1028 1028 1028 
1028 1028 1028 1028 1028 1028 1028 1028 1028 
1028 1028 1028 1028 1028 1028 1028 1028 1028 
1028 1028 1028 1028 1028 1028 1028 1028 1028 
1028 1028 1028 1028 1028 1028 1028 1028 1028 
1028 1028 1028 1028 1028 1028 1028 1028 1028 
1028 1028 1028 1028 1028 1028 1028 1028 1028 
1028 1028 1028 1028 1028 1028 1028 1028 1028 
1028 1028 1028 1028 1028 1028 1028 1028 1028 
1028 1028 1028 1028 1028 1028 1028 1028 1028 
1028 1028 1028 1028 1028 1028 1028 1028 1028 
1028 1028 1028 1028 1028 1028 1028 1028 1028 
1028 1028 1028 1028 1028 1028 1028 1028 1028 
1028 1028 1028 1028 1028 1028 1028 1028 1028 
1028 1028 1028 1028 1028 1028 1028 1028 1028 
1028 1028 1028 1028 1028 1028 1028 1028 1028 
1028 1028 1028 1028 1028 1028 1028 1028 1028 
1028 1028 1028 1028 1028 1028 1028 1028 1028 
1028 1028 1028 1028 1028 1028 1028 1028 1028 
1028 1028 1028 1028 1028 1028 1028 1028 1028 
1028 1028 1028 1028 1028 1028 1028 1028 1028 
1028 1028 1028 1028 1028 1028 1028 1028 1028 
1028 1028 1028 1028 1028 1028 1028 1028 1028 
1028 1028 1028 1028 1028 1028 1028 1028 1028 
1028 1028 1028 1028 1028 1028 1028 1028 1028 
1028 1028 1028 1028 1028 1028 1028 1028 1028 
1028 1028 1028 1028 1028 1028 1028 1028 1028 
1028 1028 1028 1028 1028 1028 1028 1028 1028 
1028 1028 1028 1028 1028 1028 1028 1028 1028 
1028 1028 1028 1028 1028 1028 1028 1028 1028 
1028 1028 1028 1028 1028 1028 1028 1028 1028 
1028 1028 1028 1028 1028 1028 1028 1028 1028 
1028 1028 1028 1028 1028 1028 1028 1028 1028 
1028 1028 1028 1028 1028 1028 1028 1028 1028 
1028 1028 1028 1028 1028 1028 1028 1028 1028 
1028 1028 1028 1028 1028 1028 1028 1028 1028 
1028 1028 1028 1028 1028 1028 1028 1028 1028 
1028 1028 1028 1028 1028 1028 1028 1028 1028 
1028 1028 1028 1028 1028 1028 1028 1028 1028 
1028 1028 1028 1028 1028 1028 1028 1028 1028 
1028 1028 1028 1028 1028 1028 1028 1028 1028 
1028 1028 1028 1028 1028 1028 1028 1028 1028 
1028 1028 1028 1028 1028 1028 1028 1028 1028 
1028 1028 1028 1028 1028 1028 1028 1028 1028 
1028 1028 1028 1028 1028 1028 1028 1028 1028 
1028 1028 1028 1028 1028 1028 1028 1028 1028 
1028 1028 1028 1028 1028 1028 1028 1028 1028 
1028 1028 1028 1028 1028 1028 1028 1028 1028 
1028 1028 1028 1028 1028 1028 1028 1028 1028 
1028 1028 1028 1028 1028 1028 1028 1028 1028 
1028 1028 1028 1028 1028 1028 1028 1028 1028 
1028 1028 1028 1028 1028 1028 1028 1028 1028 
1028 1028 1028 1028 1028 1028 1028 1028 1028 
1028 1028 1028 1028 1028 1028 1028 1028 1028 
1028 1028 1028 1028 1028 1028 1028 1028 1028 
1028 1028 1028 1028 1028 1028 1028 1028 1028 
1028 1028 1028 1028 1028 1028 1028 1028 1028 
1028 1028 1028 1028 1028 1028 1028 1028 1028 
1028 1028 1028 1028 1028 1028 1028 1028 1028 
1028 1028 1028 1028 1028 1028 1028 1028 1028 
1028 1028 1028 1028 1028 1028 1028 1028 1028 
1028 1028 1028 1028 1028 1028 1028 1028 1028 
1028 1028 1028 1028 1028 1028 1028 1028 1028 
1028 1028 1028 1028 1028 1028 1028 1028 1028 
1028 1028 1028 1028 1028 1028 1028 1028 1028 
1028 1028 1028 1028 1028 1028 1028 1028 1028 
1028 1028 1028 1028 1028 1028 1028 1028 1028 
1028 1028 1028 1028 1028 1028 1028 1028 1028 
1028 1028 1028 1028 1028 1028 1028 1028 1028 
1028 1028 1028 1028 1028 1028 1028 1028 1028 
1028 1028 1028 1028 1028 1028 1028 1028 1028 
1028 1028 1028 1028 1028 1028 1028 1028 1028 
1028 1028 1028 1028 1028 1028 1028 1028 1028 
1028 1028 1028 1028 1028 1028 1028 1028 1028 
1028 1028 1028 1028 1028 1028 1028 1028 1028 
1028 1028 1028 1028 1028 1028 1028 1028 1028 
1028 1028 1028 1028 1028 1028 1028 1028 1028 
1028 1028 1028 1028 1028 1028 1028 1028 1028 
1028 1028 1028 1028 1028 1028 1028 1028 1028 
1028 1028 1028 1028 1028 1028 1028 1028 1028 
1028 1028 1028 1028 1028 1028 1028 1028 1028 
1028 1028 1028 1028 1028 1028 1028 1028 1028 
1028 1028 1028 1028 1028 1028 1028 1028 1028 
1028 1028 1028 1028 1028 1028 1028 1028 1028 
1028 1028 1028 1028 1028 1028 1028 1028 1028 
1028 1028 1028 1028 1028 1028 1028 1028 1028 
1028 1028 1028 1028 1028 1028 1028 1028 1028 
1028 1028 1028 1028 1028 1028 1028 1028 1028 
1028 1028 1028 1028 1028 1028 1028 1028 1028 
1028 1028 1028 1028 1028 1028 1028 1028 1028 
1028 1028 1028 1028 1028 1028 1028 1028 1028 
1028 1028 1028 1028 1028 1028 1028 1028 1028 
1028 1028 1028 1028 1028 1028 1028 1028 1028 
1028 1028 1028 1028 1028 1028 1028 1028 1028 
1028 1028 1028 1028 1028 1028 1028 1028 1028 
1028 1028 1028 1028 1028 1028 1028 1028 1028 
1028 1028 1028 1028 1028 1028 1028 1028 1028 
1028 1028 1028 1028 1028 1028 1028 1028 1028 
1028 1028 1028 1028 1028 1028 1028 1028 1028 
1028 1028 1028 1028 1028 1028 1028 1028 1028 
1028 1028 1028 1028 1028 1028 1028 1028 1028 
1028 1028 1028 1028 1028 1028 1028 1028 1028 
1028 1028 1028 1028 1028 1028 1028 1028 1028 
1028 1028 1028 1028 1028 1028 1028 1028 1028 
1028 1028 1028 1028 1028 1028 1028 1028 1028 
1028 1028 1028 1028 1028 1028 1028 1028 1028 
1028 1028 1028 1028 1028 1028 1028 1028 1028 