# vtk DataFile Version 4.2
vtk output
ASCII
DATASET POLYDATA
POINTS 16774 float
27.6298 -24.2756 -26.5213 27.744 -24.1243 -26.6964 27.9823 -24.2747 -26.7543 
27.3044 -24.3665 -26.5128 27.4077 -24.0491 -26.7412 26.9756 -24.2934 -26.8374 
27.5756 -24.5787 -26.6062 27.1606 -24.6272 -26.705 27.1153 -22.8161 -27.2496 
27.4076 -23.1909 -27.2904 26.9937 -23.1553 -27.0581 26.594 -23.2069 -27.0739 
26.6227 -22.7356 -27.3551 26.2708 -23.0842 -27.3281 28.2865 -23.8709 -27.0731 
28.3998 -23.596 -27.3341 28.6693 -23.7589 -27.3336 28.1072 -23.5785 -27.3865 
27.0958 -23.7065 -26.9856 27.5112 -23.6977 -27.1435 26.7309 -23.5559 -27.0205 
26.2838 -23.5808 -27.2999 28.3811 -24.3104 -26.9769 28.7097 -24.4879 -27.3403 
27.8479 -23.9015 -27.0489 26.6358 -24.0184 -27.2943 26.8053 -24.3881 -27.2237 
28.4084 -24.7791 -27.0891 28.5906 -25.0553 -27.4144 27.9687 -24.7936 -26.925 
27.3701 -24.9232 -26.9634 26.9428 -24.8167 -27.2773 28.2017 -25.1807 -27.3534 
27.6888 -25.1415 -27.2518 27.2425 -25.2373 -27.4233 27.1334 -22.5583 -27.5663 
27.2828 -22.24 -28.0389 27.5571 -22.5386 -27.8382 26.6222 -22.4093 -27.6093 
26.7568 -22.2752 -27.8943 26.3701 -22.5569 -27.8841 28.8692 -23.205 -27.6806 
28.9914 -22.9849 -27.8706 29.1083 -23.189 -27.8137 28.8494 -23.0945 -27.975 
27.8009 -23.0752 -27.653 27.8436 -22.7263 -27.9867 28.0504 -23.0024 -28.0468 
25.9445 -23.2832 -27.591 25.9806 -22.8206 -27.8198 25.6188 -23.0932 -27.9576 
29.0385 -23.5464 -27.6058 29.3208 -23.6873 -27.956 28.4262 -23.3109 -27.8497 
27.7642 -23.5402 -27.3818 25.948 -23.6567 -27.6017 25.6583 -23.5366 -27.8673 
29.0162 -24.0837 -27.5951 29.257 -24.2076 -27.8663 26.8328 -24.3372 -27.7423 
26.5418 -24.0445 -27.9804 25.9687 -23.9118 -27.8539 29.1058 -24.5383 -27.8749 
28.8344 -24.9648 -27.7739 26.7763 -24.9154 -28.0109 28.4744 -25.4153 -27.6396 
28.7153 -25.421 -27.8648 28.168 -25.4683 -27.7707 27.6964 -25.3659 -27.664 
27.253 -25.4879 -27.7437 27.47 -25.5312 -27.8836 26.9538 -25.4574 -27.851 
28.3442 -25.6789 -28.0784 27.2771 -25.7696 -28.0713 27.6956 -22.4011 -28.1524 
27.6107 -22.2484 -28.605 27.9585 -22.6404 -28.3815 27.038 -22.2014 -28.358 
26.7207 -22.5054 -28.1454 26.9689 -22.4651 -28.5414 29.1277 -23.1734 -28.1018 
28.2063 -23.033 -28.4528 27.1706 -22.8167 -28.6576 27.0233 -22.9433 -28.2763 
27.3686 -23.2334 -28.4259 26.6076 -23.0612 -28.2585 25.9755 -22.8054 -28.4931 
26.3472 -23.0621 -28.5258 25.3035 -23.2867 -28.2307 25.4643 -22.877 -28.3637 
25.1408 -23.0788 -28.6307 29.635 -23.7493 -28.2519 29.5286 -23.4905 -28.4872 
29.7877 -23.8422 -28.4889 28.9964 -23.2658 -28.5014 28.51 -23.2575 -28.5139 
27.0345 -23.7311 -28.2579 27.5443 -23.6256 -28.5875 26.775 -23.7056 -28.516 
26.5973 -23.3544 -28.6735 25.422 -23.7219 -28.1694 25.1616 -23.5165 -28.538 
29.551 -24.1617 -28.181 29.8099 -24.3193 -28.6901 27.2309 -24.0044 -28.6289 
26.8989 -24.3314 -28.296 26.5161 -24.0323 -28.5451 26.0771 -24.0391 -28.3891 
25.5436 -23.8972 -28.5305 29.4542 -24.6444 -28.3635 29.1025 -24.9144 -28.1667 
29.3407 -25.1274 -28.595 26.6259 -24.6854 -28.3835 26.5763 -25.047 -28.343 
26.4346 -24.7725 -28.6446 28.9996 -25.3235 -28.2193 29.1869 -25.6496 -28.6579 
27.7882 -25.6046 -28.0233 26.7588 -25.4393 -28.3568 26.5601 -25.1869 -28.6992 
28.8041 -25.7772 -28.3877 28.3173 -25.9214 -28.4982 27.6376 -25.9324 -28.5092 
27.2586 -26.1155 -28.353 27.3359 -26.1692 -28.5013 27.0147 -25.9359 -28.4059 
27.1806 -26.2189 -28.489 31.3884 -22.5232 -28.9811 31.3474 -22.2801 -29.2001 
31.5734 -22.5068 -29.0347 31.14 -22.4768 -29.1459 27.7841 -22.2313 -29.3092 
28.1157 -22.5942 -28.9162 27.2154 -22.2181 -28.951 27.0086 -22.4722 -29.099 
31.4662 -22.6692 -29.1661 28.7814 -23.1309 -28.8748 29.0397 -22.9255 -29.1607 
29.2341 -23.1569 -29.0158 28.3896 -23.0254 -28.8197 28.5805 -22.7826 -29.1203 
27.5259 -23.1983 -28.8641 27.1478 -22.7893 -29.233 25.8711 -22.8194 -29.2763 
26.2802 -23.0625 -28.9413 25.3961 -22.8281 -28.9547 25.1447 -23.1765 -29.0704 
29.6424 -23.3427 -29.0848 29.8405 -23.7671 -28.9387 27.8352 -23.4502 -29.2306 
27.8008 -23.6148 -28.8741 27.9775 -23.8738 -29.196 26.6113 -23.3889 -29.2428 
26.8257 -23.7476 -28.9591 25.2564 -23.6226 -28.8429 25.5232 -23.7646 -29.0406 
25.3033 -23.4348 -29.293 29.8987 -24.1752 -29.2006 27.6316 -23.9787 -29.0637 
27.136 -23.9708 -29.1058 26.7332 -24.2145 -28.6867 26.3258 -24.3912 -28.9595 
25.9669 -24.0216 -29.0769 29.6442 -24.8157 -28.7482 29.8132 -24.8511 -29.2232 
26.3982 -24.8095 -29.064 29.5818 -25.1682 -28.9912 29.4405 -25.5712 -29.0207 
26.8727 -25.5863 -29.0617 26.6241 -25.0995 -29.152 29.0226 -26.0309 -28.7925 
29.2815 -25.9722 -29.0164 28.5837 -26.1248 -28.7878 27.9872 -26.101 -28.839 
27.522 -26.0505 -29.0115 27.2117 -25.9384 -29.0941 27.2062 -26.0336 -28.7076 
28.9893 -26.3531 -29.1783 28.2338 -26.4017 -29.0901 27.7108 -26.2769 -29.1358 
24.7708 -18.3283 -29.5579 24.8681 -18.1556 -29.6526 24.9487 -18.4067 -29.6562 
24.5309 -18.3597 -29.7819 24.7311 -18.582 -29.7071 32.4128 -21.9211 -29.5013 
32.5333 -21.5782 -29.8225 32.7968 -21.7868 -29.8017 31.9044 -21.912 -29.4229 
32.1097 -21.6937 -29.6441 31.5328 -21.9941 -29.3975 31.598 -21.6224 -29.7501 
31.1495 -21.8526 -29.6111 32.6725 -22.2176 -29.732 32.2835 -22.6104 -29.6885 
31.9429 -22.3488 -29.3353 30.781 -22.6613 -29.3682 30.8647 -22.1967 -29.4842 
30.0395 -22.5867 -29.4655 30.3561 -22.1933 -29.6547 29.5011 -22.497 -29.4875 
29.76 -22.1904 -29.6849 28.9327 -22.5652 -29.4124 29.0746 -22.1955 -29.7587 
28.3401 -22.4414 -29.3327 28.3118 -22.238 -29.7272 27.7497 -22.1743 -29.7607 
27.2812 -22.2694 -29.6204 27.0105 -22.5323 -29.5825 31.8554 -22.8479 -29.537 
31.3595 -23.0067 -29.4402 31.6544 -23.2212 -29.6996 30.8761 -23.1114 -29.4806 
30.2225 -23.1173 -29.4651 29.5563 -22.9049 -29.3012 27.4718 -23.0179 -29.6122 
27.1591 -22.6854 -29.7652 25.9581 -22.8348 -29.8422 26.2953 -23.0504 -29.5759 
25.4676 -22.8489 -29.6375 25.2265 -23.1025 -29.5874 31.2141 -23.3786 -29.6806 
30.6183 -23.3989 -29.7982 30.2299 -23.3802 -29.7722 29.9556 -23.6471 -29.6159 
28.0341 -23.729 -29.5494 27.8092 -23.3984 -29.8243 26.6171 -23.3626 -29.881 
26.9181 -23.7048 -29.5398 25.635 -23.6121 -29.647 25.3811 -23.255 -29.781 
29.8791 -24.28 -29.709 27.8845 -24.2252 -29.3847 28.1005 -24.2032 -29.6954 
27.6235 -24.2611 -29.5988 27.2725 -24.0123 -29.7334 26.2927 -24.4225 -29.612 
25.9665 -23.9689 -29.8539 29.9537 -24.9173 -29.8384 27.8711 -24.4784 -29.7944 
26.5439 -24.7829 -29.4562 26.7353 -25.041 -29.5644 26.5666 -24.7155 -29.8067 
29.6583 -25.4531 -29.2851 29.8225 -25.5025 -29.6351 26.7956 -25.4058 -29.6997 
29.5475 -25.9603 -29.4004 29.7989 -26.1408 -29.9081 27.2701 -26.2898 -29.3626 
26.8849 -26.0168 -29.6839 29.4533 -26.4344 -29.6075 28.9797 -26.7534 -29.4728 
29.2677 -26.7956 -29.7227 28.3947 -26.7802 -29.3017 27.7538 -26.6272 -29.2911 
27.3148 -26.84 -29.5045 26.9905 -26.6685 -29.769 28.9198 -27.0563 -29.6478 
28.6342 -27.4074 -29.7086 28.5001 -27.1596 -29.4932 27.8619 -27.1806 -29.464 
27.3782 -27.3756 -29.7814 27.1055 -27.0773 -29.7776 28.1795 -27.5902 -29.6683 
27.7462 -27.6436 -29.7421 25.2334 -17.1808 -30.1189 25.3916 -16.9571 -30.2795 
25.5496 -17.2235 -30.3067 25.2362 -17.0706 -30.3766 25.3838 -17.5436 -30.0487 
25.6288 -17.7463 -30.2673 24.9051 -17.3201 -30.3485 24.7466 -17.7659 -29.9186 
24.1376 -17.8463 -30.0701 24.3623 -17.4225 -30.3463 23.9521 -17.5974 -30.4159 
25.2706 -18.2036 -29.9341 25.7126 -18.3651 -30.3351 24.2175 -18.1915 -29.9755 
23.9384 -18.137 -30.3283 25.4098 -18.788 -30.1189 25.6213 -18.8871 -30.2808 
24.9807 -18.8311 -29.9711 24.5434 -18.8361 -30.1143 24.1811 -18.5768 -30.3486 
26.4582 -19.4675 -30.1254 26.5596 -19.2555 -30.2285 26.7355 -19.5053 -30.3083 
26.1322 -19.5578 -30.1399 26.2258 -19.2466 -30.2235 25.259 -19.2036 -30.3902 
25.8512 -19.4298 -30.2772 24.7645 -19.1313 -30.4037 26.3781 -19.7976 -30.3408 
25.8463 -19.717 -30.4176 32.5311 -21.3179 -30.1394 32.5994 -21.2198 -30.2929 
32.7392 -21.4486 -30.2069 32.4429 -21.256 -30.2975 31.1526 -21.3718 -30.0087 
31.2996 -21.0744 -30.329 31.635 -21.1807 -30.3056 30.6578 -21.418 -30.1033 
30.983 -21.1189 -30.3239 30.6365 -21.2926 -30.3819 32.9957 -21.9092 -30.1966 
32.1826 -21.4082 -30.2498 30.7186 -21.7835 -29.8367 30.196 -21.5277 -30.4195 
30.1247 -21.7903 -29.978 29.4446 -21.8808 -29.9842 29.5732 -21.6404 -30.3567 
28.9603 -21.9156 -30.0939 29.0089 -21.6942 -30.3767 28.6279 -21.8063 -30.4058 
33.0456 -22.4586 -30.0893 33.345 -22.2262 -30.3242 33.3861 -22.5727 -30.3309 
32.592 -22.6428 -29.8943 28.5024 -22.0392 -30.1523 27.7664 -22.1577 -30.178 
27.2165 -22.4347 -29.9738 27.4217 -22.4713 -30.3243 33.1188 -22.8376 -30.2549 
32.8598 -23.2025 -30.3223 32.6408 -23.0275 -30.0996 32.1021 -23.0872 -29.8749 
27.5325 -22.9987 -30.3051 25.8027 -22.8983 -30.1896 26.2534 -23.0336 -30.1518 
25.4276 -22.9948 -29.9883 25.679 -23.2497 -30.3247 32.4884 -23.4729 -30.2552 
32.2135 -23.8327 -30.314 32.1096 -23.5569 -30.1041 31.5695 -23.6277 -29.9684 
30.9709 -23.7018 -30.0338 30.515 -23.6392 -30.2114 30.2 -23.5437 -30.1148 
29.9565 -23.8798 -30.3287 28.0368 -23.7978 -30.0821 27.7747 -23.4087 -30.4634 
26.4992 -23.347 -30.5119 26.9209 -23.7513 -30.2603 25.7369 -23.7311 -30.3086 
31.7854 -24.0003 -30.2676 31.217 -24.0226 -30.3848 30.643 -23.8601 -30.4834 
29.9478 -24.3889 -30.1833 28.2021 -24.2663 -30.2743 27.1606 -24.0933 -30.3511 
27.4428 -24.4002 -30.2488 26.1748 -24.3425 -30.2573 25.9319 -24.045 -30.3453 
30.134 -24.7863 -30.1275 30.1644 -24.609 -30.4965 30.3251 -25.0341 -30.4348 
28.2514 -24.729 -30.0651 28.5734 -25.0765 -30.3685 28.4276 -24.6592 -30.4448 
27.8402 -24.7177 -30.2516 28.0736 -25.0115 -30.3914 26.6158 -25.0549 -29.9804 
26.3924 -24.7339 -30.1934 30.1566 -25.1391 -30.1779 30.0145 -25.6065 -30.1553 
28.3812 -25.1604 -30.3138 26.6054 -25.6113 -30.0186 26.2997 -25.2874 -30.3918 
30.0011 -26.2105 -30.3053 26.6265 -26.1365 -30.0932 26.3182 -25.8938 -30.2925 
29.5637 -26.7347 -29.9204 29.903 -26.7711 -30.2328 26.7771 -26.663 -30.2107 
26.4731 -26.3689 -30.323 29.5425 -27.3023 -30.0639 29.8938 -27.46 -30.2907 
29.0867 -27.2715 -29.8768 27.1422 -27.334 -29.9857 26.9901 -27.1513 -30.1558 
[...]
CELL_DATA 33700
SCALARS scalars float
LOOKUP_TABLE default
2011 2011 2011 2011 2011 2011 2011 2011 2011 
2011 2011 2011 2011 2011 2011 2011 2011 2011 
2011 2011 2011 2011 2011 2011 2011 2011 2011 
2011 2011 2011 2011 2011 2011 2011 2011 2011 
2011 2011 2011 2011 2011 2011 2011 2011 2011 
2011 2011 2011 2011 2011 2011 2011 2011 2011 
2011 2011 2011 2011 2011 2011 2011 2011 2011 
2011 2011 2011 2011 2011 2011 2011 2011 2011 
2011 2011 2011 2011 2011 2011 2011 2011 2011 
2011 2011 2011 2011 2011 2011 2011 2011 2011 
2011 2011 2011 2011 2011 2011 2011 2011 2011 
2011 2011 2011 2011 2011 2011 2011 2011 2011 
2011 2011 2011 2011 2011 2011 2011 2011 2011 
2011 2011 2011 2011 2011 2011 2011 2011 2011 
2011 2011 2011 2011 2011 2011 2011 2011 2011 
2011 2011 2011 2011 2011 2011 2011 2011 2011 
2011 2011 2011 2011 2011 2011 2011 2011 2011 
2011 2011 2011 2011 2011 2011 2011 2011 2011 
2011 2011 2011 2011 2011 2011 2011 2011 2011 
2011 2011 2011 2011 2011 2011 2011 2011 2011 
2011 2011 2011 2011 2011 2011 2011 2011 2011 
2011 2011 2011 2011 2011 2011 2011 2011 2011 
2011 2011 2011 2011 2011 2011 2011 2011 2011 
2011 2011 2011 2011 2011 2011 2011 2011 2011 
2011 2011 2011 2011 2011 2011 2011 2011 2011 
2011 2011 2011 2011 2011 2011 2011 2011 2011 
2011 2011 2011 2011 2011 2011 2011 2011 2011 
2011 2011 2011 2011 2011 2011 2011 2011 2011 
2011 2011 2011 2011 2011 2011 2011 2011 2011 
2011 2011 2011 2011 2011 2011 2011 2011 2011 
2011 2011 2011 2011 2011 2011 2011 2011 2011 
2011 2011 2011 2011 2011 2011 2011 2011 2011 
2011 2011 2011 2011 2011 2011 2011 2011 2011 
2011 2011 2011 2011 2011 2011 2011 2011 2011 
2011 2011 2011 2011 2011 2011 2011 2011 2011 
2011 2011 2011 2011 2011 2011 2011 2011 2011 
2011 2011 2011 2011 2011 2011 2011 2011 2011 
2011 2011 2011 2011 2011 2011 2011 2011 2011 
2011 2011 2011 2011 2011 2011 2011 2011 2011 
2011 2011 2011 2011 2011 2011 2011 2011 2011 
2011 2011 2011 2011 2011 2011 2011 2011 2011 
2011 2011 2011 2011 2011 2011 2011 2011 2011 
2011 2011 2011 2011 2011 2011 2011 2011 2011 
2011 2011 2011 2011 2011 2011 2011 2011 2011 
2011 2011 2011 2011 2011 2011 2011 2011 2011 
2011 2011 2011 2011 2011 2011 2011 2011 2011 
2011 2011 2011 2011 2011 2011 2011 2011 2011 
2011 2011 2011 2011 2011 2011 2011 2011 2011 
2011 2011 2011 2011 2011 2011 2011 2011 2011 
2011 2011 2011 2011 2011 2011 2011 2011 2011 
2011 2011 2011 2011 2011 2011 2011 2011 2011 
2011 2011 2011 2011 2011 2011 2011 2011 2011 
2011 2011 2011 2011 2011 2011 2011 2011 2011 
2011 2011 2011 2011 2011 2011 2011 2011 2011 
2011 2011 2011 2011 2011 2011 2011 2011 2011 
2011 2011 2011 2011 2011 2011 2011 2011 2011 
2011 2011 2011 2011 2011 2011 2011 2011 2011 
2011 2011 2011 2011 2011 2011 2011 2011 2011 
2011 2011 2011 2011 2011 2011 2011 2011 2011 
2011 2011 2011 2011 2011 2011 2011 2011 2011 
2011 2011 2011 2011 2011 2011 2011 2011 2011 
2011 2011 2011 2011 2011 2011 2011 2011 2011 
2011 2011 2011 2011 2011 2011 2011 2011 2011 
2011 2011 2011 2011 2011 2011 2011 2011 2011 
2011 2011 2011 2011 2011 2011 2011 2011 2011 
2011 2011 2011 2011 2011 2011 2011 2011 2011 
2011 2011 2011 2011 2011 2011 2011 2011 2011 
2011 2011 2011 2011 2011 2011 2011 2011 2011 
2011 2011 2011 2011 2011 2011 2011 2011 2011 
2011 2011 2011 2011 2011 2011 2011 2011 2011 
2011 2011 2011 2011 2011 2011 2011 2011 2011 
2011 2011 2011 2011 2011 2011 2011 2011 2011 
2011 2011 2011 2011 2011 2011 2011 2011 2011 
2011 2011 2011 2011 2011 2011 2011 2011 2011 
2011 2011 2011 2011 2011 2011 2011 2011 2011 
2011 2011 2011 2011 2011 2011 2011 2011 2011 
2011 2011 2011 2011 2011 2011 2011 2011 2011 
2011 2011 2011 2011 2011 2011 2011 2011 2011 
2011 2011 2011 2011 2011 2011 2011 2011 2011 
2011 2011 2011 2011 2011 2011 2011 2011 2011 
2011 2011 2011 2011 2011 2011 2011 2011 2011 
2011 2011 2011 2011 2011 2011 2011 2011 2011 
2011 2011 2011 2011 2011 2011 2011 2011 2011 
2011 2011 2011 2011 2011 2011 2011 2011 2011 
2011 2011 2011 2011 2011 2011 2011 2011 2011 
2011 2011 2011 2011 2011 2011 2011 2011 2011 
2011 2011 2011 2011 2011 2011 2011 2011 2011 
2011 2011 2011 2011 2011 2011 2011 2011 2011 
2011 2011 2011 2011 2011 2011 2011 2011 2011 
2011 2011 2011 2011 2011 2011 2011 2011 2011 
2011 2011 2011 2011 2011 2011 2011 2011 2011 
2011 2011 2011 2011 2011 2011 2011 2011 2011 
2011 2011 2011 2011 2011 2011 2011 2011 2011 
2011 2011 2011 2011 2011 2011 2011 2011 2011 
2011 2011 2011 2011 2011 2011 2011 2011 2011 
2011 2011 2011 2011 2011 2011 2011 2011 2011 
2011 2011 2011 2011 2011 2011 2011 2011 2011 
2011 2011 2011 2011 2011 2011 2011 2011 2011 
2011 2011 2011 2011 2011 2011 2011 2011 2011 
2011 2011 2011 2011 2011 2011 2011 2011 2011 
2011 2011 2011 2011 2011 2011 2011 2011 2011 
2011 2011 2011 2011 2011 2011 2011 2011 2011 
2011 2011 2011 2011 2011 2011 2011 2011 2011 
2011 2011 2011 2011 2011 2011 2011 2011 2011 
2011 2011 2011 2011 2011 2011 2011 2011 2011 
2011 2011 2011 2011 2011 2011 2011 2011 2011 
2011 2011 2011 2011 2011 2011 2011 2011 2011 
2011 2011 2011 2011 2011 2011 2011 2011 2011 
2011 2011 2011 2011 2011 2011 2011 2011 2011 
2011 2011 2011 2011 2011 2011 2011 2011 2011 
2011 2011 2011 2011 2011 2011 2011 2011 2011 
2011 2011 2011 2011 2011 2011 2011 2011 2011 
2011 2011 2011 2011 2011 2011 2011 2011 2011 
2011 2011 2011 2011 2011 2011 2011 2011 2011 
2011 2011 2011 2011 2011 2011 2011 2011 2011 
2011 2011 2011 2011 2011 2011 2011 2011 2011 
2011 2011 2011 2011 2011 2011 2011 2011 2011 
2011 2011 2011 2011 2011 2011 2011 2011 2011 
2011 2011 2011 2011 2011 2011 2011 2011 2011 
2011 2011 2011 2011 2011 2011 2011 2011 2011 
2011 2011 2011 2011 2011 2011 2011 2011 2011 
2011 2011 2011 2011 2011 2011 2011 2011 2011 
2011 2011 2011 2011 2011 2011 2011 2011 2011 
2011 2011 2011 2011 2011 2011 2011 2011 2011 
2011 2011 2011 2011 2011 2011 2011 2011 2011 
2011 2011 2011 2011 2011 2011 2011 2011 2011 
2011 2011 2011 2011 2011 2011 2011 2011 2011 
2011 2011 2011 2011 2011 2011 2011 2011 2011 
2011 2011 2011 2011 2011 2011 2011 2011 2011 
2011 2011 2011 2011 2011 2011 2011 2011 2011 
2011 2011 2011 2011 2011 2011 2011 2011 2011 
2011 2011 2011 2011 2011 2011 2011 2011 2011 
2011 2011 2011 2011 2011 2011 2011 2011 2011 
2011 2011 2011 2011 2011 2011 2011 2011 2011 
2011 2011 2011 2011 2011 2011 2011 2011 2011 
2011 2011 2011 2011 2011 2011 2011 2011 2011 
2011 2011 2011 2011 2011 2011 2011 2011 2011 
2011 2011 2011 2011 2011 2011 2011 2011 2011 
2011 2011 2011 2011 2011 2011 2011 2011 2011 
2011 2011 2011 2011 2011 2011 2011 2011 2011 
2011 2011 2011 2011 2011 2011 2011 2011 2011 
2011 2011 2011 2011 2011 2011 2011 2011 2011 
2011 2011 2011 2011 2011 2011 2011 2011 2011 
2011 2011 2011 2011 2011 2011 2011 2011 2011 
2011 2011 2011 2011 2011 2011 2011 2011 2011 
2011 2011 2011 2011 2011 2011 2011 2011 2011 
2011 2011 2011 2011 2011 2011 2011 2011 2011 
2011 2011 2011 2011 2011 2011 2011 2011 2011 
2011 2011 2011 2011 2011 2011 2011 2011 2011 
2011 2011 2011 2011 2011 2011 2011 2011 2011 
2011 2011 2011 2011 2011 2011 2011 2011 2011 
2011 2011 2011 2011 2011 2011 2011 2011 2011 
2011 2011 2011 2011 2011 2011 2011 2011 2011 
2011 2011 2011 2011 2011 2011 2011 2011 2011 
2011 2011 2011 2011 2011 2011 2011 2011 2011 
2011 2011 2011 2011 2011 2011 2011 2011 2011 
2011 2011 2011 2011 2011 2011 2011 2011 2011 
2011 2011 2011 2011 2011 2011 2011 2011 2011 
2011 2011 2011 2011 2011 2011 2011 2011 2011 
2011 2011 2011 2011 2011 2011 2011 2011 2011 
2011 2011 2011 2011 2011 2011 2011 2011 2011 
2011 2011 2011 2011 2011 2011 2011 2011 2011 
2011 2011 2011 2011 2011 2011 2011 2011 2011 
2011 2011 2011 2011 2011 2011 2011 2011 2011 
2011 2011 2011 2011 2011 2011 2011 2011 2011 
2011 2011 2011 2011 2011 2011 2011 2011 2011 
2011 2011 2011 2011 2011 2011 2011 2011 2011 
2011 2011 2011 2011 2011 2011 2011 2011 2011 
2011 2011 2011 2011 2011 2011 2011 2011 2011 
2011 2011 2011 2011 2011 2011 2011 2011 2011 
2011 2011 2011 2011 2011 2011 2011 2011 2011 
2011 2011 2011 2011 2011 2011 2011 2011 2011 
2011 2011 2011 2011 2011 2011 2011 2011 2011 
2011 2011 2011 2011 2011 2011 2011 2011 2011 
2011 2011 2011 2011 2011 2011 2011 2011 2011 
2011 2011 2011 2011 2011 2011 2011 2011 2011 
2011 2011 2011 2011 2011 2011 2011 2011 2011 
2011 2011 2011 2011 2011 2011 2011 2011 2011 
2011 2011 2011 2011 2011 2011 2011 2011 2011 
2011 2011 2011 2011 2011 2011 2011 2011 2011 
2011 2011 2011 2011 2011 2011 2011 2011 2011 
2011 2011 2011 2011 2011 2011 2011 2011 2011 
2011 2011 2011 2011 2011 2011 2011 2011 2011 
2011 2011 2011 2011 2011 2011 2011 2011 2011 
2011 2011 2011 2011 2011 2011 2011 2011 2011 
2011 2011 2011 2011 2011 2011 2011 2011 2011 
2011 2011 2011 2011 2011 2011 2011 2011 2011 
2011 2011 2011 2011 2011 2011 2011 2011 2011 
2011 2011 2011 2011 2011 2011 2011 2011 2011 
2011 2011 2011 2011 2011 2011 2011 2011 2011 
2011 2011 2011 2011 2011 2011 2011 2011 2011 
2011 2011 2011 2011 2011 2011 2011 2011 2011 
2011 2011 2011 2011 2011 2011 2011 2011 2011 
2011 2011 2011 2011 2011 2011 2011 2011 2011 
2011 2011 2011 2011 2011 2011 2011 2011 2011 
2011 2011 2011 2011 2011 2011 2011 2011 2011 
2011 2011 2011 2011 2011 2011 2011 2011 2011 
2011 2011 2011 2011 2011 2011 2011 2011 2011 
2011 2011 2011 2011 2011 2011 2011 2011 2011 
2011 2011 2011 2011 2011 2011 2011 2011 2011 
2011 2011 2011 2011 2011 2011 2011 2011 2011 
2011 2011 2011 2011 2011 2011 2011 2011 2011 
2011 2011 2011 2011 2011 2011 2011 2011 2011 
2011 2011 2011 2011 2011 2011 2011 2011 2011 
2011 2011 2011 2011 2011 2011 2011 2011 2011 
2011 2011 2011 2011 2011 2011 2011 2011 2011 
2011 2011 2011 2011 2011 2011 2011 2011 2011 
2011 2011 2011 2011 2011 2011 2011 2011 2011 
2011 2011 2011 2011 2011 2011 2011 2011 2011 
2011 2011 2011 2011 2011 2011 2011 2011 2011 
2011 2011 2011 2011 2011 2011 2011 2011 2011 
2011 2011 2011 2011 2011 2011 2011 2011 2011 
2011 2011 2011 2011 2011 2011 2011 2011 2011 
2011 2011 2011 2011 2011 2011 2011 2011 2011 
2011 2011 2011 2011 2011 2011 2011 2011 2011 
2011 2011 2011 2011 2011 2011 2011 2011 2011 
2011 2011 2011 2011 2011 2011 2011 2011 2011 
2011 2011 2011 2011 2011 2011 2011 2011 2011 
2011 2011 2011 2011 2011 2011 2011 2011 2011 
2011 2011 2011 2011 2011 2011 2011 2011 2011 
2011 2011 2011 2011 2011 2011 2011 2011 2011 
2011 2011 2011 2011 2011 2011 2011 2011 2011 
2011 2011 2011 2011 2011 2011 2011 2011 2011 
2011 2011 2011 2011 2011 2011 2011 2011 2011 
2011 2011 2011 2011 2011 2011 2011 2011 2011 
2011 2011 2011 2011 2011 2011 2011 2011 2011 
2011 2011 2011 2011 2011 2011 2011 2011 2011 
2011 2011 2011 2011 2011 2011 2011 2011 2011 
2011 2011 2011 2011 2011 2011 2011 2011 2011 
2011 2011 2011 2011 2011 2011 2011 2011 2011 
2011 2011 2011 2011 2011 2011 2011 2011 2011 
2011 2011 2011 2011 2011 2011 2011 2011 2011 
2011 2011 2011 2011 2011 2011 2011 2011 2011 
2011 2011 2011 2011 2011 2011 2011 2011 2011 
2011 2011 2011 2011 2011 2011 2011 2011 2011 
2011 2011 2011 2011 2011 2011 2011 2011 2011 
2011 2011 2011 2011 2011 2011 2011 2011 2011 
2011 2011 2011 2011 2011 2011 2011 2011 2011 
2011 2011 2011 2011 2011 2011 2011 2011 2011 
2011 2011 2011 2011 2011 2011 2011 2011 2011 
2011 2011 2011 2011 2011 2011 2011 2011 2011 
2011 2011 2011 2011 2011 2011 2011 2011 2011 
2011 2011 2011 2011 2011 2011 2011 2011 2011 
2011 2011 2011 2011 2011 2011 2011 2011 2011 
2011 2011 2011 2011 2011 2011 2011 2011 2011 
2011 2011 2011 2011 2011 2011 2011 2011 2011 
2011 2011 2011 2011 2011 2011 2011 2011 2011 
2011 2011 2011 2011 2011 2011 2011 2011 2011 
2011 2011 2011 2011 2011 2011 2011 2011 2011 
2011 2011 2011 2011 2011 2011 2011 2011 2011 
2011 2011 2011 2011 2011 2011 2011 2011 2011 
2011 2011 2011 2011 2011 2011 2011 2011 2011 
2011 2011 2011 2011 2011 2011 2011 2011 2011 
2011 2011 2011 2011 2011 2011 2011 2011 2011 
2011 2011 2011 2011 2011 2011 2011 2011 2011 
2011 2011 2011 2011 2011 2011 2011 2011 2011 
2011 2011 2011 2011 2011 2011 2011 2011 2011 
2011 2011 2011 2011 2011 2011 2011 2011 2011 
2011 2011 2011 2011 2011 2011 2011 2011 2011 
2011 2011 2011 2011 2011 2011 2011 2011 2011 
2011 2011 2011 2011 2011 2011 2011 2011 2011 
2011 2011 2011 2011 2011 2011 2011 2011 2011 
2011 2011 2011 2011 2011 2011 2011 2011 2011 
2011 2011 2011 2011 2011 2011 2011 2011 2011 
2011 2011 2011 2011 2011 2011 2011 2011 2011 
2011 2011 2011 2011 2011 2011 2011 2011 2011 
2011 2011 2011 2011 2011 2011 2011 2011 2011 
2011 2011 2011 2011 2011 2011 2011 2011 2011 
2011 2011 2011 2011 2011 2011 2011 2011 2011 
2011 2011 2011 2011 2011 2011 2011 2011 2011 
2011 2011 2011 2011 2011 2011 2011 2011 2011 
2011 2011 2011 2011 2011 2011 2011 2011 2011 
2011 2011 2011 2011 2011 2011 2011 2011 2011 
2011 2011 2011 2011 2011 2011 2011 2011 2011 
2011 2011 2011 2011 2011 2011 2011 2011 2011 
2011 2011 2011 2011 2011 2011 2011 2011 2011 
2011 2011 2011 2011 2011 2011 2011 2011 2011 
2011 2011 2011 2011 2011 2011 2011 2011 2011 
2011 2011 2011 2011 2011 2011 2011 2011 2011 
2011 2011 2011 2011 2011 2011 2011 2011 2011 
2011 2011 2011 2011 2011 2011 2011 2011 2011 
2011 2011 2011 2011 2011 2011 2011 2011 2011 
2011 2011 2011 2011 2011 2011 2011 2011 2011 
2011 2011 2011 2011 2011 2011 2011 2011 2011 
2011 2011 2011 2011 2011 2011 2011 2011 2011 
2011 2011 2011 2011 2011 2011 2011 2011 2011 
2011 2011 2011 2011 2011 2011 2011 2011 2011 
2011 2011 2011 2011 2011 2011 2011 2011 2011 
2011 2011 2011 2011 2011 2011 2011 2011 2011 
2011 2011 2011 2011 2011 2011 2011 2011 2011 
2011 2011 2011 2011 2011 2011 2011 2011 2011 
2011 2011 2011 2011 2011 2011 2011 2011 2011 
2011 2011 2011 2011 2011 2011 2011 2011 2011 
2011 2011 2011 2011 2011 2011 2011 2011 2011 
2011 2011 2011 2011 2011 2011 2011 2011 2011 
2011 2011 2011 2011 2011 2011 2011 2011 2011 
2011 2011 2011 2011 2011 2011 2011 2011 2011 
2011 2011 2011 2011 2011 2011 2011 2011 2011 
2011 2011 2011 2011 2011 2011 2011 2011 2011 
2011 2011 2011 2011 2011 2011 2011 2011 2011 
2011 2011 2011 2011 2011 2011 2011 2011 2011 
2011 2011 2011 2011 2011 2011 2011 2011 2011 
2011 2011 2011 2011 2011 2011 2011 2011 2011 
2011 2011 2011 2011 2011 2011 2011 2011 2011 
2011 2011 2011 2011 2011 2011 2011 2011 2011 
2011 2011 2011 2011 2011 2011 2011 2011 2011 
2011 2011 2011 2011 2011 2011 2011 2011 2011 
2011 2011 2011 2011 2011 2011 2011 2011 2011 
2011 2011 2011 2011 2011 2011 2011 2011 2011 
2011 2011 2011 2011 2011 2011 2011 2011 2011 
2011 2011 2011 2011 2011 2011 2011 2011 2011 
2011 2011 2011 2011 2011 2011 2011 2011 2011 
2011 2011 2011 2011 2011 2011 2011 2011 2011 
2011 2011 2011 2011 2011 2011 2011 2011 2011 
2011 2011 2011 2011 2011 2011 2011 2011 2011 
2011 2011 2011 2011 2011 2011 2011 2011 2011 
2011 2011 2011 2011 2011 2011 2011 2011 2011 
2011 2011 2011 2011 2011 2011 2011 2011 2011 
2011 2011 2011 2011 2011 2011 2011 2011 2011 
2011 2011 2011 2011 2011 2011 2011 2011 2011 
2011 2011 2011 2011 2011 2011 2011 2011 2011 
2011 2011 2011 2011 2011 2011 2011 2011 2011 
2011 2011 2011 2011 2011 2011 2011 2011 2011 
2011 2011 2011 2011 2011 2011 2011 2011 2011 
2011 2011 2011 2011 2011 2011 2011 2011 2011 
2011 2011 2011 2011 2011 2011 2011 2011 2011 
2011 2011 2011 2011 2011 2011 2011 2011 2011 
2011 2011 2011 2011 2011 2011 2011 2011 2011 
2011 2011 2011 2011 2011 2011 2011 2011 2011 
2011 2011 2011 2011 2011 2011 2011 2011 2011 
2011 2011 2011 2011 2011 2011 2011 2011 2011 
2011 2011 2011 2011 2011 2011 2011 2011 2011 
2011 2011 2011 2011 2011 2011 2011 2011 2011 
2011 2011 2011 2011 2011 2011 2011 2011 2011 
2011 2011 2011 2011 2011 2011 2011 2011 2011 
2011 2011 2011 2011 2011 2011 2011 2011 2011 
2011 2011 2011 2011 2011 2011 2011 2011 2011 
2011 2011 2011 2011 2011 2011 2011 2011 2011 
2011 2011 2011 2011 2011 2011 2011 2011 2011 
2011 2011 2011 2011 2011 2011 2011 2011 2011 
2011 2011 2011 2011 2011 2011 2011 2011 2011 
2011 2011 2011 2011 2011 2011 2011 2011 2011 
2011 2011 2011 2011 2011 2011 2011 2011 2011 
2011 2011 2011 2011 2011 2011 2011 2011 2011 
2011 2011 2011 2011 2011 2011 2011 2011 2011 
2011 2011 2011 2011 2011 2011 2011 2011 2011 
2011 2011 2011 2011 2011 2011 2011 2011 2011 
2011 2011 2011 2011 2011 2011 2011 2011 2011 
2011 2011 2011 2011 2011 2011 2011 2011 2011 
2011 2011 2011 2011 2011 2011 2011 2011 2011 
2011 2011 2011 2011 2011 2011 2011 2011 2011 
2011 2011 2011 2011 2011 2011 2011 2011 2011 
2011 2011 2011 2011 2011 2011 2011 2011 2011 
2011 2011 2011 2011 2011 2011 2011 2011 2011 
2011 2011 2011 2011 2011 2011 2011 2011 2011 
2011 2011 2011 2011 2011 2011 2011 2011 2011 
2011 2011 2011 2011 2011 2011 2011 2011 2011 
2011 2011 2011 2011 2011 2011 2011 2011 2011 
2011 2011 2011 2011 2011 2011 2011 2011 2011 
2011 2011 2011 2011 2011 2011 2011 2011 2011 
2011 2011 2011 2011 2011 2011 2011 2011 2011 
2011 2011 2011 2011 2011 2011 2011 2011 2011 
2011 2011 2011 2011 2011 2011 2011 2011 2011 
2011 2011 2011 2011 2011 2011 2011 2011 2011 
2011 2011 2011 2011 2011 2011 2011 2011 2011 
2011 2011 2011 2011 2011 2011 2011 2011 2011 
2011 2011 2011 2011 2011 2011 2011 2011 2011 
2011 2011 2011 2011 2011 2011 2011 2011 2011 
2011 2011 2011 2011 2011 2011 2011 2011 2011 
2011 2011 2011 2011 2011 2011 2011 2011 2011 
2011 2011 2011 2011 2011 2011 2011 2011 2011 
2011 2011 2011 2011 2011 2011 2011 2011 2011 
2011 2011 2011 2011 2011 2011 2011 2011 2011 
2011 2011 2011 2011 2011 2011 2011 2011 2011 
2011 2011 2011 2011 2011 2011 2011 2011 2011 
2011 2011 2011 2011 2011 2011 2011 2011 2011 
2011 2011 2011 2011 2011 2011 2011 2011 2011 
2011 2011 2011 2011 2011 2011 2011 2011 2011 
2011 2011 2011 2011 2011 2011 2011 2011 2011 
2011 2011 2011 2011 2011 2011 2011 2011 2011 
2011 2011 2011 2011 2011 2011 2011 2011 2011 
2011 2011 2011 2011 2011 2011 2011 2011 2011 
2011 2011 2011 2011 2011 2011 2011 2011 2011 
2011 2011 2011 2011 2011 2011 2011 2011 2011 
2011 2011 2011 2011 2011 2011 2011 2011 2011 
2011 2011 2011 2011 2011 2011 2011 2011 2011 
2011 2011 2011 2011 2011 2011 2011 2011 2011 
2011 2011 2011 2011 2011 2011 2011 2011 2011 
2011 2011 2011 2011 2011 2011 2011 2011 2011 
2011 2011 2011 2011 2011 2011 2011 2011 2011 
2011 2011 2011 2011 2011 2011 2011 2011 2011 
2011 2011 2011 2011 2011 2011 2011 2011 2011 
2011 2011 2011 2011 2011 2011 2011 2011 2011 
2011 2011 2011 2011 2011 2011 2011 2011 2011 
2011 2011 2011 2011 2011 2011 2011 2011 2011 
2011 2011 2011 2011 2011 2011 2011 2011 2011 
2011 2011 2011 2011 2011 2011 2011 2011 2011 
2011 2011 2011 2011 2011 2011 2011 2011 2011 
2011 2011 2011 2011 2011 2011 2011 2011 2011 
2011 2011 2011 2011 2011 2011 2011 2011 2011 
2011 2011 2011 2011 2011 2011 2011 2011 2011 
2011 2011 2011 2011 2011 2011 2011 2011 2011 
2011 2011 2011 2011 2011 2011 2011 2011 2011 
2011 2011 2011 2011 2011 2011 2011 2011 2011 
2011 2011 2011 2011 2011 2011 2011 2011 2011 
2011 2011 2011 2011 2011 2011 2011 2011 2011 
2011 2011 2011 2011 2011 2011 2011 2011 2011 
2011 2011 2011 2011 2011 2011 2011 2011 2011 
2011 2011 2011 2011 2011 2011 2011 2011 2011 
2011 2011 2011 2011 2011 2011 2011 2011 2011 
2011 2011 2011 2011 2011 2011 2011 2011 2011 
2011 2011 2011 2011 2011 2011 2011 2011 2011 
2011 2011 2011 2011 2011 2011 2011 2011 2011 
2011 2011 2011 2011 2011 2011 2011 2011 2011 
2011 2011 2011 2011 2011 2011 2011 2011 2011 
2011 2011 2011 2011 2011 2011 2011 2011 2011 
2011 2011 2011 2011 2011 2011 2011 2011 2011 
2011 2011 2011 2011 2011 2011 2011 2011 2011 
2011 2011 2011 2011 2011 2011 2011 2011 2011 
2011 2011 2011 2011 2011 2011 2011 2011 2011 
2011 2011 2011 2011 2011 2011 2011 2011 2011 
2011 2011 2011 2011 2011 2011 2011 2011 2011 
2011 2011 2011 2011 2011 2011 2011 2011 2011 
2011 2011 2011 2011 2011 2011 2011 2011 2011 
2011 2011 2011 2011 2011 2011 2011 2011 2011 
2011 2011 2011 2011 2011 2011 2011 2011 2011 
2011 2011 2011 2011 2011 2011 2011 2011 2011 
2011 2011 2011 2011 2011 2011 2011 2011 2011 
2011 2011 2011 2011 2011 2011 2011 2011 2011 
2011 2011 2011 2011 2011 2011 2011 2011 2011 
2011 2011 2011 2011 2011 2011 2011 2011 2011 
2011 2011 2011 2011 2011 2011 2011 2011 2011 
2011 2011 2011 2011 2011 2011 2011 2011 2011 