# vtk DataFile Version 4.2
vtk output
ASCII
DATASET POLYDATA
POINTS 3150 float
42.8426 4.13402 -18.1805 42.8802 4.75185 -18.7236 42.1301 4.58382 -18.5449 
43.4317 4.25947 -18.8476 41.9076 3.65638 -18.0958 41.6204 3.98731 -18.388 
41.211 3.2114 -18.6304 42.471 3.22722 -18.0392 43.6141 3.87704 -18.3755 
43.395 3.49244 -18.2237 43.8496 3.49785 -18.4527 41.6814 2.71919 -18.1852 
41.3198 2.35699 -18.6998 42.2062 2.54082 -18.3189 42.9489 2.94606 -18.5046 
43.6042 3.25787 -18.6402 41.8624 2.1388 -18.6808 41.8535 5.26834 -19.1919 
41.6862 5.80067 -19.5321 41.2724 5.30103 -19.5363 42.0925 5.69169 -19.5873 
41.4068 4.38443 -18.8875 40.9458 4.36872 -19.3743 42.6363 5.093 -19.3822 
43.7263 4.48872 -19.2702 43.4623 4.69132 -19.4133 43.8305 4.48729 -19.536 
40.8032 3.64421 -19.1687 40.5373 3.98975 -19.6453 40.3892 3.472 -19.8167 
43.7046 3.6075 -18.7334 43.3656 3.31053 -19.4015 43.6428 4.24285 -19.5578 
40.6904 3.02604 -19.3794 41.0762 2.45994 -19.5363 42.6525 2.41508 -18.8803 
43.3905 2.42496 -19.3257 43.6434 2.78186 -19.5912 44.0438 2.58053 -19.6922 
41.6062 2.0008 -19.2673 42.6907 1.86022 -19.5744 43.9302 2.09205 -19.7465 
51.6595 11.4832 -20.3522 51.6572 11.7496 -20.4682 51.4642 11.4714 -20.5995 
51.9126 11.6038 -20.52 51.8035 11.2268 -20.5362 42.0198 7.36704 -20.1723 
41.4392 7.85366 -20.7713 41.2198 7.21122 -20.4683 42.9162 7.24608 -20.1613 
42.3258 7.99245 -20.6534 43.1185 7.66864 -20.5281 45.9185 7.53941 -20.247 
45.5905 7.81884 -20.5189 45.4402 7.31024 -20.5245 46.4676 7.38428 -20.2652 
46.3385 7.88319 -20.4531 47.0702 7.39003 -20.7382 41.6864 6.28652 -19.9382 
40.9683 6.44336 -20.4093 42.748 6.45386 -19.9872 43.5786 7.03685 -20.3844 
43.6033 6.36738 -20.2019 44.0547 6.50177 -20.5703 46.0316 6.99704 -20.4575 
46.7032 6.928 -20.6053 40.8535 5.68287 -20.1435 40.5469 6.07972 -20.6938 
40.3342 5.36479 -20.6405 42.6811 5.58478 -19.9278 43.4689 5.51569 -20.2273 
43.9886 5.70675 -20.6566 40.6403 4.76745 -19.9153 40.2432 4.35087 -20.4584 
43.3799 4.6235 -20.3985 43.7126 4.48108 -19.8178 43.7268 5.09939 -20.5599 
40.3278 3.6619 -20.6969 43.441 3.69288 -20.54 44.525 3.70311 -20.6525 
44.1586 3.44071 -20.5453 44.561 3.09011 -20.2392 45.0465 3.52022 -20.5933 
40.6042 2.97063 -20.1644 41.1048 2.57349 -20.7732 43.7895 3.14725 -20.1897 
44.5963 2.42379 -19.9701 45.1716 2.78121 -20.4466 41.7618 1.85491 -20.1958 
42.4998 1.42755 -20.2338 42.212 1.35037 -20.8653 43.1305 1.4269 -20.3434 
43.8619 1.69728 -20.5443 44.82 2.08157 -20.5814 42.9166 1.13813 -20.8055 
51.821 12.1519 -20.9752 51.6017 12.8386 -21.6002 51.0878 12.3479 -21.4297 
52.9854 12.34 -21.1053 52.4431 12.9944 -21.5349 53.9398 12.2093 -21.1672 
53.4063 12.955 -21.5149 54.1661 12.6412 -21.5205 50.0312 11.3273 -21.2308 
49.6296 11.7906 -21.6138 49.3171 11.1267 -21.5172 50.9045 11.5387 -21.0565 
50.3459 12.066 -21.5161 52.5387 11.3155 -20.8546 53.6213 11.5841 -20.9706 
54.6118 12.0183 -21.3684 54.4358 11.3171 -21.188 55.0807 11.5949 -21.6905 
49.585 10.4485 -21.1441 49.0689 10.36 -21.4357 50.4008 10.446 -21.1298 
51.5381 10.7072 -20.9888 52.5598 10.398 -21.1742 53.5771 10.633 -21.1363 
54.1902 10.5513 -21.3807 54.6268 10.9524 -21.8072 48.8139 9.4766 -21.1839 
48.5907 9.84422 -21.5902 48.1566 9.25346 -21.4443 49.5402 9.43123 -21.1904 
50.233 9.63391 -21.4727 51.003 9.88484 -21.5243 52.0086 9.90032 -21.5621 
53.0515 9.95214 -21.656 53.7203 10.1866 -21.4651 43.0267 8.31866 -21.0528 
42.649 8.77633 -21.8835 42.2495 8.43888 -21.3564 43.9713 8.34909 -21.1391 
43.5103 8.80194 -21.5548 44.8242 8.50099 -21.1797 44.391 8.97028 -21.7025 
45.7671 8.35246 -20.9569 45.4283 8.97249 -21.537 46.9616 8.27439 -20.968 
46.457 8.93019 -21.5128 47.9015 8.61616 -21.1214 47.4182 8.98117 -21.5088 
48.543 8.39239 -21.2 49.2167 8.59579 -21.4448 49.8036 9.04737 -21.5976 
51.7366 8.42388 -21.4206 51.5778 8.70484 -21.584 51.3348 8.37352 -21.6614 
52.0404 8.58862 -21.7792 40.8221 7.54606 -20.9926 40.7969 7.83853 -21.5929 
40.4096 7.28772 -21.5087 41.5253 8.19938 -21.5626 43.8376 7.4165 -20.7971 
44.8322 7.60037 -20.8788 47.6886 7.75107 -21.0903 48.2241 7.37952 -21.7214 
48.7596 7.99261 -21.606 49.6299 7.70247 -21.4935 49.2655 7.48559 -21.7005 
49.6227 7.45347 -21.4338 49.95 7.61971 -21.749 51.7041 8.17603 -21.8382 
40.6307 6.85106 -20.9255 40.1119 6.3067 -21.6271 44.4643 6.43842 -21.0009 
45.4029 6.60749 -20.9988 46.3787 6.4345 -21.0569 47.124 6.59645 -21.2535 
47.6548 6.92388 -21.5379 49.5725 7.23418 -21.8804 40.1131 5.2246 -21.3547 
43.6446 5.1875 -20.9619 43.1954 5.15737 -21.5434 43.7861 5.77467 -21.4152 
44.7699 6.22891 -21.6508 45.8763 5.99572 -21.6826 46.7764 6.06697 -21.6369 
40.2345 4.42891 -21.6376 43.4628 4.82438 -21.6594 43.789 4.30845 -21.1114 
44.8274 4.19506 -21.0486 44.3639 4.93185 -21.747 45.9005 4.19138 -21.2195 
45.3861 4.87865 -21.572 46.1253 4.64403 -21.6146 47.6309 4.14598 -21.2674 
47.5694 4.72868 -21.5853 47.1361 4.31556 -21.3966 48.1052 4.61769 -21.7614 
40.5399 3.76013 -21.4393 40.6664 3.25278 -20.9241 40.928 3.29305 -21.592 
43.9368 3.73029 -20.8024 45.6226 3.47378 -20.8415 46.5699 4.23495 -21.4347 
46.6628 3.52242 -21.1421 47.5174 3.45279 -21.1996 48.0646 3.64459 -21.7225 
41.3305 2.7086 -21.7605 45.7425 2.58707 -20.9613 46.3599 2.33174 -21.652 
47.0838 2.84193 -21.4519 47.7221 2.93442 -21.5999 41.7533 1.98905 -21.4973 
42.288 1.42448 -21.6419 43.5663 1.30177 -20.9414 43.9731 1.45078 -21.3971 
44.4397 1.77546 -21.6089 45.4705 1.87468 -21.6342 42.6826 1.10354 -21.3661 
43.3934 1.16015 -21.4995 54.6686 14.0977 -22.2995 54.5628 14.6808 -22.6132 
54.1581 14.2722 -22.443 55.0051 14.6463 -22.8189 43.9776 13.3302 -22.2036 
43.5883 13.7883 -22.5915 43.2225 13.132 -22.5245 44.9484 13.3373 -22.1129 
44.4215 13.9644 -22.5173 45.9699 13.323 -22.1253 45.4311 13.9706 -22.5217 
46.9709 13.3071 -22.1595 46.4336 13.9526 -22.5423 47.963 13.303 -22.182 
47.4384 13.9424 -22.5518 48.9706 13.2841 -22.1887 48.4499 13.9294 -22.5581 
50.0023 13.3039 -22.1906 49.4602 13.9125 -22.566 50.9123 13.4432 -22.23 
50.4635 13.9104 -22.5791 51.8361 13.3669 -22.0695 51.464 13.9083 -22.5852 
52.9547 13.4886 -22.048 52.4671 13.9197 -22.5861 54.032 13.4517 -21.9937 
53.4275 14.032 -22.546 54.9575 13.2199 -22.0989 55.2802 13.7528 -22.672 
43.6442 12.7107 -22.2498 43.3014 12.3837 -22.6127 44.528 12.5064 -22.0993 
45.6482 12.4831 -21.9797 46.7015 12.4389 -21.9965 47.7054 12.4661 -22.0186 
48.5421 12.6248 -22.0264 49.5679 12.4849 -21.9158 50.7595 12.8228 -21.8702 
54.8877 12.4418 -21.8307 55.5881 12.9861 -22.4008 55.5149 12.5435 -22.193 
55.9774 12.6391 -22.7597 43.9631 12.0304 -22.5205 44.7168 11.7841 -22.4547 
45.2958 11.2839 -22.655 45.4576 11.7263 -22.2328 46.5902 11.443 -22.1664 
47.6778 11.4586 -22.0382 48.741 11.7432 -21.9056 55.6174 11.9341 -22.5597 
55.2166 11.3228 -22.3035 46.0877 11.0199 -22.5863 46.8402 10.7326 -22.5184 
47.0152 10.2385 -22.5387 47.4855 10.4688 -22.2004 48.5139 10.6146 -21.8679 
53.748 10.2669 -21.9499 53.244 10.1794 -22.604 53.7766 10.8002 -22.7145 
54.7573 11.0709 -22.6377 45.0578 9.41896 -22.147 44.6851 9.74008 -22.6887 
44.3218 9.35857 -22.4067 46.012 9.44967 -22.0823 45.4817 9.91871 -22.6269 
47.0328 9.59791 -22.0936 46.4211 10.0045 -22.6032 47.935 9.6847 -21.8592 
50.496 9.20589 -21.8377 51.6661 9.22597 -21.8976 52.5226 9.48037 -22.0647 
53.043 9.66619 -22.3528 41.859 8.52908 -21.9586 41.777 8.78127 -22.5179 
41.2868 8.41441 -22.3784 42.5477 9.0556 -22.5915 43.5146 9.12335 -22.3363 
49.6874 8.21549 -21.8034 50.8876 8.68413 -21.917 52.4327 8.98077 -22.4182 
52.1016 8.33227 -22.2932 40.7505 8.11958 -22.4583 40.1568 7.32234 -22.5253 
48.7786 7.56936 -21.8814 50.8715 7.94067 -22.3442 50.1452 7.36025 -22.2976 
51.6814 8.09845 -22.4025 39.7031 6.64808 -22.3381 39.7163 6.73773 -22.7376 
39.524 6.48574 -22.5922 42.7928 6.51797 -22.281 42.2202 6.26844 -22.5651 
42.6912 6.82053 -22.9224 43.6604 6.91496 -22.7095 43.7852 6.40651 -22.0321 
44.4823 6.77336 -22.5386 44.6258 6.50393 -22.1417 45.1129 6.25539 -22.4579 
47.6904 6.09792 -22.025 48.2218 6.60332 -22.321 48.9075 6.95331 -22.3074 
49.7444 6.99929 -22.5262 39.69 6.22864 -22.4024 40.0041 5.59236 -22.4771 
42.7402 5.7768 -22.0845 42.2687 5.71218 -22.8324 44.6027 5.90113 -22.9832 
44.2989 5.38037 -22.4372 44.9978 5.51611 -22.1467 45.8574 5.36535 -21.9334 
46.7449 5.55822 -21.9374 47.7825 5.26512 -21.9862 48.5865 6.12174 -22.5231 
48.7037 5.66583 -22.2772 49.5214 5.41258 -22.373 49.3787 5.90174 -22.5859 
50.1607 5.38545 -22.8095 40.2728 4.58335 -22.8119 42.8264 5.17602 -22.3342 
43.5572 5.1059 -22.4279 46.8244 4.82303 -21.781 48.8577 4.94257 -22.3554 
48.4164 4.26551 -22.2585 49.7888 4.96091 -22.6547 40.7402 3.91684 -22.4046 
41.2812 3.38187 -22.4767 48.3986 3.42308 -22.6433 41.7439 2.96556 -22.6737 
41.6296 2.4378 -22.0658 42.0937 2.42082 -22.5439 46.8616 2.35094 -21.9079 
47.4288 2.3647 -22.0741 48.0448 2.66144 -22.3289 42.5019 1.892 -22.3203 
42.9827 1.38736 -22.0076 43.5984 1.91333 -22.4766 43.7701 1.48188 -21.9382 
44.8558 1.94386 -22.6339 45.5156 1.44413 -22.3073 45.4473 1.42557 -22.7341 
45.9789 1.54035 -22.2788 46.6932 1.87756 -22.701 47.7057 2.07155 -22.8058 
45.6796 1.23621 -22.5551 49.8025 19.2913 -23.1623 49.6062 19.8526 -23.8542 
49.0317 19.3705 -23.401 50.8994 19.4271 -23.1306 50.6573 19.9345 -23.6655 
51.9276 19.4489 -23.1272 51.6768 19.9659 -23.6339 52.9751 19.4243 -23.0928 
52.5318 19.9281 -23.4961 53.9225 19.2574 -23.1377 53.3881 19.8116 -23.5441 
54.0069 19.4762 -23.6234 46.8091 18.2976 -23.1719 46.7311 18.9302 -23.4847 
46.1675 18.5051 -23.5149 47.8762 18.3983 -23.1425 47.3778 19.027 -23.4977 
48.9149 18.5646 -23.1021 48.3004 19.116 -23.4687 49.788 18.3557 -22.9917 
50.6103 18.5164 -22.9837 51.6238 18.5345 -22.9884 52.6818 18.5289 -22.967 
53.7362 18.4873 -22.9421 54.4763 18.9937 -23.583 54.5639 18.4194 -23.1531 
54.9358 18.4831 -23.7118 45.8373 17.4237 -23.1716 45.4916 17.9152 -23.5885 
45.0464 17.3192 -23.4451 46.7801 17.3504 -23.0131 47.6381 17.4917 -23.011 
48.6499 17.4993 -23.0186 49.6395 17.4881 -23.017 50.6208 17.4796 -23.0161 
51.6329 17.4777 -23.0228 52.6773 17.4591 -23.0109 53.703 17.4418 -22.9904 
[...]
CELL_DATA 6316
SCALARS scalars float
LOOKUP_TABLE default
1001 1001 1001 1001 1001 1001 1001 1001 1001 
1001 1001 1001 1001 1001 1001 1001 1001 1001 
1001 1001 1001 1001 1001 1001 1001 1001 1001 
1001 1001 1001 1001 1001 1001 1001 1001 1001 
1001 1001 1001 1001 1001 1001 1001 1001 1001 
1001 1001 1001 1001 1001 1001 1001 1001 1001 
1001 1001 1001 1001 1001 1001 1001 1001 1001 
1001 1001 1001 1001 1001 1001 1001 1001 1001 
1001 1001 1001 1001 1001 1001 1001 1001 1001 
1001 1001 1001 1001 1001 1001 1001 1001 1001 
1001 1001 1001 1001 1001 1001 1001 1001 1001 
1001 1001 1001 1001 1001 1001 1001 1001 1001 
1001 1001 1001 1001 1001 1001 1001 1001 1001 
1001 1001 1001 1001 1001 1001 1001 1001 1001 
1001 1001 1001 1001 1001 1001 1001 1001 1001 
1001 1001 1001 1001 1001 1001 1001 1001 1001 
1001 1001 1001 1001 1001 1001 1001 1001 1001 
1001 1001 1001 1001 1001 1001 1001 1001 1001 
1001 1001 1001 1001 1001 1001 1001 1001 1001 
1001 1001 1001 1001 1001 1001 1001 1001 1001 
1001 1001 1001 1001 1001 1001 1001 1001 1001 
1001 1001 1001 1001 1001 1001 1001 1001 1001 
1001 1001 1001 1001 1001 1001 1001 1001 1001 
1001 1001 1001 1001 1001 1001 1001 1001 1001 
1001 1001 1001 1001 1001 1001 1001 1001 1001 
1001 1001 1001 1001 1001 1001 1001 1001 1001 
1001 1001 1001 1001 1001 1001 1001 1001 1001 
1001 1001 1001 1001 1001 1001 1001 1001 1001 
1001 1001 1001 1001 1001 1001 1001 1001 1001 
1001 1001 1001 1001 1001 1001 1001 1001 1001 
1001 1001 1001 1001 1001 1001 1001 1001 1001 
1001 1001 1001 1001 1001 1001 1001 1001 1001 
1001 1001 1001 1001 1001 1001 1001 1001 1001 
1001 1001 1001 1001 1001 1001 1001 1001 1001 
1001 1001 1001 1001 1001 1001 1001 1001 1001 
1001 1001 1001 1001 1001 1001 1001 1001 1001 
1001 1001 1001 1001 1001 1001 1001 1001 1001 
1001 1001 1001 1001 1001 1001 1001 1001 1001 
1001 1001 1001 1001 1001 1001 1001 1001 1001 
1001 1001 1001 1001 1001 1001 1001 1001 1001 
1001 1001 1001 1001 1001 1001 1001 1001 1001 
1001 1001 1001 1001 1001 1001 1001 1001 1001 
1001 1001 1001 1001 1001 1001 1001 1001 1001 
1001 1001 1001 1001 1001 1001 1001 1001 1001 
1001 1001 1001 1001 1001 1001 1001 1001 1001 
1001 1001 1001 1001 1001 1001 1001 1001 1001 
1001 1001 1001 1001 1001 1001 1001 1001 1001 
1001 1001 1001 1001 1001 1001 1001 1001 1001 
1001 1001 1001 1001 1001 1001 1001 1001 1001 
1001 1001 1001 1001 1001 1001 1001 1001 1001 
1001 1001 1001 1001 1001 1001 1001 1001 1001 
1001 1001 1001 1001 1001 1001 1001 1001 1001 
1001 1001 1001 1001 1001 1001 1001 1001 1001 
1001 1001 1001 1001 1001 1001 1001 1001 1001 
1001 1001 1001 1001 1001 1001 1001 1001 1001 
1001 1001 1001 1001 1001 1001 1001 1001 1001 
1001 1001 1001 1001 1001 1001 1001 1001 1001 
1001 1001 1001 1001 1001 1001 1001 1001 1001 
1001 1001 1001 1001 1001 1001 1001 1001 1001 
1001 1001 1001 1001 1001 1001 1001 1001 1001 
1001 1001 1001 1001 1001 1001 1001 1001 1001 
1001 1001 1001 1001 1001 1001 1001 1001 1001 
1001 1001 1001 1001 1001 1001 1001 1001 1001 
1001 1001 1001 1001 1001 1001 1001 1001 1001 
1001 1001 1001 1001 1001 1001 1001 1001 1001 
1001 1001 1001 1001 1001 1001 1001 1001 1001 
1001 1001 1001 1001 1001 1001 1001 1001 1001 
1001 1001 1001 1001 1001 1001 1001 1001 1001 
1001 1001 1001 1001 1001 1001 1001 1001 1001 
1001 1001 1001 1001 1001 1001 1001 1001 1001 
1001 1001 1001 1001 1001 1001 1001 1001 1001 
1001 1001 1001 1001 1001 1001 1001 1001 1001 
1001 1001 1001 1001 1001 1001 1001 1001 1001 
1001 1001 1001 1001 1001 1001 1001 1001 1001 
1001 1001 1001 1001 1001 1001 1001 1001 1001 
1001 1001 1001 1001 1001 1001 1001 1001 1001 
1001 1001 1001 1001 1001 1001 1001 1001 1001 
1001 1001 1001 1001 1001 1001 1001 1001 1001 
1001 1001 1001 1001 1001 1001 1001 1001 1001 
1001 1001 1001 1001 1001 1001 1001 1001 1001 
1001 1001 1001 1001 1001 1001 1001 1001 1001 
1001 1001 1001 1001 1001 1001 1001 1001 1001 
1001 1001 1001 1001 1001 1001 1001 1001 1001 
1001 1001 1001 1001 1001 1001 1001 1001 1001 
1001 1001 1001 1001 1001 1001 1001 1001 1001 
1001 1001 1001 1001 1001 1001 1001 1001 1001 
1001 1001 1001 1001 1001 1001 1001 1001 1001 
1001 1001 1001 1001 1001 1001 1001 1001 1001 
1001 1001 1001 1001 1001 1001 1001 1001 1001 
1001 1001 1001 1001 1001 1001 1001 1001 1001 
1001 1001 1001 1001 1001 1001 1001 1001 1001 
1001 1001 1001 1001 1001 1001 1001 1001 1001 
1001 1001 1001 1001 1001 1001 1001 1001 1001 
1001 1001 1001 1001 1001 1001 1001 1001 1001 
1001 1001 1001 1001 1001 1001 1001 1001 1001 
1001 1001 1001 1001 1001 1001 1001 1001 1001 
1001 1001 1001 1001 1001 1001 1001 1001 1001 
1001 1001 1001 1001 1001 1001 1001 1001 1001 
1001 1001 1001 1001 1001 1001 1001 1001 1001 
1001 1001 1001 1001 1001 1001 1001 1001 1001 
1001 1001 1001 1001 1001 1001 1001 1001 1001 
1001 1001 1001 1001 1001 1001 1001 1001 1001 
1001 1001 1001 1001 1001 1001 1001 1001 1001 
1001 1001 1001 1001 1001 1001 1001 1001 1001 
1001 1001 1001 1001 1001 1001 1001 1001 1001 
1001 1001 1001 1001 1001 1001 1001 1001 1001 
1001 1001 1001 1001 1001 1001 1001 1001 1001 
1001 1001 1001 1001 1001 1001 1001 1001 1001 
1001 1001 1001 1001 1001 1001 1001 1001 1001 
1001 1001 1001 1001 1001 1001 1001 1001 1001 
1001 1001 1001 1001 1001 1001 1001 1001 1001 
1001 1001 1001 1001 1001 1001 1001 1001 1001 
1001 1001 1001 1001 1001 1001 1001 1001 1001 
1001 1001 1001 1001 1001 1001 1001 1001 1001 
1001 1001 1001 1001 1001 1001 1001 1001 1001 
1001 1001 1001 1001 1001 1001 1001 1001 1001 
1001 1001 1001 1001 1001 1001 1001 1001 1001 
1001 1001 1001 1001 1001 1001 1001 1001 1001 
1001 1001 1001 1001 1001 1001 1001 1001 1001 
1001 1001 1001 1001 1001 1001 1001 1001 1001 
1001 1001 1001 1001 1001 1001 1001 1001 1001 
1001 1001 1001 1001 1001 1001 1001 1001 1001 
1001 1001 1001 1001 1001 1001 1001 1001 1001 
1001 1001 1001 1001 1001 1001 1001 1001 1001 
1001 1001 1001 1001 1001 1001 1001 1001 1001 
1001 1001 1001 1001 1001 1001 1001 1001 1001 
1001 1001 1001 1001 1001 1001 1001 1001 1001 
1001 1001 1001 1001 1001 1001 1001 1001 1001 
1001 1001 1001 1001 1001 1001 1001 1001 1001 
1001 1001 1001 1001 1001 1001 1001 1001 1001 
1001 1001 1001 1001 1001 1001 1001 1001 1001 
1001 1001 1001 1001 1001 1001 1001 1001 1001 
1001 1001 1001 1001 1001 1001 1001 1001 1001 
1001 1001 1001 1001 1001 1001 1001 1001 1001 
1001 1001 1001 1001 1001 1001 1001 1001 1001 
1001 1001 1001 1001 1001 1001 1001 1001 1001 
1001 1001 1001 1001 1001 1001 1001 1001 1001 
1001 1001 1001 1001 1001 1001 1001 1001 1001 
1001 1001 1001 1001 1001 1001 1001 1001 1001 
1001 1001 1001 1001 1001 1001 1001 1001 1001 
1001 1001 1001 1001 1001 1001 1001 1001 1001 
1001 1001 1001 1001 1001 1001 1001 1001 1001 
1001 1001 1001 1001 1001 1001 1001 1001 1001 
1001 1001 1001 1001 1001 1001 1001 1001 1001 
1001 1001 1001 1001 1001 1001 1001 1001 1001 
1001 1001 1001 1001 1001 1001 1001 1001 1001 
1001 1001 1001 1001 1001 1001 1001 1001 1001 
1001 1001 1001 1001 1001 1001 1001 1001 1001 
1001 1001 1001 1001 1001 1001 1001 1001 1001 
1001 1001 1001 1001 1001 1001 1001 1001 1001 
1001 1001 1001 1001 1001 1001 1001 1001 1001 
1001 1001 1001 1001 1001 1001 1001 1001 1001 
1001 1001 1001 1001 1001 1001 1001 1001 1001 
1001 1001 1001 1001 1001 1001 1001 1001 1001 
1001 1001 1001 1001 1001 1001 1001 1001 1001 
1001 1001 1001 1001 1001 1001 1001 1001 1001 
1001 1001 1001 1001 1001 1001 1001 1001 1001 
1001 1001 1001 1001 1001 1001 1001 1001 1001 
1001 1001 1001 1001 1001 1001 1001 1001 1001 
1001 1001 1001 1001 1001 1001 1001 1001 1001 
1001 1001 1001 1001 1001 1001 1001 1001 1001 
1001 1001 1001 1001 1001 1001 1001 1001 1001 
1001 1001 1001 1001 1001 1001 1001 1001 1001 
1001 1001 1001 1001 1001 1001 1001 1001 1001 
1001 1001 1001 1001 1001 1001 1001 1001 1001 
1001 1001 1001 1001 1001 1001 1001 1001 1001 
1001 1001 1001 1001 1001 1001 1001 1001 1001 
1001 1001 1001 1001 1001 1001 1001 1001 1001 
1001 1001 1001 1001 1001 1001 1001 1001 1001 
1001 1001 1001 1001 1001 1001 1001 1001 1001 
1001 1001 1001 1001 1001 1001 1001 1001 1001 
1001 1001 1001 1001 1001 1001 1001 1001 1001 
1001 1001 1001 1001 1001 1001 1001 1001 1001 
1001 1001 1001 1001 1001 1001 1001 1001 1001 
1001 1001 1001 1001 1001 1001 1001 1001 1001 
1001 1001 1001 1001 1001 1001 1001 1001 1001 
1001 1001 1001 1001 1001 1001 1001 1001 1001 
1001 1001 1001 1001 1001 1001 1001 1001 1001 
1001 1001 1001 1001 1001 1001 1001 1001 1001 
1001 1001 1001 1001 1001 1001 1001 1001 1001 
1001 1001 1001 1001 1001 1001 1001 1001 1001 
1001 1001 1001 1001 1001 1001 1001 1001 1001 
1001 1001 1001 1001 1001 1001 1001 1001 1001 
1001 1001 1001 1001 1001 1001 1001 1001 1001 
1001 1001 1001 1001 1001 1001 1001 1001 1001 
1001 1001 1001 1001 1001 1001 1001 1001 1001 
1001 1001 1001 1001 1001 1001 1001 1001 1001 
1001 1001 1001 1001 1001 1001 1001 1001 1001 
1001 1001 1001 1001 1001 1001 1001 1001 1001 
1001 1001 1001 1001 1001 1001 1001 1001 1001 
1001 1001 1001 1001 1001 1001 1001 1001 1001 
1001 1001 1001 1001 1001 1001 1001 1001 1001 
1001 1001 1001 1001 1001 1001 1001 1001 1001 
1001 1001 1001 1001 1001 1001 1001 1001 1001 
1001 1001 1001 1001 1001 1001 1001 1001 1001 
1001 1001 1001 1001 1001 1001 1001 1001 1001 
1001 1001 1001 1001 1001 1001 1001 1001 1001 
1001 1001 1001 1001 1001 1001 1001 1001 1001 
1001 1001 1001 1001 1001 1001 1001 1001 1001 
1001 1001 1001 1001 1001 1001 1001 1001 1001 
1001 1001 1001 1001 1001 1001 1001 1001 1001 
1001 1001 1001 1001 1001 1001 1001 1001 1001 
1001 1001 1001 1001 1001 1001 1001 1001 1001 
1001 1001 1001 1001 1001 1001 1001 1001 1001 
1001 1001 1001 1001 1001 1001 1001 1001 1001 
1001 1001 1001 1001 1001 1001 1001 1001 1001 
1001 1001 1001 1001 1001 1001 1001 1001 1001 
1001 1001 1001 1001 1001 1001 1001 1001 1001 
1001 1001 1001 1001 1001 1001 1001 1001 1001 
1001 1001 1001 1001 1001 1001 1001 1001 1001 
1001 1001 1001 1001 1001 1001 1001 1001 1001 
1001 1001 1001 1001 1001 1001 1001 1001 1001 
1001 1001 1001 1001 1001 1001 1001 1001 1001 
1001 1001 1001 1001 1001 1001 1001 1001 1001 
1001 1001 1001 1001 1001 1001 1001 1001 1001 
1001 1001 1001 1001 1001 1001 1001 1001 1001 
1001 1001 1001 1001 1001 1001 1001 1001 1001 
1001 1001 1001 1001 1001 1001 1001 1001 1001 
1001 1001 1001 1001 1001 1001 1001 1001 1001 
1001 1001 1001 1001 1001 1001 1001 1001 1001 
1001 1001 1001 1001 1001 1001 1001 1001 1001 
1001 1001 1001 1001 1001 1001 1001 1001 1001 
1001 1001 1001 1001 1001 1001 1001 1001 1001 
1001 1001 1001 1001 1001 1001 1001 1001 1001 
1001 1001 1001 1001 1001 1001 1001 1001 1001 
1001 1001 1001 1001 1001 1001 1001 1001 1001 
1001 1001 1001 1001 1001 1001 1001 1001 1001 
1001 1001 1001 1001 1001 1001 1001 1001 1001 
1001 1001 1001 1001 1001 1001 1001 1001 1001 
1001 1001 1001 1001 1001 1001 1001 1001 1001 
1001 1001 1001 1001 1001 1001 1001 1001 1001 
1001 1001 1001 1001 1001 1001 1001 1001 1001 
1001 1001 1001 1001 1001 1001 1001 1001 1001 
1001 1001 1001 1001 1001 1001 1001 1001 1001 
1001 1001 1001 1001 1001 1001 1001 1001 1001 
1001 1001 1001 1001 1001 1001 1001 1001 1001 
1001 1001 1001 1001 1001 1001 1001 1001 1001 
1001 1001 1001 1001 1001 1001 1001 1001 1001 
1001 1001 1001 1001 1001 1001 1001 1001 1001 
1001 1001 1001 1001 1001 1001 1001 1001 1001 
1001 1001 1001 1001 1001 1001 1001 1001 1001 
1001 1001 1001 1001 1001 1001 1001 1001 1001 
1001 1001 1001 1001 1001 1001 1001 1001 1001 
1001 1001 1001 1001 1001 1001 1001 1001 1001 
1001 1001 1001 1001 1001 1001 1001 1001 1001 
1001 1001 1001 1001 1001 1001 1001 1001 1001 
1001 1001 1001 1001 1001 1001 1001 1001 1001 
1001 1001 1001 1001 1001 1001 1001 1001 1001 
1001 1001 1001 1001 1001 1001 1001 1001 1001 
1001 1001 1001 1001 1001 1001 1001 1001 1001 
1001 1001 1001 1001 1001 1001 1001 1001 1001 
1001 1001 1001 1001 1001 1001 1001 1001 1001 
1001 1001 1001 1001 1001 1001 1001 1001 1001 
1001 1001 1001 1001 1001 1001 1001 1001 1001 
1001 1001 1001 1001 1001 1001 1001 1001 1001 
1001 1001 1001 1001 1001 1001 1001 1001 1001 
1001 1001 1001 1001 1001 1001 1001 1001 1001 
1001 1001 1001 1001 1001 1001 1001 1001 1001 
1001 1001 1001 1001 1001 1001 1001 1001 1001 
1001 1001 1001 1001 1001 1001 1001 1001 1001 
1001 1001 1001 1001 1001 1001 1001 1001 1001 
1001 1001 1001 1001 1001 1001 1001 1001 1001 
1001 1001 1001 1001 1001 1001 1001 1001 1001 
1001 1001 1001 1001 1001 1001 1001 1001 1001 
1001 1001 1001 1001 1001 1001 1001 1001 1001 
1001 1001 1001 1001 1001 1001 1001 1001 1001 
1001 1001 1001 1001 1001 1001 1001 1001 1001 
1001 1001 1001 1001 1001 1001 1001 1001 1001 
1001 1001 1001 1001 1001 1001 1001 1001 1001 
1001 1001 1001 1001 1001 1001 1001 1001 1001 
1001 1001 1001 1001 1001 1001 1001 1001 1001 
1001 1001 1001 1001 1001 1001 1001 1001 1001 
1001 1001 1001 1001 1001 1001 1001 1001 1001 
1001 1001 1001 1001 1001 1001 1001 1001 1001 
1001 1001 1001 1001 1001 1001 1001 1001 1001 
1001 1001 1001 1001 1001 1001 1001 1001 1001 
1001 1001 1001 1001 1001 1001 1001 1001 1001 
1001 1001 1001 1001 1001 1001 1001 1001 1001 
1001 1001 1001 1001 1001 1001 1001 1001 1001 
1001 1001 1001 1001 1001 1001 1001 1001 1001 
1001 1001 1001 1001 1001 1001 1001 1001 1001 
1001 1001 1001 1001 1001 1001 1001 1001 1001 
1001 1001 1001 1001 1001 1001 1001 1001 1001 
1001 1001 1001 1001 1001 1001 1001 1001 1001 
1001 1001 1001 1001 1001 1001 1001 1001 1001 
1001 1001 1001 1001 1001 1001 1001 1001 1001 
1001 1001 1001 1001 1001 1001 1001 1001 1001 
1001 1001 1001 1001 1001 1001 1001 1001 1001 
1001 1001 1001 1001 1001 1001 1001 1001 1001 
1001 1001 1001 1001 1001 1001 1001 1001 1001 
1001 1001 1001 1001 1001 1001 1001 1001 1001 
1001 1001 1001 1001 1001 1001 1001 1001 1001 
1001 1001 1001 1001 1001 1001 1001 1001 1001 
1001 1001 1001 1001 1001 1001 1001 1001 1001 
1001 1001 1001 1001 1001 1001 1001 1001 1001 
1001 1001 1001 1001 1001 1001 1001 1001 1001 
1001 1001 1001 1001 1001 1001 1001 1001 1001 
1001 1001 1001 1001 1001 1001 1001 1001 1001 
1001 1001 1001 1001 1001 1001 1001 1001 1001 
1001 1001 1001 1001 1001 1001 1001 1001 1001 
1001 1001 1001 1001 1001 1001 1001 1001 1001 
1001 1001 1001 1001 1001 1001 1001 1001 1001 
1001 1001 1001 1001 1001 1001 1001 1001 1001 
1001 1001 1001 1001 1001 1001 1001 1001 1001 
1001 1001 1001 1001 1001 1001 1001 1001 1001 
1001 1001 1001 1001 1001 1001 1001 1001 1001 
1001 1001 1001 1001 1001 1001 1001 1001 1001 
1001 1001 1001 1001 1001 1001 1001 1001 1001 
1001 1001 1001 1001 1001 1001 1001 1001 1001 
1001 1001 1001 1001 1001 1001 1001 1001 1001 
1001 1001 1001 1001 1001 1001 1001 1001 1001 
1001 1001 1001 1001 1001 1001 1001 1001 1001 
1001 1001 1001 1001 1001 1001 1001 1001 1001 
1001 1001 1001 1001 1001 1001 1001 1001 1001 
1001 1001 1001 1001 1001 1001 1001 1001 1001 
1001 1001 1001 1001 1001 1001 1001 1001 1001 
1001 1001 1001 1001 1001 1001 1001 1001 1001 
1001 1001 1001 1001 1001 1001 1001 1001 1001 
1001 1001 1001 1001 1001 1001 1001 1001 1001 
1001 1001 1001 1001 1001 1001 1001 1001 1001 
1001 1001 1001 1001 1001 1001 1001 1001 1001 
1001 1001 1001 1001 1001 1001 1001 1001 1001 
1001 1001 1001 1001 1001 1001 1001 1001 1001 
1001 1001 1001 1001 1001 1001 1001 1001 1001 
1001 1001 1001 1001 1001 1001 1001 1001 1001 
1001 1001 1001 1001 1001 1001 1001 1001 1001 
1001 1001 1001 1001 1001 1001 1001 1001 1001 
1001 1001 1001 1001 1001 1001 1001 1001 1001 
1001 1001 1001 1001 1001 1001 1001 1001 1001 
1001 1001 1001 1001 1001 1001 1001 1001 1001 
1001 1001 1001 1001 1001 1001 1001 1001 1001 
1001 1001 1001 1001 1001 1001 1001 1001 1001 
1001 1001 1001 1001 1001 1001 1001 1001 1001 
1001 1001 1001 1001 1001 1001 1001 1001 1001 
1001 1001 1001 1001 1001 1001 1001 1001 1001 
1001 1001 1001 1001 1001 1001 1001 1001 1001 
1001 1001 1001 1001 1001 1001 1001 1001 1001 
1001 1001 1001 1001 1001 1001 1001 1001 1001 
1001 1001 1001 1001 1001 1001 1001 1001 1001 
1001 1001 1001 1001 1001 1001 1001 1001 1001 
1001 1001 1001 1001 1001 1001 1001 1001 1001 
1001 1001 1001 1001 1001 1001 1001 1001 1001 
1001 1001 1001 1001 1001 1001 1001 1001 1001 
1001 1001 1001 1001 1001 1001 1001 1001 1001 
1001 1001 1001 1001 1001 1001 1001 1001 1001 
1001 1001 1001 1001 1001 1001 1001 1001 1001 
1001 1001 1001 1001 1001 1001 1001 1001 1001 
1001 1001 1001 1001 1001 1001 1001 1001 1001 
1001 1001 1001 1001 1001 1001 1001 1001 1001 
1001 1001 1001 1001 1001 1001 1001 1001 1001 
1001 1001 1001 1001 1001 1001 1001 1001 1001 
1001 1001 1001 1001 1001 1001 1001 1001 1001 
1001 1001 1001 1001 1001 1001 1001 1001 1001 
1001 1001 1001 1001 1001 1001 1001 1001 1001 
1001 1001 1001 1001 1001 1001 1001 1001 1001 
1001 1001 1001 1001 1001 1001 1001 1001 1001 
1001 1001 1001 1001 1001 1001 1001 1001 1001 
1001 1001 1001 1001 1001 1001 1001 1001 1001 
1001 1001 1001 1001 1001 1001 1001 1001 1001 
1001 1001 1001 1001 1001 1001 1001 1001 1001 
1001 1001 1001 1001 1001 1001 1001 1001 1001 
1001 1001 1001 1001 1001 1001 1001 1001 1001 
1001 1001 1001 1001 1001 1001 1001 1001 1001 
1001 1001 1001 1001 1001 1001 1001 1001 1001 
1001 1001 1001 1001 1001 1001 1001 1001 1001 
1001 1001 1001 1001 1001 1001 1001 1001 1001 
1001 1001 1001 1001 1001 1001 1001 1001 1001 
1001 1001 1001 1001 1001 1001 1001 1001 1001 
1001 1001 1001 1001 1001 1001 1001 1001 1001 
1001 1001 1001 1001 1001 1001 1001 1001 1001 
1001 1001 1001 1001 1001 1001 1001 1001 1001 
1001 1001 1001 1001 1001 1001 1001 1001 1001 
1001 1001 1001 1001 1001 1001 1001 1001 1001 
1001 1001 1001 1001 1001 1001 1001 1001 1001 
1001 1001 1001 1001 1001 1001 1001 1001 1001 
1001 1001 1001 1001 1001 1001 1001 1001 1001 
1001 1001 1001 1001 1001 1001 1001 1001 1001 
1001 1001 1001 1001 1001 1001 1001 1001 1001 
1001 1001 1001 1001 1001 1001 1001 1001 1001 
1001 1001 1001 1001 1001 1001 1001 1001 1001 
1001 1001 1001 1001 1001 1001 1001 1001 1001 
1001 1001 1001 1001 1001 1001 1001 1001 1001 
1001 1001 1001 1001 1001 1001 1001 1001 1001 
1001 1001 1001 1001 1001 1001 1001 1001 1001 
1001 1001 1001 1001 1001 1001 1001 1001 1001 
1001 1001 1001 1001 1001 1001 1001 1001 1001 
1001 1001 1001 1001 1001 1001 1001 1001 1001 
1001 1001 1001 1001 1001 1001 1001 1001 1001 
1001 1001 1001 1001 1001 1001 1001 1001 1001 
1001 1001 1001 1001 1001 1001 1001 1001 1001 
1001 1001 1001 1001 1001 1001 1001 1001 1001 
1001 1001 1001 1001 1001 1001 1001 1001 1001 
1001 1001 1001 1001 1001 1001 1001 1001 1001 
1001 1001 1001 1001 1001 1001 1001 1001 1001 
1001 1001 1001 1001 1001 1001 1001 1001 1001 
1001 1001 1001 1001 1001 1001 1001 1001 1001 
1001 1001 1001 1001 1001 1001 1001 1001 1001 
1001 1001 1001 1001 1001 1001 1001 1001 1001 
1001 1001 1001 1001 1001 1001 1001 1001 1001 
1001 1001 1001 1001 1001 1001 1001 1001 1001 
1001 1001 1001 1001 1001 1001 1001 1001 1001 
1001 1001 1001 1001 1001 1001 1001 1001 1001 
1001 1001 1001 1001 1001 1001 1001 1001 1001 
1001 1001 1001 1001 1001 1001 1001 1001 1001 
1001 1001 1001 1001 1001 1001 1001 1001 1001 
1001 1001 1001 1001 1001 1001 1001 1001 1001 
1001 1001 1001 1001 1001 1001 1001 1001 1001 
1001 1001 1001 1001 1001 1001 1001 1001 1001 
1001 1001 1001 1001 1001 1001 1001 1001 1001 
1001 1001 1001 1001 1001 1001 1001 1001 1001 
1001 1001 1001 1001 1001 1001 1001 1001 1001 
1001 1001 1001 1001 1001 1001 1001 1001 1001 
1001 1001 1001 1001 1001 1001 1001 1001 1001 
1001 1001 1001 1001 1001 1001 1001 1001 1001 
1001 1001 1001 1001 1001 1001 1001 1001 1001 
1001 1001 1001 1001 1001 1001 1001 1001 1001 
1001 1001 1001 1001 1001 1001 1001 1001 1001 
1001 1001 1001 1001 1001 1001 1001 1001 1001 
1001 1001 1001 1001 1001 1001 1001 1001 1001 
1001 1001 1001 1001 1001 1001 1001 1001 1001 
1001 1001 1001 1001 1001 1001 1001 1001 1001 
1001 1001 1001 1001 1001 1001 1001 1001 1001 
1001 1001 1001 1001 1001 1001 1001 1001 1001 
1001 1001 1001 1001 1001 1001 1001 1001 1001 
1001 1001 1001 1001 1001 1001 1001 1001 1001 
1001 1001 1001 1001 1001 1001 1001 1001 1001 
1001 1001 1001 1001 1001 1001 1001 1001 1001 
1001 1001 1001 1001 1001 1001 1001 1001 1001 
1001 1001 1001 1001 1001 1001 1001 1001 1001 
1001 1001 1001 1001 1001 1001 1001 1001 1001 
1001 1001 1001 1001 1001 1001 1001 1001 1001 
1001 1001 1001 1001 1001 1001 1001 1001 1001 
1001 1001 1001 1001 1001 1001 1001 1001 1001 