# vtk DataFile Version 4.2
vtk output
ASCII
DATASET POLYDATA
POINTS 13744 float
29.3537 26.7274 -31.5561 29.4582 26.3915 -31.33 29.5279 26.3645 -31.617 
28.9977 26.4364 -31.3347 29.0629 26.3596 -31.7584 28.4357 25.8626 -30.8111 
28.4011 25.2017 -30.169 28.8436 25.5681 -30.4408 27.76 25.4033 -30.5013 
29.2446 25.7268 -30.8498 29.673 25.581 -31.3257 28.4564 26.1025 -31.516 
27.7408 25.3693 -31.4191 29.376 25.4912 -32.011 28.4051 25.6077 -32.0176 
28.1515 25.7724 -33.7924 28.4501 25.3806 -33.2 28.5259 25.6365 -33.8322 
27.9226 25.2865 -33.3326 28.3287 25.809 -34.3677 28.792 25.3597 -34.4784 
27.932 25.4218 -34.2344 28.3336 25.2359 -34.8589 29.157 25.133 -30.3504 
29.1233 24.3476 -30.1369 29.6415 24.7717 -30.7255 28.1509 24.3671 -29.9307 
27.2225 25.0018 -30.7961 27.3577 24.6301 -30.1271 26.7417 24.3078 -30.6287 
30.0569 24.3806 -31.7109 27.2393 24.9323 -31.3798 26.974 24.5409 -31.2523 
30.1315 24.767 -32.307 30.4038 24.4581 -32.2302 30.4776 24.4804 -32.471 
29.2976 24.9441 -32.7272 28.4236 25.2438 -32.5974 27.7795 24.818 -32.522 
27.3285 24.3513 -31.8722 30.1093 24.5137 -32.6603 29.6024 24.2971 -33.0821 
29.0327 24.8792 -33.6086 27.7078 24.5218 -33.5753 29.2589 24.7767 -34.4506 
29.412 24.3284 -33.9898 29.5643 24.1205 -34.5758 27.8613 24.4915 -34.5184 
28.9929 24.5544 -35.0064 28.2814 24.3359 -35.0371 27.3436 24.7664 -40.8363 
27.4591 24.4549 -40.2056 27.895 24.6313 -40.6358 26.9545 24.4496 -40.3885 
29.0211 24.7533 -41.5896 29.46 24.4284 -41.1924 29.6032 24.4512 -41.7049 
28.0471 24.9187 -41.4851 28.6771 24.5494 -40.9178 27.2864 24.8775 -41.6755 
26.7696 24.5507 -41.222 29.1873 24.6108 -42.1512 28.782 24.4795 -42.7451 
28.5033 24.8411 -42.305 27.6266 24.8471 -42.4126 26.8444 24.5574 -42.2248 
28.0191 24.5217 -43.0189 27.212 24.466 -42.9234 29.5779 23.2927 -30.1016 
29.9352 23.8386 -30.6614 28.6203 23.4476 -29.8275 27.373 23.5856 -29.816 
26.3114 23.7705 -30.6614 26.5094 23.7496 -30.168 25.9157 23.2078 -30.607 
30.2896 23.7199 -31.3189 30.4033 23.3413 -30.8822 30.5905 23.2244 -31.3198 
26.7155 23.6662 -31.4662 26.1908 23.5342 -30.9956 30.171 24.1335 -32.591 
30.4499 23.4013 -31.9478 30.1315 23.5624 -32.6114 27.7728 23.6756 -32.7616 
27.5721 23.2624 -32.0375 29.7618 23.664 -33.6175 29.3639 24.1851 -33.5355 
27.8638 23.5699 -33.8809 29.5909 23.3694 -34.4981 28.0109 23.6676 -34.6759 
29.3221 23.6776 -34.9416 28.6272 23.5941 -34.9731 37.979 23.843 -38.6532 
38.4345 23.4648 -38.1272 38.753 23.538 -38.836 37.2898 23.8045 -38.7442 
37.6589 23.5371 -38.0388 36.9553 23.4525 -38.4347 38.1583 23.8627 -39.4849 
38.6885 23.5143 -39.6389 37.4244 23.9252 -39.5317 36.7845 23.4367 -39.4481 
29.1622 23.8236 -39.7104 29.263 23.4961 -39.1396 29.839 23.4869 -39.5188 
28.1785 23.8506 -39.4552 28.6065 23.4989 -38.9981 27.1493 24.0218 -39.7042 
27.5803 23.5192 -38.9586 26.0698 23.8346 -39.7754 26.3777 23.3119 -38.9636 
25.6841 23.3933 -39.4256 38.1573 23.6539 -40.1753 37.7881 23.333 -40.8009 
37.561 23.7951 -40.3273 37.0453 23.5703 -40.297 33.147 23.8739 -40.7381 
33.441 23.4656 -40.1479 33.9474 23.6057 -40.6587 32.0637 23.9022 -40.6481 
32.5748 23.5117 -39.998 31.0772 23.8803 -40.6438 31.575 23.5109 -40.0299 
30.1477 23.8617 -40.3352 30.6693 23.4967 -39.9527 29.3719 24.1477 -40.6132 
28.2647 24.2013 -40.1364 26.263 24.1645 -40.6209 25.4257 23.6153 -39.9528 
25.4333 23.8422 -40.5838 24.984 23.2619 -40.3172 37.2024 23.285 -40.7742 
34.0251 23.8044 -41.4183 34.5232 23.4557 -41.0723 34.6217 23.4649 -41.6919 
33.2096 24.0421 -41.6526 32.3552 24.0543 -41.5225 31.3323 24.0204 -41.5148 
30.1998 24.1138 -41.3824 26.1268 24.2025 -41.7977 25.4021 23.9273 -41.523 
24.7753 23.3856 -41.2558 34.2095 23.6152 -42.1387 33.7877 23.4787 -42.7288 
33.5424 23.8379 -42.2749 32.6245 23.9134 -42.3817 31.6168 23.8773 -42.38 
30.4633 23.8795 -42.5089 29.4908 24.1874 -42.4919 26.3553 24.1435 -42.8505 
25.4052 23.9179 -42.5491 24.749 23.5725 -42.2949 33.0008 23.5188 -42.9935 
32.0134 23.5173 -43.0528 31.0094 23.5064 -43.0607 30.1987 23.5444 -43.2214 
29.6962 23.4031 -43.721 29.5234 23.7733 -43.2862 28.5931 24.0051 -43.4023 
27.3927 24.0126 -43.4725 26.4424 23.8585 -43.5472 25.6025 23.8231 -43.4036 
24.74 23.3631 -43.4561 28.9856 23.4652 -43.9821 28.0426 23.4908 -44.0653 
27.0083 23.5168 -44.0442 26.0197 23.5395 -44.0256 25.256 23.3824 -44.0403 
36.2145 22.7741 -28.6358 36.59 22.316 -28.1451 36.792 22.5976 -28.7582 
36.0413 22.3301 -28.3962 36.1273 22.8927 -29.5345 36.8616 22.5634 -29.7359 
35.7648 22.3505 -29.2135 27.9863 22.9214 -29.4553 28.1813 22.1473 -29.1756 
28.6919 22.5765 -29.5306 27.1561 22.8478 -29.5182 27.5077 22.4394 -29.1961 
26.8088 22.1658 -29.4479 38.2251 22.6631 -30.6142 38.3231 22.4973 -30.2999 
38.4566 22.6018 -30.6901 38.1442 22.4927 -30.457 36.1701 22.8734 -30.4426 
36.6902 22.4569 -30.579 35.4509 22.6241 -29.9839 35.2643 22.9281 -30.6315 
34.8509 22.2633 -30.5385 30.2109 23.0827 -30.4203 30.1259 22.2996 -30.166 
30.6223 22.7093 -30.7631 29.2631 22.4823 -29.833 26.3766 22.7832 -29.9595 
25.6821 22.2589 -30.5032 38.1495 22.7966 -31.5194 38.5485 22.5627 -31.4744 
38.0305 22.528 -31.0871 36.169 22.6175 -31.1015 35.8762 22.5318 -31.894 
35.5099 22.9229 -31.3446 34.2968 22.4472 -31.0364 34.6483 22.8479 -31.6189 
33.8809 22.3968 -31.4473 30.946 22.6144 -31.5119 25.9575 23.2088 -31.3854 
25.3801 22.6804 -31.0831 25.515 22.7863 -31.7918 25.0473 22.3033 -31.43 
38.3299 22.7996 -32.2881 38.7281 22.3037 -32.3698 37.6308 22.3398 -31.8893 
37.6498 22.7784 -32.5072 37.039 22.4572 -32.4389 35.2355 22.7658 -32.2233 
35.6466 22.4175 -32.6613 34.7148 22.6421 -32.3662 34.1509 22.4931 -31.9628 
30.9807 22.8088 -32.4673 31.4848 22.3864 -32.0756 31.5723 22.4149 -32.6647 
30.424 23.1708 -32.6079 28.1696 22.8822 -32.4557 28.6003 22.3834 -32.6536 
28.0955 22.257 -32.0849 27.2017 22.6644 -32.0449 26.3456 22.8711 -32.2087 
26.7553 22.1155 -32.679 25.8693 22.4542 -32.5246 25.2588 22.1485 -31.9697 
38.0009 22.5301 -32.9812 37.2107 22.4653 -32.9478 35.142 22.4574 -32.7991 
31.1368 22.5732 -33.1325 30.7597 22.4307 -33.863 30.3786 22.9454 -33.3768 
28.3884 22.8797 -33.4088 28.9983 22.3534 -33.4524 26.3283 22.474 -32.8154 
25.4525 22.4035 -33.3417 25.7247 22.3882 -33.8963 25.2276 22.773 -33.7705 
25.0539 22.3246 -33.5295 30.2704 22.6714 -34.3618 30.4829 22.3585 -34.4675 
29.6519 22.7397 -34.0979 29.9484 22.4432 -34.4507 29.0116 22.9635 -34.42 
28.2847 23.1218 -34.3791 25.3391 22.7969 -34.3416 25.5863 22.33 -34.7976 
24.9629 22.3595 -34.3503 38.1255 22.8232 -35.6955 38.4328 22.4351 -35.1325 
38.9056 22.5744 -35.6327 37.1018 22.8066 -35.7407 37.6403 22.4703 -35.0494 
36.8791 22.4344 -35.3468 30.2795 22.5186 -34.702 25.2107 22.4633 -34.9859 
39.0019 22.8201 -36.4407 39.4885 22.4301 -36.0737 39.7915 22.4883 -36.8331 
38.1317 23.0245 -36.5939 37.2767 23.0334 -36.479 36.4224 22.6022 -35.9514 
36.245 22.8517 -36.6398 35.848 22.4727 -36.3974 39.4832 22.8734 -37.5011 
40.04 22.5644 -37.608 38.4747 23.1379 -37.437 37.2831 23.1727 -37.5128 
36.4829 23.0391 -37.3627 35.2207 22.3335 -36.9434 35.6202 22.7589 -37.6716 
34.8835 22.3039 -37.5114 40.0188 22.8298 -38.4627 40.4251 22.3343 -37.9645 
40.6522 22.3751 -38.6432 39.1802 23.1601 -38.288 36.1783 22.9997 -38.5842 
35.5653 22.5752 -38.3977 35.1475 22.4183 -37.9924 34.1633 22.1814 -38.1213 
34.8535 22.4749 -38.5571 34.2125 22.7409 -38.8627 33.7484 22.3164 -38.4315 
29.2353 23.0089 -38.6889 29.2373 22.4881 -38.1208 29.7966 22.4747 -38.5118 
28.091 23.034 -38.4675 28.5687 22.5098 -37.994 27.0359 23.0054 -38.4676 
27.3927 22.3992 -37.9839 26.3531 22.8744 -38.4594 26.3387 22.3622 -38.1776 
25.7653 22.4865 -38.4826 40.2155 22.8055 -39.4634 40.7988 22.3762 -39.3032 
39.356 23.163 -39.4167 36.1519 22.9181 -39.7419 35.4692 22.5849 -38.7869 
35.2001 22.8798 -39.3821 34.3155 23.0132 -39.5253 33.4181 22.5661 -38.8564 
33.3404 23.0203 -39.5037 32.0578 23.0012 -39.5227 32.5592 22.4886 -39.0234 
31.0681 22.9957 -39.5414 31.5323 22.4626 -39.0807 30.2051 22.9957 -39.2706 
30.6098 22.4673 -38.9717 25.2111 23.1287 -39.6613 25.4393 22.7694 -39.0492 
24.9107 22.3628 -39.4493 40.4481 22.435 -40.0353 39.7505 22.5002 -40.7434 
39.3915 22.8924 -40.4461 38.5965 23.2733 -40.3867 36.713 22.8546 -40.3803 
36.165 22.5372 -40.2672 35.8764 22.2817 -40.8179 35.5247 22.8189 -40.2931 
34.423 23.1764 -40.2723 24.5883 22.4635 -40.395 39.1365 22.6515 -41.1805 
38.8865 22.4027 -41.6775 38.3551 22.831 -41.262 37.2588 22.408 -41.0609 
37.9132 22.4157 -41.5641 35.1168 23.0121 -41.3472 35.6281 22.4512 -41.6783 
24.3246 22.7156 -41.1444 24.2546 23.0195 -41.8793 23.9524 22.2267 -41.3225 
38.3616 22.186 -41.8293 35.187 22.8396 -42.47 35.6318 22.1661 -42.5923 
34.4818 23.2187 -42.5034 24.2345 23.0772 -42.8346 23.8626 22.3742 -42.297 
35.1868 22.6028 -43.1748 34.925 22.3861 -43.6761 34.5652 22.8404 -43.3064 
33.6066 23.0199 -43.3953 32.3731 23.0287 -43.6816 31.2837 23.1428 -43.6869 
30.356 23.2071 -43.7095 24.2259 22.9583 -43.5125 23.8808 22.2864 -43.3935 
34.2423 22.3826 -43.8812 33.1856 22.4262 -44.0712 32.239 22.6056 -44.2321 
31.8705 22.3535 -44.6182 31.5029 22.7931 -44.2968 30.5795 22.86 -44.3919 
29.5803 22.9914 -44.3894 28.5456 22.9797 -44.5581 27.4 23.0031 -44.6518 
26.4536 23.1966 -44.52 25.5893 22.9817 -44.7289 24.7234 22.5231 -44.6116 
24.2071 22.5253 -44.0957 31.1128 22.2504 -44.8607 30.1278 22.4924 -44.8859 
29.2027 22.3935 -45.0491 28.0501 22.5072 -45.07 27.1816 22.5961 -45.1944 
26.773 22.5148 -45.5237 26.4087 22.7906 -45.2026 25.6337 22.3408 -45.6369 
25.1557 22.3769 -45.1947 26.4266 22.2708 -45.9454 37.2249 22.0394 -28.3822 
37.2118 21.4541 -28.08 37.6576 21.4857 -28.6148 36.4598 21.5972 -28.0756 
35.9401 21.4635 -28.7539 37.4068 22.0337 -29.1674 37.7684 21.3294 -29.4323 
35.5849 21.3762 -29.5112 28.0873 21.4268 -29.2105 28.7757 21.7706 -29.4686 
27.4153 21.7424 -29.1505 26.8426 21.5454 -29.4336 38.331 22.3926 -30.7301 
37.2542 22.0019 -30.3704 37.6578 21.3225 -30.5352 35.2773 21.8168 -30.0096 
34.8051 21.264 -30.5659 30.411 21.1463 -30.0735 30.9179 21.8431 -30.674 
29.3086 21.3685 -29.8401 26.4077 21.541 -29.9789 25.85 21.3946 -30.565 
[...]
CELL_DATA 27532
SCALARS scalars float
LOOKUP_TABLE default
2009 2009 2009 2009 2009 2009 2009 2009 2009 
2009 2009 2009 2009 2009 2009 2009 2009 2009 
2009 2009 2009 2009 2009 2009 2009 2009 2009 
2009 2009 2009 2009 2009 2009 2009 2009 2009 
2009 2009 2009 2009 2009 2009 2009 2009 2009 
2009 2009 2009 2009 2009 2009 2009 2009 2009 
2009 2009 2009 2009 2009 2009 2009 2009 2009 
2009 2009 2009 2009 2009 2009 2009 2009 2009 
2009 2009 2009 2009 2009 2009 2009 2009 2009 
2009 2009 2009 2009 2009 2009 2009 2009 2009 
2009 2009 2009 2009 2009 2009 2009 2009 2009 
2009 2009 2009 2009 2009 2009 2009 2009 2009 
2009 2009 2009 2009 2009 2009 2009 2009 2009 
2009 2009 2009 2009 2009 2009 2009 2009 2009 
2009 2009 2009 2009 2009 2009 2009 2009 2009 
2009 2009 2009 2009 2009 2009 2009 2009 2009 
2009 2009 2009 2009 2009 2009 2009 2009 2009 
2009 2009 2009 2009 2009 2009 2009 2009 2009 
2009 2009 2009 2009 2009 2009 2009 2009 2009 
2009 2009 2009 2009 2009 2009 2009 2009 2009 
2009 2009 2009 2009 2009 2009 2009 2009 2009 
2009 2009 2009 2009 2009 2009 2009 2009 2009 
2009 2009 2009 2009 2009 2009 2009 2009 2009 
2009 2009 2009 2009 2009 2009 2009 2009 2009 
2009 2009 2009 2009 2009 2009 2009 2009 2009 
2009 2009 2009 2009 2009 2009 2009 2009 2009 
2009 2009 2009 2009 2009 2009 2009 2009 2009 
2009 2009 2009 2009 2009 2009 2009 2009 2009 
2009 2009 2009 2009 2009 2009 2009 2009 2009 
2009 2009 2009 2009 2009 2009 2009 2009 2009 
2009 2009 2009 2009 2009 2009 2009 2009 2009 
2009 2009 2009 2009 2009 2009 2009 2009 2009 
2009 2009 2009 2009 2009 2009 2009 2009 2009 
2009 2009 2009 2009 2009 2009 2009 2009 2009 
2009 2009 2009 2009 2009 2009 2009 2009 2009 
2009 2009 2009 2009 2009 2009 2009 2009 2009 
2009 2009 2009 2009 2009 2009 2009 2009 2009 
2009 2009 2009 2009 2009 2009 2009 2009 2009 
2009 2009 2009 2009 2009 2009 2009 2009 2009 
2009 2009 2009 2009 2009 2009 2009 2009 2009 
2009 2009 2009 2009 2009 2009 2009 2009 2009 
2009 2009 2009 2009 2009 2009 2009 2009 2009 
2009 2009 2009 2009 2009 2009 2009 2009 2009 
2009 2009 2009 2009 2009 2009 2009 2009 2009 
2009 2009 2009 2009 2009 2009 2009 2009 2009 
2009 2009 2009 2009 2009 2009 2009 2009 2009 
2009 2009 2009 2009 2009 2009 2009 2009 2009 
2009 2009 2009 2009 2009 2009 2009 2009 2009 
2009 2009 2009 2009 2009 2009 2009 2009 2009 
2009 2009 2009 2009 2009 2009 2009 2009 2009 
2009 2009 2009 2009 2009 2009 2009 2009 2009 
2009 2009 2009 2009 2009 2009 2009 2009 2009 
2009 2009 2009 2009 2009 2009 2009 2009 2009 
2009 2009 2009 2009 2009 2009 2009 2009 2009 
2009 2009 2009 2009 2009 2009 2009 2009 2009 
2009 2009 2009 2009 2009 2009 2009 2009 2009 
2009 2009 2009 2009 2009 2009 2009 2009 2009 
2009 2009 2009 2009 2009 2009 2009 2009 2009 
2009 2009 2009 2009 2009 2009 2009 2009 2009 
2009 2009 2009 2009 2009 2009 2009 2009 2009 
2009 2009 2009 2009 2009 2009 2009 2009 2009 
2009 2009 2009 2009 2009 2009 2009 2009 2009 
2009 2009 2009 2009 2009 2009 2009 2009 2009 
2009 2009 2009 2009 2009 2009 2009 2009 2009 
2009 2009 2009 2009 2009 2009 2009 2009 2009 
2009 2009 2009 2009 2009 2009 2009 2009 2009 
2009 2009 2009 2009 2009 2009 2009 2009 2009 
2009 2009 2009 2009 2009 2009 2009 2009 2009 
2009 2009 2009 2009 2009 2009 2009 2009 2009 
2009 2009 2009 2009 2009 2009 2009 2009 2009 
2009 2009 2009 2009 2009 2009 2009 2009 2009 
2009 2009 2009 2009 2009 2009 2009 2009 2009 
2009 2009 2009 2009 2009 2009 2009 2009 2009 
2009 2009 2009 2009 2009 2009 2009 2009 2009 
2009 2009 2009 2009 2009 2009 2009 2009 2009 
2009 2009 2009 2009 2009 2009 2009 2009 2009 
2009 2009 2009 2009 2009 2009 2009 2009 2009 
2009 2009 2009 2009 2009 2009 2009 2009 2009 
2009 2009 2009 2009 2009 2009 2009 2009 2009 
2009 2009 2009 2009 2009 2009 2009 2009 2009 
2009 2009 2009 2009 2009 2009 2009 2009 2009 
2009 2009 2009 2009 2009 2009 2009 2009 2009 
2009 2009 2009 2009 2009 2009 2009 2009 2009 
2009 2009 2009 2009 2009 2009 2009 2009 2009 
2009 2009 2009 2009 2009 2009 2009 2009 2009 
2009 2009 2009 2009 2009 2009 2009 2009 2009 
2009 2009 2009 2009 2009 2009 2009 2009 2009 
2009 2009 2009 2009 2009 2009 2009 2009 2009 
2009 2009 2009 2009 2009 2009 2009 2009 2009 
2009 2009 2009 2009 2009 2009 2009 2009 2009 
2009 2009 2009 2009 2009 2009 2009 2009 2009 
2009 2009 2009 2009 2009 2009 2009 2009 2009 
2009 2009 2009 2009 2009 2009 2009 2009 2009 
2009 2009 2009 2009 2009 2009 2009 2009 2009 
2009 2009 2009 2009 2009 2009 2009 2009 2009 
2009 2009 2009 2009 2009 2009 2009 2009 2009 
2009 2009 2009 2009 2009 2009 2009 2009 2009 
2009 2009 2009 2009 2009 2009 2009 2009 2009 
2009 2009 2009 2009 2009 2009 2009 2009 2009 
2009 2009 2009 2009 2009 2009 2009 2009 2009 
2009 2009 2009 2009 2009 2009 2009 2009 2009 
2009 2009 2009 2009 2009 2009 2009 2009 2009 
2009 2009 2009 2009 2009 2009 2009 2009 2009 
2009 2009 2009 2009 2009 2009 2009 2009 2009 
2009 2009 2009 2009 2009 2009 2009 2009 2009 
2009 2009 2009 2009 2009 2009 2009 2009 2009 
2009 2009 2009 2009 2009 2009 2009 2009 2009 
2009 2009 2009 2009 2009 2009 2009 2009 2009 
2009 2009 2009 2009 2009 2009 2009 2009 2009 
2009 2009 2009 2009 2009 2009 2009 2009 2009 
2009 2009 2009 2009 2009 2009 2009 2009 2009 
2009 2009 2009 2009 2009 2009 2009 2009 2009 
2009 2009 2009 2009 2009 2009 2009 2009 2009 
2009 2009 2009 2009 2009 2009 2009 2009 2009 
2009 2009 2009 2009 2009 2009 2009 2009 2009 
2009 2009 2009 2009 2009 2009 2009 2009 2009 
2009 2009 2009 2009 2009 2009 2009 2009 2009 
2009 2009 2009 2009 2009 2009 2009 2009 2009 
2009 2009 2009 2009 2009 2009 2009 2009 2009 
2009 2009 2009 2009 2009 2009 2009 2009 2009 
2009 2009 2009 2009 2009 2009 2009 2009 2009 
2009 2009 2009 2009 2009 2009 2009 2009 2009 
2009 2009 2009 2009 2009 2009 2009 2009 2009 
2009 2009 2009 2009 2009 2009 2009 2009 2009 
2009 2009 2009 2009 2009 2009 2009 2009 2009 
2009 2009 2009 2009 2009 2009 2009 2009 2009 
2009 2009 2009 2009 2009 2009 2009 2009 2009 
2009 2009 2009 2009 2009 2009 2009 2009 2009 
2009 2009 2009 2009 2009 2009 2009 2009 2009 
2009 2009 2009 2009 2009 2009 2009 2009 2009 
2009 2009 2009 2009 2009 2009 2009 2009 2009 
2009 2009 2009 2009 2009 2009 2009 2009 2009 
2009 2009 2009 2009 2009 2009 2009 2009 2009 
2009 2009 2009 2009 2009 2009 2009 2009 2009 
2009 2009 2009 2009 2009 2009 2009 2009 2009 
2009 2009 2009 2009 2009 2009 2009 2009 2009 
2009 2009 2009 2009 2009 2009 2009 2009 2009 
2009 2009 2009 2009 2009 2009 2009 2009 2009 
2009 2009 2009 2009 2009 2009 2009 2009 2009 
2009 2009 2009 2009 2009 2009 2009 2009 2009 
2009 2009 2009 2009 2009 2009 2009 2009 2009 
2009 2009 2009 2009 2009 2009 2009 2009 2009 
2009 2009 2009 2009 2009 2009 2009 2009 2009 
2009 2009 2009 2009 2009 2009 2009 2009 2009 
2009 2009 2009 2009 2009 2009 2009 2009 2009 
2009 2009 2009 2009 2009 2009 2009 2009 2009 
2009 2009 2009 2009 2009 2009 2009 2009 2009 
2009 2009 2009 2009 2009 2009 2009 2009 2009 
2009 2009 2009 2009 2009 2009 2009 2009 2009 
2009 2009 2009 2009 2009 2009 2009 2009 2009 
2009 2009 2009 2009 2009 2009 2009 2009 2009 
2009 2009 2009 2009 2009 2009 2009 2009 2009 
2009 2009 2009 2009 2009 2009 2009 2009 2009 
2009 2009 2009 2009 2009 2009 2009 2009 2009 
2009 2009 2009 2009 2009 2009 2009 2009 2009 
2009 2009 2009 2009 2009 2009 2009 2009 2009 
2009 2009 2009 2009 2009 2009 2009 2009 2009 
2009 2009 2009 2009 2009 2009 2009 2009 2009 
2009 2009 2009 2009 2009 2009 2009 2009 2009 
2009 2009 2009 2009 2009 2009 2009 2009 2009 
2009 2009 2009 2009 2009 2009 2009 2009 2009 
2009 2009 2009 2009 2009 2009 2009 2009 2009 
2009 2009 2009 2009 2009 2009 2009 2009 2009 
2009 2009 2009 2009 2009 2009 2009 2009 2009 
2009 2009 2009 2009 2009 2009 2009 2009 2009 
2009 2009 2009 2009 2009 2009 2009 2009 2009 
2009 2009 2009 2009 2009 2009 2009 2009 2009 
2009 2009 2009 2009 2009 2009 2009 2009 2009 
2009 2009 2009 2009 2009 2009 2009 2009 2009 
2009 2009 2009 2009 2009 2009 2009 2009 2009 
2009 2009 2009 2009 2009 2009 2009 2009 2009 
2009 2009 2009 2009 2009 2009 2009 2009 2009 
2009 2009 2009 2009 2009 2009 2009 2009 2009 
2009 2009 2009 2009 2009 2009 2009 2009 2009 
2009 2009 2009 2009 2009 2009 2009 2009 2009 
2009 2009 2009 2009 2009 2009 2009 2009 2009 
2009 2009 2009 2009 2009 2009 2009 2009 2009 
2009 2009 2009 2009 2009 2009 2009 2009 2009 
2009 2009 2009 2009 2009 2009 2009 2009 2009 
2009 2009 2009 2009 2009 2009 2009 2009 2009 
2009 2009 2009 2009 2009 2009 2009 2009 2009 
2009 2009 2009 2009 2009 2009 2009 2009 2009 
2009 2009 2009 2009 2009 2009 2009 2009 2009 
2009 2009 2009 2009 2009 2009 2009 2009 2009 
2009 2009 2009 2009 2009 2009 2009 2009 2009 
2009 2009 2009 2009 2009 2009 2009 2009 2009 
2009 2009 2009 2009 2009 2009 2009 2009 2009 
2009 2009 2009 2009 2009 2009 2009 2009 2009 
2009 2009 2009 2009 2009 2009 2009 2009 2009 
2009 2009 2009 2009 2009 2009 2009 2009 2009 
2009 2009 2009 2009 2009 2009 2009 2009 2009 
2009 2009 2009 2009 2009 2009 2009 2009 2009 
2009 2009 2009 2009 2009 2009 2009 2009 2009 
2009 2009 2009 2009 2009 2009 2009 2009 2009 
2009 2009 2009 2009 2009 2009 2009 2009 2009 
2009 2009 2009 2009 2009 2009 2009 2009 2009 
2009 2009 2009 2009 2009 2009 2009 2009 2009 
2009 2009 2009 2009 2009 2009 2009 2009 2009 
2009 2009 2009 2009 2009 2009 2009 2009 2009 
2009 2009 2009 2009 2009 2009 2009 2009 2009 
2009 2009 2009 2009 2009 2009 2009 2009 2009 
2009 2009 2009 2009 2009 2009 2009 2009 2009 
2009 2009 2009 2009 2009 2009 2009 2009 2009 
2009 2009 2009 2009 2009 2009 2009 2009 2009 
2009 2009 2009 2009 2009 2009 2009 2009 2009 
2009 2009 2009 2009 2009 2009 2009 2009 2009 
2009 2009 2009 2009 2009 2009 2009 2009 2009 
2009 2009 2009 2009 2009 2009 2009 2009 2009 
2009 2009 2009 2009 2009 2009 2009 2009 2009 
2009 2009 2009 2009 2009 2009 2009 2009 2009 
2009 2009 2009 2009 2009 2009 2009 2009 2009 
2009 2009 2009 2009 2009 2009 2009 2009 2009 
2009 2009 2009 2009 2009 2009 2009 2009 2009 
2009 2009 2009 2009 2009 2009 2009 2009 2009 
2009 2009 2009 2009 2009 2009 2009 2009 2009 
2009 2009 2009 2009 2009 2009 2009 2009 2009 
2009 2009 2009 2009 2009 2009 2009 2009 2009 
2009 2009 2009 2009 2009 2009 2009 2009 2009 
2009 2009 2009 2009 2009 2009 2009 2009 2009 
2009 2009 2009 2009 2009 2009 2009 2009 2009 
2009 2009 2009 2009 2009 2009 2009 2009 2009 
2009 2009 2009 2009 2009 2009 2009 2009 2009 
2009 2009 2009 2009 2009 2009 2009 2009 2009 
2009 2009 2009 2009 2009 2009 2009 2009 2009 
2009 2009 2009 2009 2009 2009 2009 2009 2009 
2009 2009 2009 2009 2009 2009 2009 2009 2009 
2009 2009 2009 2009 2009 2009 2009 2009 2009 
2009 2009 2009 2009 2009 2009 2009 2009 2009 
2009 2009 2009 2009 2009 2009 2009 2009 2009 
2009 2009 2009 2009 2009 2009 2009 2009 2009 
2009 2009 2009 2009 2009 2009 2009 2009 2009 
2009 2009 2009 2009 2009 2009 2009 2009 2009 
2009 2009 2009 2009 2009 2009 2009 2009 2009 
2009 2009 2009 2009 2009 2009 2009 2009 2009 
2009 2009 2009 2009 2009 2009 2009 2009 2009 
2009 2009 2009 2009 2009 2009 2009 2009 2009 
2009 2009 2009 2009 2009 2009 2009 2009 2009 
2009 2009 2009 2009 2009 2009 2009 2009 2009 
2009 2009 2009 2009 2009 2009 2009 2009 2009 
2009 2009 2009 2009 2009 2009 2009 2009 2009 
2009 2009 2009 2009 2009 2009 2009 2009 2009 
2009 2009 2009 2009 2009 2009 2009 2009 2009 
2009 2009 2009 2009 2009 2009 2009 2009 2009 
2009 2009 2009 2009 2009 2009 2009 2009 2009 
2009 2009 2009 2009 2009 2009 2009 2009 2009 
2009 2009 2009 2009 2009 2009 2009 2009 2009 
2009 2009 2009 2009 2009 2009 2009 2009 2009 
2009 2009 2009 2009 2009 2009 2009 2009 2009 
2009 2009 2009 2009 2009 2009 2009 2009 2009 
2009 2009 2009 2009 2009 2009 2009 2009 2009 
2009 2009 2009 2009 2009 2009 2009 2009 2009 
2009 2009 2009 2009 2009 2009 2009 2009 2009 
2009 2009 2009 2009 2009 2009 2009 2009 2009 
2009 2009 2009 2009 2009 2009 2009 2009 2009 
2009 2009 2009 2009 2009 2009 2009 2009 2009 
2009 2009 2009 2009 2009 2009 2009 2009 2009 
2009 2009 2009 2009 2009 2009 2009 2009 2009 
2009 2009 2009 2009 2009 2009 2009 2009 2009 
2009 2009 2009 2009 2009 2009 2009 2009 2009 
2009 2009 2009 2009 2009 2009 2009 2009 2009 
2009 2009 2009 2009 2009 2009 2009 2009 2009 
2009 2009 2009 2009 2009 2009 2009 2009 2009 
2009 2009 2009 2009 2009 2009 2009 2009 2009 
2009 2009 2009 2009 2009 2009 2009 2009 2009 
2009 2009 2009 2009 2009 2009 2009 2009 2009 
2009 2009 2009 2009 2009 2009 2009 2009 2009 
2009 2009 2009 2009 2009 2009 2009 2009 2009 
2009 2009 2009 2009 2009 2009 2009 2009 2009 
2009 2009 2009 2009 2009 2009 2009 2009 2009 
2009 2009 2009 2009 2009 2009 2009 2009 2009 
2009 2009 2009 2009 2009 2009 2009 2009 2009 
2009 2009 2009 2009 2009 2009 2009 2009 2009 
2009 2009 2009 2009 2009 2009 2009 2009 2009 
2009 2009 2009 2009 2009 2009 2009 2009 2009 
2009 2009 2009 2009 2009 2009 2009 2009 2009 
2009 2009 2009 2009 2009 2009 2009 2009 2009 
2009 2009 2009 2009 2009 2009 2009 2009 2009 
2009 2009 2009 2009 2009 2009 2009 2009 2009 
2009 2009 2009 2009 2009 2009 2009 2009 2009 
2009 2009 2009 2009 2009 2009 2009 2009 2009 
2009 2009 2009 2009 2009 2009 2009 2009 2009 
2009 2009 2009 2009 2009 2009 2009 2009 2009 
2009 2009 2009 2009 2009 2009 2009 2009 2009 
2009 2009 2009 2009 2009 2009 2009 2009 2009 
2009 2009 2009 2009 2009 2009 2009 2009 2009 
2009 2009 2009 2009 2009 2009 2009 2009 2009 
2009 2009 2009 2009 2009 2009 2009 2009 2009 
2009 2009 2009 2009 2009 2009 2009 2009 2009 
2009 2009 2009 2009 2009 2009 2009 2009 2009 
2009 2009 2009 2009 2009 2009 2009 2009 2009 
2009 2009 2009 2009 2009 2009 2009 2009 2009 
2009 2009 2009 2009 2009 2009 2009 2009 2009 
2009 2009 2009 2009 2009 2009 2009 2009 2009 
2009 2009 2009 2009 2009 2009 2009 2009 2009 
2009 2009 2009 2009 2009 2009 2009 2009 2009 
2009 2009 2009 2009 2009 2009 2009 2009 2009 
2009 2009 2009 2009 2009 2009 2009 2009 2009 
2009 2009 2009 2009 2009 2009 2009 2009 2009 
2009 2009 2009 2009 2009 2009 2009 2009 2009 
2009 2009 2009 2009 2009 2009 2009 2009 2009 
2009 2009 2009 2009 2009 2009 2009 2009 2009 
2009 2009 2009 2009 2009 2009 2009 2009 2009 
2009 2009 2009 2009 2009 2009 2009 2009 2009 
2009 2009 2009 2009 2009 2009 2009 2009 2009 
2009 2009 2009 2009 2009 2009 2009 2009 2009 
2009 2009 2009 2009 2009 2009 2009 2009 2009 
2009 2009 2009 2009 2009 2009 2009 2009 2009 
2009 2009 2009 2009 2009 2009 2009 2009 2009 
2009 2009 2009 2009 2009 2009 2009 2009 2009 
2009 2009 2009 2009 2009 2009 2009 2009 2009 
2009 2009 2009 2009 2009 2009 2009 2009 2009 
2009 2009 2009 2009 2009 2009 2009 2009 2009 
2009 2009 2009 2009 2009 2009 2009 2009 2009 
2009 2009 2009 2009 2009 2009 2009 2009 2009 
2009 2009 2009 2009 2009 2009 2009 2009 2009 
2009 2009 2009 2009 2009 2009 2009 2009 2009 
2009 2009 2009 2009 2009 2009 2009 2009 2009 
2009 2009 2009 2009 2009 2009 2009 2009 2009 
2009 2009 2009 2009 2009 2009 2009 2009 2009 
2009 2009 2009 2009 2009 2009 2009 2009 2009 
2009 2009 2009 2009 2009 2009 2009 2009 2009 
2009 2009 2009 2009 2009 2009 2009 2009 2009 
2009 2009 2009 2009 2009 2009 2009 2009 2009 
2009 2009 2009 2009 2009 2009 2009 2009 2009 
2009 2009 2009 2009 2009 2009 2009 2009 2009 
2009 2009 2009 2009 2009 2009 2009 2009 2009 
2009 2009 2009 2009 2009 2009 2009 2009 2009 
2009 2009 2009 2009 2009 2009 2009 2009 2009 
2009 2009 2009 2009 2009 2009 2009 2009 2009 
2009 2009 2009 2009 2009 2009 2009 2009 2009 
2009 2009 2009 2009 2009 2009 2009 2009 2009 
2009 2009 2009 2009 2009 2009 2009 2009 2009 
2009 2009 2009 2009 2009 2009 2009 2009 2009 
2009 2009 2009 2009 2009 2009 2009 2009 2009 
2009 2009 2009 2009 2009 2009 2009 2009 2009 
2009 2009 2009 2009 2009 2009 2009 2009 2009 
2009 2009 2009 2009 2009 2009 2009 2009 2009 
2009 2009 2009 2009 2009 2009 2009 2009 2009 
2009 2009 2009 2009 2009 2009 2009 2009 2009 
2009 2009 2009 2009 2009 2009 2009 2009 2009 
2009 2009 2009 2009 2009 2009 2009 2009 2009 
2009 2009 2009 2009 2009 2009 2009 2009 2009 
2009 2009 2009 2009 2009 2009 2009 2009 2009 
2009 2009 2009 2009 2009 2009 2009 2009 2009 
2009 2009 2009 2009 2009 2009 2009 2009 2009 
2009 2009 2009 2009 2009 2009 2009 2009 2009 
2009 2009 2009 2009 2009 2009 2009 2009 2009 
2009 2009 2009 2009 2009 2009 2009 2009 2009 
2009 2009 2009 2009 2009 2009 2009 2009 2009 
2009 2009 2009 2009 2009 2009 2009 2009 2009 
2009 2009 2009 2009 2009 2009 2009 2009 2009 
2009 2009 2009 2009 2009 2009 2009 2009 2009 
2009 2009 2009 2009 2009 2009 2009 2009 2009 
2009 2009 2009 2009 2009 2009 2009 2009 2009 
2009 2009 2009 2009 2009 2009 2009 2009 2009 
2009 2009 2009 2009 2009 2009 2009 2009 2009 
2009 2009 2009 2009 2009 2009 2009 2009 2009 
2009 2009 2009 2009 2009 2009 2009 2009 2009 
2009 2009 2009 2009 2009 2009 2009 2009 2009 
2009 2009 2009 2009 2009 2009 2009 2009 2009 
2009 2009 2009 2009 2009 2009 2009 2009 2009 
2009 2009 2009 2009 2009 2009 2009 2009 2009 
2009 2009 2009 2009 2009 2009 2009 2009 2009 
2009 2009 2009 2009 2009 2009 2009 2009 2009 
2009 2009 2009 2009 2009 2009 2009 2009 2009 
2009 2009 2009 2009 2009 2009 2009 2009 2009 
2009 2009 2009 2009 2009 2009 2009 2009 2009 
2009 2009 2009 2009 2009 2009 2009 2009 2009 
2009 2009 2009 2009 2009 2009 2009 2009 2009 
2009 2009 2009 2009 2009 2009 2009 2009 2009 
2009 2009 2009 2009 2009 2009 2009 2009 2009 
2009 2009 2009 2009 2009 2009 2009 2009 2009 
2009 2009 2009 2009 2009 2009 2009 2009 2009 
2009 2009 2009 2009 2009 2009 2009 2009 2009 
2009 2009 2009 2009 2009 2009 2009 2009 2009 
2009 2009 2009 2009 2009 2009 2009 2009 2009 
2009 2009 2009 2009 2009 2009 2009 2009 2009 
2009 2009 2009 2009 2009 2009 2009 2009 2009 
2009 2009 2009 2009 2009 2009 2009 2009 2009 
2009 2009 2009 2009 2009 2009 2009 2009 2009 
2009 2009 2009 2009 2009 2009 2009 2009 2009 
2009 2009 2009 2009 2009 2009 2009 2009 2009 
2009 2009 2009 2009 2009 2009 2009 2009 2009 
2009 2009 2009 2009 2009 2009 2009 2009 2009 
2009 2009 2009 2009 2009 2009 2009 2009 2009 
2009 2009 2009 2009 2009 2009 2009 2009 2009 
2009 2009 2009 2009 2009 2009 2009 2009 2009 
2009 2009 2009 2009 2009 2009 2009 2009 2009 
2009 2009 2009 2009 2009 2009 2009 2009 2009 
2009 2009 2009 2009 2009 2009 2009 2009 2009 
2009 2009 2009 2009 2009 2009 2009 2009 2009 
2009 2009 2009 2009 2009 2009 2009 2009 2009 
2009 2009 2009 2009 2009 2009 2009 2009 2009 
2009 2009 2009 2009 2009 2009 2009 2009 2009 
2009 2009 2009 2009 2009 2009 2009 2009 2009 
2009 2009 2009 2009 2009 2009 2009 2009 2009 
2009 2009 2009 2009 2009 2009 2009 2009 2009 
2009 2009 2009 2009 2009 2009 2009 2009 2009 
2009 2009 2009 2009 2009 2009 2009 2009 2009 
2009 2009 2009 2009 2009 2009 2009 2009 2009 
2009 2009 2009 2009 2009 2009 2009 2009 2009 
2009 2009 2009 2009 2009 2009 2009 2009 2009 
2009 2009 2009 2009 2009 2009 2009 2009 2009 
2009 2009 2009 2009 2009 2009 2009 2009 2009 
2009 2009 2009 2009 2009 2009 2009 2009 2009 
2009 2009 2009 2009 2009 2009 2009 2009 2009 
2009 2009 2009 2009 2009 2009 2009 2009 2009 
2009 2009 2009 2009 2009 2009 2009 2009 2009 
2009 2009 2009 2009 2009 2009 2009 2009 2009 
2009 2009 2009 2009 2009 2009 2009 2009 2009 
2009 2009 2009 2009 2009 2009 2009 2009 2009 
2009 2009 2009 2009 2009 2009 2009 2009 2009 
2009 2009 2009 2009 2009 2009 2009 2009 2009 
2009 2009 2009 2009 2009 2009 2009 2009 2009 
2009 2009 2009 2009 2009 2009 2009 2009 2009 
2009 2009 2009 2009 2009 2009 2009 2009 2009 
2009 2009 2009 2009 2009 2009 2009 2009 2009 
2009 2009 2009 2009 2009 2009 2009 2009 2009 
2009 2009 2009 2009 2009 2009 2009 2009 2009 
2009 2009 2009 2009 2009 2009 2009 2009 2009 
2009 2009 2009 2009 2009 2009 2009 2009 2009 
2009 2009 2009 2009 2009 2009 2009 2009 2009 
2009 2009 2009 2009 2009 2009 2009 2009 2009 
2009 2009 2009 2009 2009 2009 2009 2009 2009 
2009 2009 2009 2009 2009 2009 2009 2009 2009 
2009 2009 2009 2009 2009 2009 2009 2009 2009 
2009 2009 2009 2009 2009 2009 2009 2009 2009 
2009 2009 2009 2009 2009 2009 2009 2009 2009 
2009 2009 2009 2009 2009 2009 2009 2009 2009 
2009 2009 2009 2009 2009 2009 2009 2009 2009 
2009 2009 2009 2009 2009 2009 2009 2009 2009 
2009 2009 2009 2009 2009 2009 2009 2009 2009 
2009 2009 2009 2009 2009 2009 2009 2009 2009 