# vtk DataFile Version 4.2
vtk output
ASCII
DATASET POLYDATA
POINTS 13362 float
40.594 -27.4637 29.6441 40.5346 -27.3064 29.3107 40.4 -27.7413 29.2923 
40.9667 -27.2835 29.3669 40.7864 -27.7129 29.4827 40.5529 -29.1045 29.3993 
40.3491 -29.6336 29.408 40.7005 -29.8077 29.7374 40.9776 -29.4575 29.462 
40.6005 -30.3566 29.752 40.4001 -30.4264 29.1891 41.1349 -30.463 29.4106 
40.6853 -30.7753 29.4611 41.5779 -26.8492 28.8427 41.5541 -26.3391 28.262 
41.2583 -26.5278 28.4076 42.2087 -26.4792 28.3642 40.8088 -26.9903 28.4696 
40.3046 -27.5164 28.6978 41.5957 -27.7653 29.1513 42.7382 -27.4283 28.8514 
42.7603 -26.8997 28.4845 44.0003 -27.6823 28.8718 43.4238 -27.0136 28.4924 
44.768 -27.7645 28.7801 44.3838 -27.1034 28.4872 45.0812 -27.4531 28.4356 
40.8922 -28.4892 29.1892 40.2462 -28.4759 28.6754 41.8517 -28.6894 29.0162 
42.7068 -28.5144 29.0109 43.7357 -28.5208 29.0359 44.6385 -28.5375 28.9132 
45.2637 -28.2825 28.538 40.1927 -29.5814 28.457 41.6967 -29.6362 29.1352 
42.7225 -29.5264 28.9931 43.5622 -29.3606 29.0349 44.3952 -29.5973 28.8827 
45.2417 -29.4453 28.3444 40.3129 -30.3735 28.2784 41.8197 -30.556 29.1214 
42.5926 -30.6738 28.8996 43.717 -30.4272 28.8965 44.3711 -30.6517 28.4647 
44.794 -30.1408 28.3641 40.7059 -31.086 28.6226 41.6399 -31.5087 28.8609 
41.0083 -31.7025 28.5694 42.2915 -31.5261 28.4305 42.9003 -31.2864 28.5804 
43.3318 -31.7398 28.4418 43.5026 -31.307 28.7349 44.0714 -31.5106 28.3952 
37.8922 -32.7957 28.751 37.4563 -32.1733 28.3358 37.3599 -32.8048 28.5732 
38.0453 -32.3384 28.4293 39.9213 -32.8184 28.8404 39.6201 -32.2247 28.3688 
39.0826 -32.7069 28.5891 40.9571 -32.3838 28.8583 40.4212 -31.9944 28.4409 
41.4749 -32.7392 28.7858 41.8554 -32.254 28.3831 43.8056 -32.0092 28.3573 
37.7614 -33.5951 28.9187 37.2014 -33.5614 28.5182 38.4741 -32.7677 28.6042 
38.808 -33.4648 28.9503 39.9015 -33.8079 29.0727 40.7844 -33.5117 28.9365 
41.3021 -33.3855 28.3731 41.6174 -32.8169 28.2939 37.5999 -34.365 28.8103 
37.3318 -34.3576 28.3351 38.3703 -34.5077 28.906 39.4473 -34.5608 28.9256 
40.4073 -34.5484 28.8585 40.9721 -34.2729 28.4329 37.9664 -34.9065 28.447 
38.9412 -35.0808 28.4059 39.8853 -35.0708 28.5037 40.4967 -34.9208 28.2347 
43.8143 -24.7289 27.8252 43.7147 -24.0636 27.5061 43.132 -24.5194 27.4758 
44.9252 -24.6506 27.8912 44.411 -23.9725 27.5384 45.7062 -24.7472 27.8011 
45.595 -23.9982 27.3362 46.2158 -24.5275 27.3631 42.7716 -25.6111 27.8425 
42.5948 -25.0415 27.4588 42.2107 -25.3673 27.3797 43.8422 -25.6751 27.9784 
44.6988 -25.5299 28.0034 45.5627 -25.501 27.9033 46.2015 -25.271 27.5428 
41.769 -25.9278 27.5878 41.1897 -26.4229 27.5948 42.8883 -26.5144 28.218 
43.661 -26.3972 28.123 44.7478 -26.581 28.1122 45.5697 -26.5119 27.8796 
46.2066 -26.2574 27.5199 40.7589 -26.9237 27.3043 40.1654 -27.5605 27.5311 
45.6352 -27.649 28.0184 46.2363 -27.2971 27.499 40.0228 -28.833 27.5863 
45.7454 -28.8179 28.0255 46.2371 -28.4668 27.3997 40.0624 -29.8573 27.5518 
45.7377 -29.4879 27.9143 46.0295 -29.5066 27.3734 40.105 -30.7363 27.69 
44.661 -30.7308 27.9197 45.2265 -30.5635 27.4811 45.722 -30.0609 27.4797 
36.987 -31.6284 27.8108 36.9401 -31.179 27.3033 36.3293 -31.2997 27.3291 
37.9447 -31.6991 27.9901 37.5304 -31.2211 27.5136 38.8873 -31.5601 27.7766 
38.4 -31.0739 27.2902 39.8832 -31.5708 27.9876 39.3872 -31.0238 27.4164 
40.6326 -31.5755 28.2662 42.7363 -31.8125 28.1371 44.3829 -31.552 27.6293 
44.7606 -31.1521 27.3211 36.3867 -31.9135 27.3505 36.9395 -32.5621 27.9044 
38.8021 -32.1887 28.2068 41.9907 -32.2111 27.7691 41.7093 -32.5172 27.9663 
41.4915 -32.813 27.7393 42.1957 -32.4971 27.4402 42.6118 -32.3584 27.724 
43.394 -32.4087 27.9205 44.0423 -32.342 27.7307 36.8791 -33.5779 27.8707 
36.6335 -32.9318 27.3875 36.4514 -33.3802 27.2644 41.0716 -33.5731 27.5155 
42.778 -32.9625 27.1984 43.7165 -32.8584 27.2503 36.6767 -34.0493 27.2052 
37.3754 -34.2172 27.6294 37.7678 -34.7055 27.923 38.1426 -34.4237 27.2955 
40.8394 -34.458 27.8776 40.3759 -34.5617 27.5168 40.7495 -34.1246 27.4471 
38.4883 -34.9732 27.7561 39.5738 -35.0005 27.7272 44.8386 -22.8312 26.7966 
44.5898 -22.2312 26.1723 44.1427 -22.6494 26.5809 45.3004 -22.4414 26.3516 
43.8125 -23.5161 27.018 43.719 -22.9472 26.5109 43.2016 -23.4933 26.4674 
44.8266 -23.4772 27.2046 45.7606 -22.9042 26.3382 45.4786 -23.3445 26.9397 
46.2031 -23.5089 26.4753 42.6386 -24.5448 26.9621 42.5181 -24.126 26.4142 
42.0582 -24.7232 26.5489 46.7346 -24.8316 26.9455 46.7357 -24.027 26.4662 
47.2503 -24.5391 26.3402 41.8475 -25.3133 26.8999 41.4795 -25.0749 26.2749 
41.3589 -25.8346 26.6665 46.7216 -25.7842 27.0203 47.2435 -25.2953 26.495 
39.8914 -26.7732 26.7825 39.7508 -26.2655 26.1391 39.3758 -26.7513 26.5001 
40.2956 -26.4196 26.313 41.0053 -26.4238 26.5299 46.7226 -26.8228 27.0011 
47.2184 -26.4259 26.404 39.4727 -27.5193 26.9287 38.963 -27.405 26.4325 
40.5278 -26.8083 26.7037 46.7064 -27.8193 26.983 47.0497 -27.3823 26.5092 
38.9662 -28.4644 26.7859 38.5186 -27.9094 26.3243 38.3287 -28.6265 26.3128 
39.6591 -28.3838 27.1073 46.6515 -28.6433 26.8282 47.0256 -28.361 26.2725 
38.8319 -29.5594 26.8019 38.3088 -29.5746 26.2921 39.5655 -29.3177 27.0609 
46.394 -29.5059 26.599 46.7637 -29.129 26.3297 35.8381 -30.7771 26.853 
35.3665 -30.2186 26.2851 35.1541 -30.7991 26.5441 36.0976 -30.7018 26.1977 
38.8127 -30.4375 26.9239 38.2583 -30.4167 26.3665 39.5647 -30.2689 27.1365 
45.7347 -30.6032 26.951 46.057 -30.4598 26.5255 35.7075 -31.3754 26.9763 
35.2136 -31.4137 26.5383 36.7444 -31.1251 26.5284 37.6761 -30.9386 26.6031 
44.633 -31.738 26.8751 45.1357 -31.3995 26.687 45.7022 -31.0875 26.4688 
35.6557 -32.0378 26.511 36.4886 -32.4617 27.1221 36.1466 -32.8896 26.5095 
41.6549 -32.7619 27.1516 44.2197 -32.4405 26.7702 44.8625 -32.0255 26.0927 
36.0901 -33.7678 26.577 38.7453 -33.8625 26.7306 38.4164 -33.6915 26.2255 
38.667 -33.373 26.4752 38.9218 -33.5495 26.3228 40.5187 -33.8269 26.9923 
40.1841 -33.6637 26.4259 40.8506 -33.2172 26.4702 41.7302 -33.164 26.5559 
42.5459 -33.5104 26.784 42.1005 -33.6569 26.3687 43.0667 -33.5413 26.5945 
43.617 -33.1194 26.3785 35.8295 -34.362 26.8526 35.6459 -34.3178 26.4124 
35.4684 -34.5541 26.5729 36.3809 -34.6216 26.8601 37.0632 -34.5178 26.6772 
37.756 -34.1527 26.687 38.9073 -34.5836 27.205 39.5162 -33.8243 26.1852 
39.7104 -34.2387 26.9439 42.6647 -33.8699 26.1921 35.9371 -34.8144 26.4788 
36.8386 -34.9063 26.2311 43.6684 -22.6548 26.1145 43.6539 -22.1645 25.3734 
43.1529 -22.6348 25.5752 44.4928 -21.8588 25.3322 45.7066 -22.4916 26.025 
45.5686 -21.9925 25.4922 46.2082 -22.5321 25.5065 41.7547 -23.6301 25.7621 
41.6742 -23.2456 25.2111 41.1653 -23.8216 25.3342 42.6948 -23.3813 25.9908 
42.3754 -22.9177 25.3046 46.7218 -23.5305 25.9489 46.5365 -23.1018 25.7089 
47.1025 -23.4604 25.5296 41.0221 -24.4734 25.7446 40.7231 -24.2881 25.3438 
40.5635 -24.4994 25.4383 41.8735 -24.2717 26.1814 47.7298 -24.8567 25.9101 
47.5264 -24.0878 25.716 48.0174 -24.3026 25.2186 40.7285 -24.7713 25.3338 
40.9761 -25.6984 25.4353 47.7087 -25.7934 25.9733 48.0889 -25.2751 25.3419 
39.7189 -25.9982 25.3126 39.0987 -26.6361 25.476 40.757 -26.3529 26.0592 
40.3999 -26.183 25.5826 47.6403 -26.6343 25.8238 48.0253 -26.3613 25.2433 
38.6217 -27.3068 25.9111 38.604 -27.1859 25.4911 38.3524 -27.7602 25.7338 
47.3864 -27.4784 25.829 47.7743 -27.1435 25.3474 38.2588 -28.6519 25.4597 
41.9849 -28.8603 25.8161 41.2441 -28.9294 25.5542 41.5631 -28.3006 25.4609 
42.1743 -28.3922 25.4824 47.3386 -28.5417 25.3817 38.174 -29.6881 25.5853 
41.7362 -29.4367 25.8153 41.1965 -29.6447 25.4008 42.6031 -28.9904 25.6527 
42.4491 -29.5649 25.7839 43.0338 -29.3459 25.2959 46.6503 -29.7264 25.9096 
47.0121 -29.4206 25.5272 34.7476 -30.4357 26.0081 34.9495 -30.1589 25.408 
34.4401 -30.6685 25.5428 35.6242 -30.0965 25.6884 36.0109 -30.5176 25.3739 
38.0101 -30.426 25.504 41.8873 -30.008 25.3057 42.7693 -29.938 25.2691 
46.4007 -30.5249 25.5797 46.7524 -30.1527 25.297 34.7377 -31.2528 26.0006 
34.4352 -31.2451 25.3848 36.5994 -31.4756 25.916 36.4094 -31.2888 25.3705 
37.0583 -31.4734 25.5336 37.539 -31.0235 25.6948 45.5418 -31.6474 26.0066 
46.017 -31.3179 25.6502 34.9079 -31.9248 25.5174 35.5289 -32.5184 25.8927 
35.0815 -32.4966 25.1752 36.705 -31.7608 25.4713 44.2097 -32.573 25.7074 
44.8574 -32.1836 25.1694 45.5772 -31.8791 25.335 35.6328 -32.9299 25.3958 
36.0511 -33.4468 25.4947 38.6895 -33.4493 26.1902 40.1981 -33.5115 25.6964 
40.8386 -33.2672 25.5194 41.5048 -33.5002 25.9196 41.2206 -33.581 25.1051 
43.2215 -33.6496 25.7399 43.7037 -33.1079 25.1992 35.7463 -34.6841 26.1361 
36.1318 -34.5072 25.4054 37.5211 -34.6335 26.0776 38.0832 -34.342 25.6711 
38.8926 -33.9599 25.4932 39.677 -33.8416 25.2916 41.9867 -33.9291 25.5141 
42.7095 -33.9844 25.3254 36.6439 -35.1378 25.4687 37.5547 -34.9057 25.3713 
45.0202 -21.5146 24.9838 44.6028 -21.1951 24.1943 44.2452 -21.5645 24.7017 
45.6275 -21.5129 24.963 45.6108 -21.2142 24.3964 46.1946 -21.5249 24.5084 
42.8835 -22.4152 25.0547 42.6378 -22.1624 24.3697 42.2891 -22.5457 24.6567 
43.534 -21.8211 24.4574 47.0574 -22.7108 24.9959 46.7109 -22.0274 24.6106 
47.7337 -22.7408 24.6986 47.6347 -22.2089 24.3174 48.1984 -22.5147 24.2808 
41.848 -22.9015 24.7208 41.2468 -23.4789 24.5547 47.6557 -23.4295 25.0748 
48.2103 -23.3919 24.5739 40.6194 -24.519 25.1967 40.8568 -24.5708 24.8792 
48.3421 -24.5116 24.6214 39.9426 -25.5883 24.7687 39.6346 -25.2919 24.2377 
39.342 -25.7874 24.6536 40.3082 -24.9518 24.2881 40.5985 -25.549 24.756 
48.3424 -25.5377 24.6183 39.298 -26.2841 24.2594 40.1311 -26.3512 24.7645 
40.8293 -26.7401 24.9052 40.6423 -26.1366 24.2146 41.2732 -26.3458 24.4336 
48.3311 -26.5236 24.3738 38.8608 -27.6296 25.0909 39.4179 -26.8674 24.6563 
39.9424 -27.4674 24.8412 40.7229 -27.5416 24.9352 41.632 -26.8382 24.5363 
41.7314 -27.6575 24.9804 42.4036 -27.0678 24.4675 42.7451 -27.7763 24.7545 
43.1197 -27.4586 24.417 47.6976 -27.893 25.0595 48.0544 -27.3305 24.6842 
38.6507 -28.6044 24.8358 39.528 -28.5292 24.8011 40.7093 -28.2675 25.1005 
42.7233 -28.4815 25.1674 43.312 -28.4875 24.6144 47.6266 -28.65 24.796 
[...]
CELL_DATA 26764
SCALARS scalars float
LOOKUP_TABLE default
1015 1015 1015 1015 1015 1015 1015 1015 1015 
1015 1015 1015 1015 1015 1015 1015 1015 1015 
1015 1015 1015 1015 1015 1015 1015 1015 1015 
1015 1015 1015 1015 1015 1015 1015 1015 1015 
1015 1015 1015 1015 1015 1015 1015 1015 1015 
1015 1015 1015 1015 1015 1015 1015 1015 1015 
1015 1015 1015 1015 1015 1015 1015 1015 1015 
1015 1015 1015 1015 1015 1015 1015 1015 1015 
1015 1015 1015 1015 1015 1015 1015 1015 1015 
1015 1015 1015 1015 1015 1015 1015 1015 1015 
1015 1015 1015 1015 1015 1015 1015 1015 1015 
1015 1015 1015 1015 1015 1015 1015 1015 1015 
1015 1015 1015 1015 1015 1015 1015 1015 1015 
1015 1015 1015 1015 1015 1015 1015 1015 1015 
1015 1015 1015 1015 1015 1015 1015 1015 1015 
1015 1015 1015 1015 1015 1015 1015 1015 1015 
1015 1015 1015 1015 1015 1015 1015 1015 1015 
1015 1015 1015 1015 1015 1015 1015 1015 1015 
1015 1015 1015 1015 1015 1015 1015 1015 1015 
1015 1015 1015 1015 1015 1015 1015 1015 1015 
1015 1015 1015 1015 1015 1015 1015 1015 1015 
1015 1015 1015 1015 1015 1015 1015 1015 1015 
1015 1015 1015 1015 1015 1015 1015 1015 1015 
1015 1015 1015 1015 1015 1015 1015 1015 1015 
1015 1015 1015 1015 1015 1015 1015 1015 1015 
1015 1015 1015 1015 1015 1015 1015 1015 1015 
1015 1015 1015 1015 1015 1015 1015 1015 1015 
1015 1015 1015 1015 1015 1015 1015 1015 1015 
1015 1015 1015 1015 1015 1015 1015 1015 1015 
1015 1015 1015 1015 1015 1015 1015 1015 1015 
1015 1015 1015 1015 1015 1015 1015 1015 1015 
1015 1015 1015 1015 1015 1015 1015 1015 1015 
1015 1015 1015 1015 1015 1015 1015 1015 1015 
1015 1015 1015 1015 1015 1015 1015 1015 1015 
1015 1015 1015 1015 1015 1015 1015 1015 1015 
1015 1015 1015 1015 1015 1015 1015 1015 1015 
1015 1015 1015 1015 1015 1015 1015 1015 1015 
1015 1015 1015 1015 1015 1015 1015 1015 1015 
1015 1015 1015 1015 1015 1015 1015 1015 1015 
1015 1015 1015 1015 1015 1015 1015 1015 1015 
1015 1015 1015 1015 1015 1015 1015 1015 1015 
1015 1015 1015 1015 1015 1015 1015 1015 1015 
1015 1015 1015 1015 1015 1015 1015 1015 1015 
1015 1015 1015 1015 1015 1015 1015 1015 1015 
1015 1015 1015 1015 1015 1015 1015 1015 1015 
1015 1015 1015 1015 1015 1015 1015 1015 1015 
1015 1015 1015 1015 1015 1015 1015 1015 1015 
1015 1015 1015 1015 1015 1015 1015 1015 1015 
1015 1015 1015 1015 1015 1015 1015 1015 1015 
1015 1015 1015 1015 1015 1015 1015 1015 1015 
1015 1015 1015 1015 1015 1015 1015 1015 1015 
1015 1015 1015 1015 1015 1015 1015 1015 1015 
1015 1015 1015 1015 1015 1015 1015 1015 1015 
1015 1015 1015 1015 1015 1015 1015 1015 1015 
1015 1015 1015 1015 1015 1015 1015 1015 1015 
1015 1015 1015 1015 1015 1015 1015 1015 1015 
1015 1015 1015 1015 1015 1015 1015 1015 1015 
1015 1015 1015 1015 1015 1015 1015 1015 1015 
1015 1015 1015 1015 1015 1015 1015 1015 1015 
1015 1015 1015 1015 1015 1015 1015 1015 1015 
1015 1015 1015 1015 1015 1015 1015 1015 1015 
1015 1015 1015 1015 1015 1015 1015 1015 1015 
1015 1015 1015 1015 1015 1015 1015 1015 1015 
1015 1015 1015 1015 1015 1015 1015 1015 1015 
1015 1015 1015 1015 1015 1015 1015 1015 1015 
1015 1015 1015 1015 1015 1015 1015 1015 1015 
1015 1015 1015 1015 1015 1015 1015 1015 1015 
1015 1015 1015 1015 1015 1015 1015 1015 1015 
1015 1015 1015 1015 1015 1015 1015 1015 1015 
1015 1015 1015 1015 1015 1015 1015 1015 1015 
1015 1015 1015 1015 1015 1015 1015 1015 1015 
1015 1015 1015 1015 1015 1015 1015 1015 1015 
1015 1015 1015 1015 1015 1015 1015 1015 1015 
1015 1015 1015 1015 1015 1015 1015 1015 1015 
1015 1015 1015 1015 1015 1015 1015 1015 1015 
1015 1015 1015 1015 1015 1015 1015 1015 1015 
1015 1015 1015 1015 1015 1015 1015 1015 1015 
1015 1015 1015 1015 1015 1015 1015 1015 1015 
1015 1015 1015 1015 1015 1015 1015 1015 1015 
1015 1015 1015 1015 1015 1015 1015 1015 1015 
1015 1015 1015 1015 1015 1015 1015 1015 1015 
1015 1015 1015 1015 1015 1015 1015 1015 1015 
1015 1015 1015 1015 1015 1015 1015 1015 1015 
1015 1015 1015 1015 1015 1015 1015 1015 1015 
1015 1015 1015 1015 1015 1015 1015 1015 1015 
1015 1015 1015 1015 1015 1015 1015 1015 1015 
1015 1015 1015 1015 1015 1015 1015 1015 1015 
1015 1015 1015 1015 1015 1015 1015 1015 1015 
1015 1015 1015 1015 1015 1015 1015 1015 1015 
1015 1015 1015 1015 1015 1015 1015 1015 1015 
1015 1015 1015 1015 1015 1015 1015 1015 1015 
1015 1015 1015 1015 1015 1015 1015 1015 1015 
1015 1015 1015 1015 1015 1015 1015 1015 1015 
1015 1015 1015 1015 1015 1015 1015 1015 1015 
1015 1015 1015 1015 1015 1015 1015 1015 1015 
1015 1015 1015 1015 1015 1015 1015 1015 1015 
1015 1015 1015 1015 1015 1015 1015 1015 1015 
1015 1015 1015 1015 1015 1015 1015 1015 1015 
1015 1015 1015 1015 1015 1015 1015 1015 1015 
1015 1015 1015 1015 1015 1015 1015 1015 1015 
1015 1015 1015 1015 1015 1015 1015 1015 1015 
1015 1015 1015 1015 1015 1015 1015 1015 1015 
1015 1015 1015 1015 1015 1015 1015 1015 1015 
1015 1015 1015 1015 1015 1015 1015 1015 1015 
1015 1015 1015 1015 1015 1015 1015 1015 1015 
1015 1015 1015 1015 1015 1015 1015 1015 1015 
1015 1015 1015 1015 1015 1015 1015 1015 1015 
1015 1015 1015 1015 1015 1015 1015 1015 1015 
1015 1015 1015 1015 1015 1015 1015 1015 1015 
1015 1015 1015 1015 1015 1015 1015 1015 1015 
1015 1015 1015 1015 1015 1015 1015 1015 1015 
1015 1015 1015 1015 1015 1015 1015 1015 1015 
1015 1015 1015 1015 1015 1015 1015 1015 1015 
1015 1015 1015 1015 1015 1015 1015 1015 1015 
1015 1015 1015 1015 1015 1015 1015 1015 1015 
1015 1015 1015 1015 1015 1015 1015 1015 1015 
1015 1015 1015 1015 1015 1015 1015 1015 1015 
1015 1015 1015 1015 1015 1015 1015 1015 1015 
1015 1015 1015 1015 1015 1015 1015 1015 1015 
1015 1015 1015 1015 1015 1015 1015 1015 1015 
1015 1015 1015 1015 1015 1015 1015 1015 1015 
1015 1015 1015 1015 1015 1015 1015 1015 1015 
1015 1015 1015 1015 1015 1015 1015 1015 1015 
1015 1015 1015 1015 1015 1015 1015 1015 1015 
1015 1015 1015 1015 1015 1015 1015 1015 1015 
1015 1015 1015 1015 1015 1015 1015 1015 1015 
1015 1015 1015 1015 1015 1015 1015 1015 1015 
1015 1015 1015 1015 1015 1015 1015 1015 1015 
1015 1015 1015 1015 1015 1015 1015 1015 1015 
1015 1015 1015 1015 1015 1015 1015 1015 1015 
1015 1015 1015 1015 1015 1015 1015 1015 1015 
1015 1015 1015 1015 1015 1015 1015 1015 1015 
1015 1015 1015 1015 1015 1015 1015 1015 1015 
1015 1015 1015 1015 1015 1015 1015 1015 1015 
1015 1015 1015 1015 1015 1015 1015 1015 1015 
1015 1015 1015 1015 1015 1015 1015 1015 1015 
1015 1015 1015 1015 1015 1015 1015 1015 1015 
1015 1015 1015 1015 1015 1015 1015 1015 1015 
1015 1015 1015 1015 1015 1015 1015 1015 1015 
1015 1015 1015 1015 1015 1015 1015 1015 1015 
1015 1015 1015 1015 1015 1015 1015 1015 1015 
1015 1015 1015 1015 1015 1015 1015 1015 1015 
1015 1015 1015 1015 1015 1015 1015 1015 1015 
1015 1015 1015 1015 1015 1015 1015 1015 1015 
1015 1015 1015 1015 1015 1015 1015 1015 1015 
1015 1015 1015 1015 1015 1015 1015 1015 1015 
1015 1015 1015 1015 1015 1015 1015 1015 1015 
1015 1015 1015 1015 1015 1015 1015 1015 1015 
1015 1015 1015 1015 1015 1015 1015 1015 1015 
1015 1015 1015 1015 1015 1015 1015 1015 1015 
1015 1015 1015 1015 1015 1015 1015 1015 1015 
1015 1015 1015 1015 1015 1015 1015 1015 1015 
1015 1015 1015 1015 1015 1015 1015 1015 1015 
1015 1015 1015 1015 1015 1015 1015 1015 1015 
1015 1015 1015 1015 1015 1015 1015 1015 1015 
1015 1015 1015 1015 1015 1015 1015 1015 1015 
1015 1015 1015 1015 1015 1015 1015 1015 1015 
1015 1015 1015 1015 1015 1015 1015 1015 1015 
1015 1015 1015 1015 1015 1015 1015 1015 1015 
1015 1015 1015 1015 1015 1015 1015 1015 1015 
1015 1015 1015 1015 1015 1015 1015 1015 1015 
1015 1015 1015 1015 1015 1015 1015 1015 1015 
1015 1015 1015 1015 1015 1015 1015 1015 1015 
1015 1015 1015 1015 1015 1015 1015 1015 1015 
1015 1015 1015 1015 1015 1015 1015 1015 1015 
1015 1015 1015 1015 1015 1015 1015 1015 1015 
1015 1015 1015 1015 1015 1015 1015 1015 1015 
1015 1015 1015 1015 1015 1015 1015 1015 1015 
1015 1015 1015 1015 1015 1015 1015 1015 1015 
1015 1015 1015 1015 1015 1015 1015 1015 1015 
1015 1015 1015 1015 1015 1015 1015 1015 1015 
1015 1015 1015 1015 1015 1015 1015 1015 1015 
1015 1015 1015 1015 1015 1015 1015 1015 1015 
1015 1015 1015 1015 1015 1015 1015 1015 1015 
1015 1015 1015 1015 1015 1015 1015 1015 1015 
1015 1015 1015 1015 1015 1015 1015 1015 1015 
1015 1015 1015 1015 1015 1015 1015 1015 1015 
1015 1015 1015 1015 1015 1015 1015 1015 1015 
1015 1015 1015 1015 1015 1015 1015 1015 1015 
1015 1015 1015 1015 1015 1015 1015 1015 1015 
1015 1015 1015 1015 1015 1015 1015 1015 1015 
1015 1015 1015 1015 1015 1015 1015 1015 1015 
1015 1015 1015 1015 1015 1015 1015 1015 1015 
1015 1015 1015 1015 1015 1015 1015 1015 1015 
1015 1015 1015 1015 1015 1015 1015 1015 1015 
1015 1015 1015 1015 1015 1015 1015 1015 1015 
1015 1015 1015 1015 1015 1015 1015 1015 1015 
1015 1015 1015 1015 1015 1015 1015 1015 1015 
1015 1015 1015 1015 1015 1015 1015 1015 1015 
1015 1015 1015 1015 1015 1015 1015 1015 1015 
1015 1015 1015 1015 1015 1015 1015 1015 1015 
1015 1015 1015 1015 1015 1015 1015 1015 1015 
1015 1015 1015 1015 1015 1015 1015 1015 1015 
1015 1015 1015 1015 1015 1015 1015 1015 1015 
1015 1015 1015 1015 1015 1015 1015 1015 1015 
1015 1015 1015 1015 1015 1015 1015 1015 1015 
1015 1015 1015 1015 1015 1015 1015 1015 1015 
1015 1015 1015 1015 1015 1015 1015 1015 1015 
1015 1015 1015 1015 1015 1015 1015 1015 1015 
1015 1015 1015 1015 1015 1015 1015 1015 1015 
1015 1015 1015 1015 1015 1015 1015 1015 1015 
1015 1015 1015 1015 1015 1015 1015 1015 1015 
1015 1015 1015 1015 1015 1015 1015 1015 1015 
1015 1015 1015 1015 1015 1015 1015 1015 1015 
1015 1015 1015 1015 1015 1015 1015 1015 1015 
1015 1015 1015 1015 1015 1015 1015 1015 1015 
1015 1015 1015 1015 1015 1015 1015 1015 1015 
1015 1015 1015 1015 1015 1015 1015 1015 1015 
1015 1015 1015 1015 1015 1015 1015 1015 1015 
1015 1015 1015 1015 1015 1015 1015 1015 1015 
1015 1015 1015 1015 1015 1015 1015 1015 1015 
1015 1015 1015 1015 1015 1015 1015 1015 1015 
1015 1015 1015 1015 1015 1015 1015 1015 1015 
1015 1015 1015 1015 1015 1015 1015 1015 1015 
1015 1015 1015 1015 1015 1015 1015 1015 1015 
1015 1015 1015 1015 1015 1015 1015 1015 1015 
1015 1015 1015 1015 1015 1015 1015 1015 1015 
1015 1015 1015 1015 1015 1015 1015 1015 1015 
1015 1015 1015 1015 1015 1015 1015 1015 1015 
1015 1015 1015 1015 1015 1015 1015 1015 1015 
1015 1015 1015 1015 1015 1015 1015 1015 1015 
1015 1015 1015 1015 1015 1015 1015 1015 1015 
1015 1015 1015 1015 1015 1015 1015 1015 1015 
1015 1015 1015 1015 1015 1015 1015 1015 1015 
1015 1015 1015 1015 1015 1015 1015 1015 1015 
1015 1015 1015 1015 1015 1015 1015 1015 1015 
1015 1015 1015 1015 1015 1015 1015 1015 1015 
1015 1015 1015 1015 1015 1015 1015 1015 1015 
1015 1015 1015 1015 1015 1015 1015 1015 1015 
1015 1015 1015 1015 1015 1015 1015 1015 1015 
1015 1015 1015 1015 1015 1015 1015 1015 1015 
1015 1015 1015 1015 1015 1015 1015 1015 1015 
1015 1015 1015 1015 1015 1015 1015 1015 1015 
1015 1015 1015 1015 1015 1015 1015 1015 1015 
1015 1015 1015 1015 1015 1015 1015 1015 1015 
1015 1015 1015 1015 1015 1015 1015 1015 1015 
1015 1015 1015 1015 1015 1015 1015 1015 1015 
1015 1015 1015 1015 1015 1015 1015 1015 1015 
1015 1015 1015 1015 1015 1015 1015 1015 1015 
1015 1015 1015 1015 1015 1015 1015 1015 1015 
1015 1015 1015 1015 1015 1015 1015 1015 1015 
1015 1015 1015 1015 1015 1015 1015 1015 1015 
1015 1015 1015 1015 1015 1015 1015 1015 1015 
1015 1015 1015 1015 1015 1015 1015 1015 1015 
1015 1015 1015 1015 1015 1015 1015 1015 1015 
1015 1015 1015 1015 1015 1015 1015 1015 1015 
1015 1015 1015 1015 1015 1015 1015 1015 1015 
1015 1015 1015 1015 1015 1015 1015 1015 1015 
1015 1015 1015 1015 1015 1015 1015 1015 1015 
1015 1015 1015 1015 1015 1015 1015 1015 1015 
1015 1015 1015 1015 1015 1015 1015 1015 1015 
1015 1015 1015 1015 1015 1015 1015 1015 1015 
1015 1015 1015 1015 1015 1015 1015 1015 1015 
1015 1015 1015 1015 1015 1015 1015 1015 1015 
1015 1015 1015 1015 1015 1015 1015 1015 1015 
1015 1015 1015 1015 1015 1015 1015 1015 1015 
1015 1015 1015 1015 1015 1015 1015 1015 1015 
1015 1015 1015 1015 1015 1015 1015 1015 1015 
1015 1015 1015 1015 1015 1015 1015 1015 1015 
1015 1015 1015 1015 1015 1015 1015 1015 1015 
1015 1015 1015 1015 1015 1015 1015 1015 1015 
1015 1015 1015 1015 1015 1015 1015 1015 1015 
1015 1015 1015 1015 1015 1015 1015 1015 1015 
1015 1015 1015 1015 1015 1015 1015 1015 1015 
1015 1015 1015 1015 1015 1015 1015 1015 1015 
1015 1015 1015 1015 1015 1015 1015 1015 1015 
1015 1015 1015 1015 1015 1015 1015 1015 1015 
1015 1015 1015 1015 1015 1015 1015 1015 1015 
1015 1015 1015 1015 1015 1015 1015 1015 1015 
1015 1015 1015 1015 1015 1015 1015 1015 1015 
1015 1015 1015 1015 1015 1015 1015 1015 1015 
1015 1015 1015 1015 1015 1015 1015 1015 1015 
1015 1015 1015 1015 1015 1015 1015 1015 1015 
1015 1015 1015 1015 1015 1015 1015 1015 1015 
1015 1015 1015 1015 1015 1015 1015 1015 1015 
1015 1015 1015 1015 1015 1015 1015 1015 1015 
1015 1015 1015 1015 1015 1015 1015 1015 1015 
1015 1015 1015 1015 1015 1015 1015 1015 1015 
1015 1015 1015 1015 1015 1015 1015 1015 1015 
1015 1015 1015 1015 1015 1015 1015 1015 1015 
1015 1015 1015 1015 1015 1015 1015 1015 1015 
1015 1015 1015 1015 1015 1015 1015 1015 1015 
1015 1015 1015 1015 1015 1015 1015 1015 1015 
1015 1015 1015 1015 1015 1015 1015 1015 1015 
1015 1015 1015 1015 1015 1015 1015 1015 1015 
1015 1015 1015 1015 1015 1015 1015 1015 1015 
1015 1015 1015 1015 1015 1015 1015 1015 1015 
1015 1015 1015 1015 1015 1015 1015 1015 1015 
1015 1015 1015 1015 1015 1015 1015 1015 1015 
1015 1015 1015 1015 1015 1015 1015 1015 1015 
1015 1015 1015 1015 1015 1015 1015 1015 1015 
1015 1015 1015 1015 1015 1015 1015 1015 1015 
1015 1015 1015 1015 1015 1015 1015 1015 1015 
1015 1015 1015 1015 1015 1015 1015 1015 1015 
1015 1015 1015 1015 1015 1015 1015 1015 1015 
1015 1015 1015 1015 1015 1015 1015 1015 1015 
1015 1015 1015 1015 1015 1015 1015 1015 1015 
1015 1015 1015 1015 1015 1015 1015 1015 1015 
1015 1015 1015 1015 1015 1015 1015 1015 1015 
1015 1015 1015 1015 1015 1015 1015 1015 1015 
1015 1015 1015 1015 1015 1015 1015 1015 1015 
1015 1015 1015 1015 1015 1015 1015 1015 1015 
1015 1015 1015 1015 1015 1015 1015 1015 1015 
1015 1015 1015 1015 1015 1015 1015 1015 1015 
1015 1015 1015 1015 1015 1015 1015 1015 1015 
1015 1015 1015 1015 1015 1015 1015 1015 1015 
1015 1015 1015 1015 1015 1015 1015 1015 1015 
1015 1015 1015 1015 1015 1015 1015 1015 1015 
1015 1015 1015 1015 1015 1015 1015 1015 1015 
1015 1015 1015 1015 1015 1015 1015 1015 1015 
1015 1015 1015 1015 1015 1015 1015 1015 1015 
1015 1015 1015 1015 1015 1015 1015 1015 1015 
1015 1015 1015 1015 1015 1015 1015 1015 1015 
1015 1015 1015 1015 1015 1015 1015 1015 1015 
1015 1015 1015 1015 1015 1015 1015 1015 1015 
1015 1015 1015 1015 1015 1015 1015 1015 1015 
1015 1015 1015 1015 1015 1015 1015 1015 1015 
1015 1015 1015 1015 1015 1015 1015 1015 1015 
1015 1015 1015 1015 1015 1015 1015 1015 1015 
1015 1015 1015 1015 1015 1015 1015 1015 1015 
1015 1015 1015 1015 1015 1015 1015 1015 1015 
1015 1015 1015 1015 1015 1015 1015 1015 1015 
1015 1015 1015 1015 1015 1015 1015 1015 1015 
1015 1015 1015 1015 1015 1015 1015 1015 1015 
1015 1015 1015 1015 1015 1015 1015 1015 1015 
1015 1015 1015 1015 1015 1015 1015 1015 1015 
1015 1015 1015 1015 1015 1015 1015 1015 1015 
1015 1015 1015 1015 1015 1015 1015 1015 1015 
1015 1015 1015 1015 1015 1015 1015 1015 1015 
1015 1015 1015 1015 1015 1015 1015 1015 1015 
1015 1015 1015 1015 1015 1015 1015 1015 1015 
1015 1015 1015 1015 1015 1015 1015 1015 1015 
1015 1015 1015 1015 1015 1015 1015 1015 1015 
1015 1015 1015 1015 1015 1015 1015 1015 1015 
1015 1015 1015 1015 1015 1015 1015 1015 1015 
1015 1015 1015 1015 1015 1015 1015 1015 1015 
1015 1015 1015 1015 1015 1015 1015 1015 1015 
1015 1015 1015 1015 1015 1015 1015 1015 1015 
1015 1015 1015 1015 1015 1015 1015 1015 1015 
1015 1015 1015 1015 1015 1015 1015 1015 1015 
1015 1015 1015 1015 1015 1015 1015 1015 1015 
1015 1015 1015 1015 1015 1015 1015 1015 1015 
1015 1015 1015 1015 1015 1015 1015 1015 1015 
1015 1015 1015 1015 1015 1015 1015 1015 1015 
1015 1015 1015 1015 1015 1015 1015 1015 1015 
1015 1015 1015 1015 1015 1015 1015 1015 1015 
1015 1015 1015 1015 1015 1015 1015 1015 1015 
1015 1015 1015 1015 1015 1015 1015 1015 1015 
1015 1015 1015 1015 1015 1015 1015 1015 1015 
1015 1015 1015 1015 1015 1015 1015 1015 1015 
1015 1015 1015 1015 1015 1015 1015 1015 1015 
1015 1015 1015 1015 1015 1015 1015 1015 1015 
1015 1015 1015 1015 1015 1015 1015 1015 1015 
1015 1015 1015 1015 1015 1015 1015 1015 1015 
1015 1015 1015 1015 1015 1015 1015 1015 1015 
1015 1015 1015 1015 1015 1015 1015 1015 1015 
1015 1015 1015 1015 1015 1015 1015 1015 1015 
1015 1015 1015 1015 1015 1015 1015 1015 1015 
1015 1015 1015 1015 1015 1015 1015 1015 1015 
1015 1015 1015 1015 1015 1015 1015 1015 1015 
1015 1015 1015 1015 1015 1015 1015 1015 1015 
1015 1015 1015 1015 1015 1015 1015 1015 1015 
1015 1015 1015 1015 1015 1015 1015 1015 1015 
1015 1015 1015 1015 1015 1015 1015 1015 1015 
1015 1015 1015 1015 1015 1015 1015 1015 1015 
1015 1015 1015 1015 1015 1015 1015 1015 1015 
1015 1015 1015 1015 1015 1015 1015 1015 1015 
1015 1015 1015 1015 1015 1015 1015 1015 1015 
1015 1015 1015 1015 1015 1015 1015 1015 1015 
1015 1015 1015 1015 1015 1015 1015 1015 1015 
1015 1015 1015 1015 1015 1015 1015 1015 1015 
1015 1015 1015 1015 1015 1015 1015 1015 1015 
1015 1015 1015 1015 1015 1015 1015 1015 1015 
1015 1015 1015 1015 1015 1015 1015 1015 1015 
1015 1015 1015 1015 1015 1015 1015 1015 1015 
1015 1015 1015 1015 1015 1015 1015 1015 1015 
1015 1015 1015 1015 1015 1015 1015 1015 1015 
1015 1015 1015 1015 1015 1015 1015 1015 1015 
1015 1015 1015 1015 1015 1015 1015 1015 1015 
1015 1015 1015 1015 1015 1015 1015 1015 1015 
1015 1015 1015 1015 1015 1015 1015 1015 1015 
1015 1015 1015 1015 1015 1015 1015 1015 1015 
1015 1015 1015 1015 1015 1015 1015 1015 1015 
1015 1015 1015 1015 1015 1015 1015 1015 1015 
1015 1015 1015 1015 1015 1015 1015 1015 1015 
1015 1015 1015 1015 1015 1015 1015 1015 1015 
1015 1015 1015 1015 1015 1015 1015 1015 1015 
1015 1015 1015 1015 1015 1015 1015 1015 1015 
1015 1015 1015 1015 1015 1015 1015 1015 1015 
1015 1015 1015 1015 1015 1015 1015 1015 1015 
1015 1015 1015 1015 1015 1015 1015 1015 1015 
1015 1015 1015 1015 1015 1015 1015 1015 1015 
1015 1015 1015 1015 1015 1015 1015 1015 1015 
1015 1015 1015 1015 1015 1015 1015 1015 1015 
1015 1015 1015 1015 1015 1015 1015 1015 1015 
1015 1015 1015 1015 1015 1015 1015 1015 1015 
1015 1015 1015 1015 1015 1015 1015 1015 1015 
1015 1015 1015 1015 1015 1015 1015 1015 1015 
1015 1015 1015 1015 1015 1015 1015 1015 1015 
1015 1015 1015 1015 1015 1015 1015 1015 1015 
1015 1015 1015 1015 1015 1015 1015 1015 1015 
1015 1015 1015 1015 1015 1015 1015 1015 1015 
1015 1015 1015 1015 1015 1015 1015 1015 1015 
1015 1015 1015 1015 1015 1015 1015 1015 1015 
1015 1015 1015 1015 1015 1015 1015 1015 1015 
1015 1015 1015 1015 1015 1015 1015 1015 1015 
1015 1015 1015 1015 1015 1015 1015 1015 1015 
1015 1015 1015 1015 1015 1015 1015 1015 1015 
1015 1015 1015 1015 1015 1015 1015 1015 1015 
1015 1015 1015 1015 1015 1015 1015 1015 1015 
1015 1015 1015 1015 1015 1015 1015 1015 1015 
1015 1015 1015 1015 1015 1015 1015 1015 1015 
1015 1015 1015 1015 1015 1015 1015 1015 1015 
1015 1015 1015 1015 1015 1015 1015 1015 1015 
1015 1015 1015 1015 1015 1015 1015 1015 1015 
1015 1015 1015 1015 1015 1015 1015 1015 1015 
1015 1015 1015 1015 1015 1015 1015 1015 1015 
1015 1015 1015 1015 1015 1015 1015 1015 1015 
1015 1015 1015 1015 1015 1015 1015 1015 1015 
1015 1015 1015 1015 1015 1015 1015 1015 1015 
1015 1015 1015 1015 1015 1015 1015 1015 1015 
1015 1015 1015 1015 1015 1015 1015 1015 1015 
1015 1015 1015 1015 1015 1015 1015 1015 1015 
1015 1015 1015 1015 1015 1015 1015 1015 1015 
1015 1015 1015 1015 1015 1015 1015 1015 1015 
1015 1015 1015 1015 1015 1015 1015 1015 1015 
1015 1015 1015 1015 1015 1015 1015 1015 1015 
1015 1015 1015 1015 1015 1015 1015 1015 1015 
1015 1015 1015 1015 1015 1015 1015 1015 1015 
1015 1015 1015 1015 1015 1015 1015 1015 1015 
1015 1015 1015 1015 1015 1015 1015 1015 1015 
1015 1015 1015 1015 1015 1015 1015 1015 1015 
1015 1015 1015 1015 1015 1015 1015 1015 1015 