# vtk DataFile Version 4.2
vtk output
ASCII
DATASET POLYDATA
POINTS 19036 float
-16.7941 5.65426 -19.8633 -16.6266 5.97381 -20.0623 -16.3373 5.60519 -20.0782 
-17.3739 5.6425 -19.8317 -17.0364 6.04888 -20.0634 -17.8504 5.57152 -19.8995 
-17.6235 5.98667 -20.0683 -18.0658 5.7523 -20.1069 -16.6727 5.08839 -19.8092 
-16.2346 4.91342 -20.0507 -17.244 5.10121 -19.7166 -17.7809 5.08991 -19.8133 
-18.1599 5.23662 -20.0597 -16.5836 4.60458 -19.894 -16.2582 4.46519 -20.1524 
-17.1631 4.48469 -19.7866 -17.7635 4.46552 -19.7859 -18.0218 4.51381 -20.2164 
-16.6388 4.27698 -20.1239 -17.1861 4.06617 -20.0683 -17.5186 3.79096 -20.1297 
-17.7135 3.99115 -19.867 -18.0155 3.98871 -20.0363 -17.8416 3.68655 -20.2411 
-17.9956 9.25047 -20.4781 -17.8215 9.57502 -20.6586 -17.5521 9.23103 -20.6959 
-18.5757 9.24366 -20.436 -18.2172 9.64034 -20.6604 -19.1582 9.15522 -20.4919 
-18.8084 9.59005 -20.681 -19.2994 9.41128 -20.7268 -17.8762 8.71356 -20.436 
-17.4659 8.54884 -20.6558 -18.4131 8.73462 -20.3389 -18.9375 8.79448 -20.3497 
-19.5686 9.05249 -20.6346 -19.4302 8.62689 -20.5113 -19.8017 8.78583 -20.7069 
-17.8 8.04703 -20.4353 -17.3861 8.06161 -20.629 -18.2846 8.21915 -20.3501 
-18.8633 8.13372 -20.4515 -19.3774 8.0553 -20.7968 -19.7279 8.4293 -20.7262 
-17.4039 7.53724 -20.4942 -17.09 7.76365 -20.7277 -16.926 7.31124 -20.6968 
-17.9182 7.40971 -20.3779 -18.3978 7.57602 -20.4277 -18.7956 7.53677 -20.6376 
-19.0391 7.73122 -20.7878 -17.2189 6.84091 -20.4516 -16.7801 6.84862 -20.6421 
-17.8307 6.91325 -20.3783 -18.443 6.86 -20.4296 -18.7795 7.07919 -20.6558 
-16.6562 6.29549 -20.3718 -16.5418 6.64783 -20.7731 -16.2898 6.29257 -20.7586 
-17.2886 6.33759 -20.2771 -17.8664 6.2866 -20.2996 -18.3425 6.377 -20.3644 
-18.9425 6.63382 -20.6166 -18.8466 6.21638 -20.5073 -19.2186 6.41249 -20.8214 
-16.0839 5.81212 -20.437 -15.969 5.95205 -20.8642 -15.8047 5.55423 -20.666 
-18.4625 5.69461 -20.3536 -18.8133 5.73258 -20.6625 -19.0483 6.03697 -20.8819 
-15.934 5.24258 -20.3456 -15.7895 5.12089 -20.7711 -18.33 5.00946 -20.4096 
-18.5803 5.2983 -20.6966 -15.9372 4.678 -20.4013 -15.8552 4.60962 -20.7205 
-17.8056 4.47198 -20.5326 -17.7331 4.46054 -20.7009 -18.0152 4.67615 -20.6991 
-18.3567 4.97962 -20.6868 -16.1265 4.31846 -20.5045 -16.5741 4.05298 -20.6366 
-17.1175 3.86678 -20.3984 -16.8248 3.78638 -20.7637 -17.8251 4.30999 -20.6012 
-18.0088 3.99648 -20.6411 -17.3586 3.60712 -20.7093 -17.8701 3.6106 -20.798 
-21.4279 11.5811 -21.1626 -21.3069 11.8789 -21.3045 -21.1281 11.5028 -21.2696 
-21.6029 11.7802 -21.3045 -19.1037 11.0039 -21.0522 -18.9505 11.3517 -21.4556 
-18.6172 11.0785 -21.2238 -19.7749 11.0326 -21.0232 -19.4964 11.3405 -21.2528 
-20.2114 10.9643 -21.1151 -20.0074 11.3838 -21.3613 -20.4067 11.1589 -21.3303 
-21.3588 11.2479 -21.1743 -21.1903 11.0529 -21.328 -21.6599 11.3278 -21.2713 
-18.5029 10.5238 -21.0587 -18.3188 10.9153 -21.3534 -18.0724 10.5503 -21.357 
-19.098 10.4429 -20.9715 -19.6078 10.5233 -20.9598 -20.1364 10.516 -21.0496 
-20.5009 10.6549 -21.2824 -21.4983 10.9605 -21.3305 -17.8506 9.9238 -20.9635 
-17.7741 10.2 -21.4686 -17.4773 9.85219 -21.272 -18.4594 9.94746 -20.8716 
-19.0458 9.90069 -20.9124 -19.6202 9.90575 -20.9764 -20.1214 9.92152 -21.0705 
-20.5075 10.0503 -21.2967 -17.2906 9.45936 -21.0401 -17.1996 9.58346 -21.4626 
-17.0236 9.19382 -21.2699 -19.7133 9.27507 -20.8711 -20.2553 9.25496 -21.0506 
-20.5749 9.48266 -21.2807 -17.1054 8.79439 -20.9612 -16.836 8.7596 -21.3471 
-20.0702 8.6477 -20.9112 -20.7431 9.0345 -21.2349 -20.6233 8.62593 -21.1218 
-21.0671 8.66838 -21.4353 -16.7293 8.24008 -21.1026 -16.5649 8.37686 -21.4903 
-16.4279 7.95809 -21.294 -17.0866 8.16061 -20.8483 -19.7762 8.17559 -20.9395 
-20.1764 8.18185 -21.1044 -20.583 8.20036 -21.2412 -20.8979 8.35334 -21.3625 
-16.6848 7.67345 -20.986 -16.3655 7.5093 -21.3624 -19.1071 7.29892 -20.9564 
-19.3339 7.59723 -21.1359 -19.7514 7.80423 -21.2238 -20.266 7.90959 -21.3335 
-16.5842 7.09858 -20.9511 -16.3555 6.86667 -21.2574 -19.1878 6.82355 -20.8978 
-19.4831 7.24675 -21.2605 -19.4552 6.9889 -21.152 -19.8069 6.86235 -21.4527 
-16.1667 6.37357 -21.2341 -19.5 6.61234 -21.2765 -19.2784 6.29462 -21.1827 
-15.9339 6.10018 -21.3096 -15.7999 5.7035 -21.2752 -18.729 5.56408 -21.2 
-19.0376 6.02119 -21.4458 -15.9333 5.30878 -21.2351 -15.9686 4.88303 -21.0415 
-16.1356 5.11293 -21.4416 -18.3583 5.07319 -21.0264 -18.2682 4.95009 -21.4277 
-18.4592 5.25615 -21.3989 -16.0943 4.38398 -20.9351 -16.2083 4.63889 -21.4031 
-17.8555 4.3727 -20.8314 -18.0918 4.50112 -21.1706 -16.4041 4.0601 -21.3207 
-16.5524 3.84186 -20.9847 -18.0572 3.90665 -21.324 -16.7508 3.69892 -21.1253 
-17.217 3.58852 -21.3728 -17.7562 3.57375 -21.3277 -20.8419 12.2702 -21.7019 
-20.6713 12.5167 -22.0429 -20.4462 12.2285 -21.8389 -21.476 12.2035 -21.5578 
-21.2211 12.648 -21.9671 -22.1497 12.2452 -21.6385 -21.8415 12.6542 -21.8492 
-22.7006 12.1746 -21.6829 -22.5381 12.636 -21.9882 -22.9482 12.3749 -21.9485 
-20.4148 11.7415 -21.607 -20.2132 12.0233 -21.8635 -19.9833 11.7829 -21.8313 
-20.934 11.8506 -21.481 -22.0054 11.6618 -21.49 -22.6038 11.7238 -21.5702 
-23.1513 12.129 -21.8058 -23.2595 11.7193 -21.6197 -23.9415 11.5522 -21.6682 
-23.7614 12.0369 -21.9859 -24.1898 11.761 -21.9355 -18.4789 11.2005 -21.5143 
-18.5994 11.3091 -21.9368 -18.2211 10.9452 -21.7865 -18.9918 11.4478 -21.8798 
-19.4639 11.5374 -21.8277 -20.8105 11.1086 -21.4521 -21.9946 10.9315 -21.5063 
-22.6144 11.1012 -21.5712 -23.2161 11.1177 -21.5533 -23.8389 11.0777 -21.5365 
-24.3459 11.4542 -21.8028 -24.3575 11.0604 -21.6623 -24.6071 11.2356 -22.0314 
-17.9901 10.541 -21.781 -20.8804 10.3299 -21.515 -21.4318 10.5685 -21.5375 
-22.0989 10.3902 -21.6028 -22.622 10.4892 -21.5947 -23.2209 10.5024 -21.5752 
-23.832 10.4827 -21.5389 -24.48 10.4439 -21.5936 -24.7903 10.6901 -21.9534 
-17.8099 10.2236 -22.0446 -17.4952 9.86296 -21.8174 -20.9033 9.71318 -21.518 
-21.2874 9.96954 -21.6197 -21.8233 9.88582 -21.6838 -22.4614 9.98561 -21.69 
-23.0697 9.9881 -21.6674 -23.6804 9.97118 -21.6496 -24.2925 9.95853 -21.6318 
-24.9773 10.2168 -21.7865 -24.8426 9.9106 -21.7009 -25.2302 9.90978 -22.0577 
-17.2415 9.52875 -21.9267 -16.9993 9.17208 -21.7678 -20.9873 9.17139 -21.4561 
-21.3903 9.36614 -21.6676 -21.7942 9.34297 -21.8503 -22.2122 9.55123 -21.8853 
-22.7912 9.60393 -21.8793 -23.3869 9.59214 -21.8772 -24.0047 9.58732 -21.9756 
-24.537 9.67311 -21.848 -24.8987 9.63155 -21.95 -16.7781 8.73044 -21.7854 
-21.3176 8.84889 -21.6342 -21.6981 8.76424 -21.9953 -16.5864 8.41833 -22.0524 
-16.3539 8.02136 -21.7485 -20.7318 7.90908 -21.543 -21.1463 8.10346 -21.8056 
-21.4023 8.41403 -21.8795 -16.2967 7.49333 -21.8909 -19.7596 7.34606 -21.4266 
-20.2175 7.55936 -21.5093 -20.6874 7.36837 -21.7087 -21.0241 7.53848 -21.9573 
-16.2312 6.87206 -21.8637 -20.2598 6.9577 -21.6254 -20.6565 6.91066 -21.8322 
-20.904 7.12664 -21.972 -16.038 6.39934 -21.6215 -16.0033 6.55969 -22.0856 
-15.8126 6.1598 -21.763 -19.3749 6.31665 -21.6769 -19.8492 6.42361 -21.9161 
-20.1209 6.43129 -21.7226 -20.0686 6.24434 -21.8673 -20.387 6.47034 -21.938 
-15.7668 5.80342 -22.036 -18.8303 5.63397 -21.8698 -19.1243 6.01935 -21.9172 
-20.2067 6.20211 -21.8639 -15.9916 5.44129 -21.7358 -16.2163 5.02253 -21.9003 
-17.2325 4.97681 -21.7491 -17.0275 4.95391 -21.8628 -17.1574 5.24209 -21.9819 
-17.4541 5.18319 -21.9863 -18.3802 5.00842 -21.7102 -18.5859 5.2533 -21.7974 
-16.3742 4.46475 -21.99 -17.133 4.41153 -21.7209 -16.8437 4.51091 -21.957 
-17.5021 4.64212 -21.8939 -18.1336 4.49028 -21.9033 -18.4305 4.89352 -22.0914 
-16.5907 4.19211 -21.9434 -16.7899 3.93861 -21.5626 -17.2418 3.8244 -21.6698 
-17.5519 4.05547 -21.9171 -17.9965 3.82113 -21.8019 -17.6623 3.67139 -21.783 
-21.6026 12.9465 -22.1964 -21.4754 13.11 -22.6624 -21.2043 12.8946 -22.3977 
-22.1599 12.9527 -22.142 -22.0235 13.1591 -22.5399 -22.5414 12.9387 -22.2228 
-22.4696 13.0923 -22.457 -22.8453 12.906 -22.5857 -20.165 12.2266 -22.1039 
-20.326 12.5373 -22.5836 -19.9022 12.2415 -22.4802 -20.8613 12.7335 -22.46 
-23.4068 12.3344 -22.1205 -23.2156 12.5889 -22.4369 -23.7676 12.3267 -22.255 
-23.685 12.4677 -22.4716 -24.0433 12.2869 -22.597 -19.7176 11.8993 -22.2082 
-19.6004 11.9866 -22.6826 -19.3921 11.6954 -22.4308 -24.4728 11.6271 -22.1008 
-24.3152 11.9442 -22.3525 -24.6097 11.6274 -22.5176 -18.343 11.0451 -22.2308 
-18.5882 11.1956 -22.4507 -18.9965 11.4337 -22.4637 -24.7879 11.1235 -22.5674 
-18.3877 10.8772 -22.6982 -18.0912 10.5652 -22.3908 -24.9868 10.68 -22.4142 
-25.0963 10.3685 -22.0989 -25.2123 10.3964 -22.5286 -17.8579 10.1162 -22.5461 
-17.6365 9.83064 -22.4356 -25.4707 10.0408 -22.595 -17.1618 9.22136 -22.244 
-17.3896 9.48368 -22.3602 -19.6286 9.27353 -22.2468 -19.3347 9.28003 -22.3908 
-19.751 9.51278 -22.5934 -20.1632 9.54912 -22.5321 -20.0423 9.21288 -22.2964 
-20.4533 9.40996 -22.5597 -22.0699 9.08957 -22.0554 -22.5979 9.20416 -22.0933 
-23.1136 9.28598 -22.0722 -23.6155 9.19358 -22.2268 -24.1073 9.23337 -22.5755 
-24.4967 9.46765 -22.2702 -25.0892 9.42651 -22.2271 -24.7105 9.31926 -22.4733 
-25.5509 9.58962 -22.3293 -25.5092 9.23648 -22.3402 -25.8276 9.32828 -22.6447 
-17.2057 9.0626 -22.6966 -16.9046 8.74708 -22.4005 -19.0947 8.70504 -22.2216 
-18.6644 8.66975 -22.4786 -19.0841 9.03596 -22.6562 -19.6582 8.73414 -22.2239 
-20.0294 8.79797 -22.3894 -20.3224 9.09638 -22.4881 -22.0341 8.73834 -22.1796 
-22.4291 8.75419 -22.2577 -23.0942 8.82356 -22.2877 -23.576 8.7731 -22.4473 
-23.8548 8.93895 -22.6027 -25.0582 9.05338 -22.5654 -25.6534 8.95599 -22.5422 
-16.6454 8.31709 -22.565 -16.4093 7.96857 -22.4116 -18.576 8.14904 -22.2508 
-18.1985 7.97593 -22.4698 -18.359 8.40872 -22.6791 -18.9772 8.10236 -22.1366 
-19.392 8.06527 -22.2602 -19.8778 8.31212 -22.4572 -21.387 7.9999 -22.2226 
-21.7119 8.07995 -22.4804 -22.1551 8.38258 -22.5167 -22.7777 8.44525 -22.575 
-23.3619 8.48983 -22.6572 -16.3095 7.423 -22.4043 -18.386 7.4292 -22.2051 
-18.0147 7.55718 -22.5352 -18.9809 7.55599 -22.2194 -19.4177 7.53185 -22.4332 
-19.7075 7.83148 -22.5271 -21.2376 7.53323 -22.4175 -21.4657 7.72383 -22.588 
[...]
CELL_DATA 38172
SCALARS scalars float
LOOKUP_TABLE default
1008 1008 1008 1008 1008 1008 1008 1008 1008 
1008 1008 1008 1008 1008 1008 1008 1008 1008 
1008 1008 1008 1008 1008 1008 1008 1008 1008 
1008 1008 1008 1008 1008 1008 1008 1008 1008 
1008 1008 1008 1008 1008 1008 1008 1008 1008 
1008 1008 1008 1008 1008 1008 1008 1008 1008 
1008 1008 1008 1008 1008 1008 1008 1008 1008 
1008 1008 1008 1008 1008 1008 1008 1008 1008 
1008 1008 1008 1008 1008 1008 1008 1008 1008 
1008 1008 1008 1008 1008 1008 1008 1008 1008 
1008 1008 1008 1008 1008 1008 1008 1008 1008 
1008 1008 1008 1008 1008 1008 1008 1008 1008 
1008 1008 1008 1008 1008 1008 1008 1008 1008 
1008 1008 1008 1008 1008 1008 1008 1008 1008 
1008 1008 1008 1008 1008 1008 1008 1008 1008 
1008 1008 1008 1008 1008 1008 1008 1008 1008 
1008 1008 1008 1008 1008 1008 1008 1008 1008 
1008 1008 1008 1008 1008 1008 1008 1008 1008 
1008 1008 1008 1008 1008 1008 1008 1008 1008 
1008 1008 1008 1008 1008 1008 1008 1008 1008 
1008 1008 1008 1008 1008 1008 1008 1008 1008 
1008 1008 1008 1008 1008 1008 1008 1008 1008 
1008 1008 1008 1008 1008 1008 1008 1008 1008 
1008 1008 1008 1008 1008 1008 1008 1008 1008 
1008 1008 1008 1008 1008 1008 1008 1008 1008 
1008 1008 1008 1008 1008 1008 1008 1008 1008 
1008 1008 1008 1008 1008 1008 1008 1008 1008 
1008 1008 1008 1008 1008 1008 1008 1008 1008 
1008 1008 1008 1008 1008 1008 1008 1008 1008 
1008 1008 1008 1008 1008 1008 1008 1008 1008 
1008 1008 1008 1008 1008 1008 1008 1008 1008 
1008 1008 1008 1008 1008 1008 1008 1008 1008 
1008 1008 1008 1008 1008 1008 1008 1008 1008 
1008 1008 1008 1008 1008 1008 1008 1008 1008 
1008 1008 1008 1008 1008 1008 1008 1008 1008 
1008 1008 1008 1008 1008 1008 1008 1008 1008 
1008 1008 1008 1008 1008 1008 1008 1008 1008 
1008 1008 1008 1008 1008 1008 1008 1008 1008 
1008 1008 1008 1008 1008 1008 1008 1008 1008 
1008 1008 1008 1008 1008 1008 1008 1008 1008 
1008 1008 1008 1008 1008 1008 1008 1008 1008 
1008 1008 1008 1008 1008 1008 1008 1008 1008 
1008 1008 1008 1008 1008 1008 1008 1008 1008 
1008 1008 1008 1008 1008 1008 1008 1008 1008 
1008 1008 1008 1008 1008 1008 1008 1008 1008 
1008 1008 1008 1008 1008 1008 1008 1008 1008 
1008 1008 1008 1008 1008 1008 1008 1008 1008 
1008 1008 1008 1008 1008 1008 1008 1008 1008 
1008 1008 1008 1008 1008 1008 1008 1008 1008 
1008 1008 1008 1008 1008 1008 1008 1008 1008 
1008 1008 1008 1008 1008 1008 1008 1008 1008 
1008 1008 1008 1008 1008 1008 1008 1008 1008 
1008 1008 1008 1008 1008 1008 1008 1008 1008 
1008 1008 1008 1008 1008 1008 1008 1008 1008 
1008 1008 1008 1008 1008 1008 1008 1008 1008 
1008 1008 1008 1008 1008 1008 1008 1008 1008 
1008 1008 1008 1008 1008 1008 1008 1008 1008 
1008 1008 1008 1008 1008 1008 1008 1008 1008 
1008 1008 1008 1008 1008 1008 1008 1008 1008 
1008 1008 1008 1008 1008 1008 1008 1008 1008 
1008 1008 1008 1008 1008 1008 1008 1008 1008 
1008 1008 1008 1008 1008 1008 1008 1008 1008 
1008 1008 1008 1008 1008 1008 1008 1008 1008 
1008 1008 1008 1008 1008 1008 1008 1008 1008 
1008 1008 1008 1008 1008 1008 1008 1008 1008 
1008 1008 1008 1008 1008 1008 1008 1008 1008 
1008 1008 1008 1008 1008 1008 1008 1008 1008 
1008 1008 1008 1008 1008 1008 1008 1008 1008 
1008 1008 1008 1008 1008 1008 1008 1008 1008 
1008 1008 1008 1008 1008 1008 1008 1008 1008 
1008 1008 1008 1008 1008 1008 1008 1008 1008 
1008 1008 1008 1008 1008 1008 1008 1008 1008 
1008 1008 1008 1008 1008 1008 1008 1008 1008 
1008 1008 1008 1008 1008 1008 1008 1008 1008 
1008 1008 1008 1008 1008 1008 1008 1008 1008 
1008 1008 1008 1008 1008 1008 1008 1008 1008 
1008 1008 1008 1008 1008 1008 1008 1008 1008 
1008 1008 1008 1008 1008 1008 1008 1008 1008 
1008 1008 1008 1008 1008 1008 1008 1008 1008 
1008 1008 1008 1008 1008 1008 1008 1008 1008 
1008 1008 1008 1008 1008 1008 1008 1008 1008 
1008 1008 1008 1008 1008 1008 1008 1008 1008 
1008 1008 1008 1008 1008 1008 1008 1008 1008 
1008 1008 1008 1008 1008 1008 1008 1008 1008 
1008 1008 1008 1008 1008 1008 1008 1008 1008 
1008 1008 1008 1008 1008 1008 1008 1008 1008 
1008 1008 1008 1008 1008 1008 1008 1008 1008 
1008 1008 1008 1008 1008 1008 1008 1008 1008 
1008 1008 1008 1008 1008 1008 1008 1008 1008 
1008 1008 1008 1008 1008 1008 1008 1008 1008 
1008 1008 1008 1008 1008 1008 1008 1008 1008 
1008 1008 1008 1008 1008 1008 1008 1008 1008 
1008 1008 1008 1008 1008 1008 1008 1008 1008 
1008 1008 1008 1008 1008 1008 1008 1008 1008 
1008 1008 1008 1008 1008 1008 1008 1008 1008 
1008 1008 1008 1008 1008 1008 1008 1008 1008 
1008 1008 1008 1008 1008 1008 1008 1008 1008 
1008 1008 1008 1008 1008 1008 1008 1008 1008 
1008 1008 1008 1008 1008 1008 1008 1008 1008 
1008 1008 1008 1008 1008 1008 1008 1008 1008 
1008 1008 1008 1008 1008 1008 1008 1008 1008 
1008 1008 1008 1008 1008 1008 1008 1008 1008 
1008 1008 1008 1008 1008 1008 1008 1008 1008 
1008 1008 1008 1008 1008 1008 1008 1008 1008 
1008 1008 1008 1008 1008 1008 1008 1008 1008 
1008 1008 1008 1008 1008 1008 1008 1008 1008 
1008 1008 1008 1008 1008 1008 1008 1008 1008 
1008 1008 1008 1008 1008 1008 1008 1008 1008 
1008 1008 1008 1008 1008 1008 1008 1008 1008 
1008 1008 1008 1008 1008 1008 1008 1008 1008 
1008 1008 1008 1008 1008 1008 1008 1008 1008 
1008 1008 1008 1008 1008 1008 1008 1008 1008 
1008 1008 1008 1008 1008 1008 1008 1008 1008 
1008 1008 1008 1008 1008 1008 1008 1008 1008 
1008 1008 1008 1008 1008 1008 1008 1008 1008 
1008 1008 1008 1008 1008 1008 1008 1008 1008 
1008 1008 1008 1008 1008 1008 1008 1008 1008 
1008 1008 1008 1008 1008 1008 1008 1008 1008 
1008 1008 1008 1008 1008 1008 1008 1008 1008 
1008 1008 1008 1008 1008 1008 1008 1008 1008 
1008 1008 1008 1008 1008 1008 1008 1008 1008 
1008 1008 1008 1008 1008 1008 1008 1008 1008 
1008 1008 1008 1008 1008 1008 1008 1008 1008 
1008 1008 1008 1008 1008 1008 1008 1008 1008 
1008 1008 1008 1008 1008 1008 1008 1008 1008 
1008 1008 1008 1008 1008 1008 1008 1008 1008 
1008 1008 1008 1008 1008 1008 1008 1008 1008 
1008 1008 1008 1008 1008 1008 1008 1008 1008 
1008 1008 1008 1008 1008 1008 1008 1008 1008 
1008 1008 1008 1008 1008 1008 1008 1008 1008 
1008 1008 1008 1008 1008 1008 1008 1008 1008 
1008 1008 1008 1008 1008 1008 1008 1008 1008 
1008 1008 1008 1008 1008 1008 1008 1008 1008 
1008 1008 1008 1008 1008 1008 1008 1008 1008 
1008 1008 1008 1008 1008 1008 1008 1008 1008 
1008 1008 1008 1008 1008 1008 1008 1008 1008 
1008 1008 1008 1008 1008 1008 1008 1008 1008 
1008 1008 1008 1008 1008 1008 1008 1008 1008 
1008 1008 1008 1008 1008 1008 1008 1008 1008 
1008 1008 1008 1008 1008 1008 1008 1008 1008 
1008 1008 1008 1008 1008 1008 1008 1008 1008 
1008 1008 1008 1008 1008 1008 1008 1008 1008 
1008 1008 1008 1008 1008 1008 1008 1008 1008 
1008 1008 1008 1008 1008 1008 1008 1008 1008 
1008 1008 1008 1008 1008 1008 1008 1008 1008 
1008 1008 1008 1008 1008 1008 1008 1008 1008 
1008 1008 1008 1008 1008 1008 1008 1008 1008 
1008 1008 1008 1008 1008 1008 1008 1008 1008 
1008 1008 1008 1008 1008 1008 1008 1008 1008 
1008 1008 1008 1008 1008 1008 1008 1008 1008 
1008 1008 1008 1008 1008 1008 1008 1008 1008 
1008 1008 1008 1008 1008 1008 1008 1008 1008 
1008 1008 1008 1008 1008 1008 1008 1008 1008 
1008 1008 1008 1008 1008 1008 1008 1008 1008 
1008 1008 1008 1008 1008 1008 1008 1008 1008 
1008 1008 1008 1008 1008 1008 1008 1008 1008 
1008 1008 1008 1008 1008 1008 1008 1008 1008 
1008 1008 1008 1008 1008 1008 1008 1008 1008 
1008 1008 1008 1008 1008 1008 1008 1008 1008 
1008 1008 1008 1008 1008 1008 1008 1008 1008 
1008 1008 1008 1008 1008 1008 1008 1008 1008 
1008 1008 1008 1008 1008 1008 1008 1008 1008 
1008 1008 1008 1008 1008 1008 1008 1008 1008 
1008 1008 1008 1008 1008 1008 1008 1008 1008 
1008 1008 1008 1008 1008 1008 1008 1008 1008 
1008 1008 1008 1008 1008 1008 1008 1008 1008 
1008 1008 1008 1008 1008 1008 1008 1008 1008 
1008 1008 1008 1008 1008 1008 1008 1008 1008 
1008 1008 1008 1008 1008 1008 1008 1008 1008 
1008 1008 1008 1008 1008 1008 1008 1008 1008 
1008 1008 1008 1008 1008 1008 1008 1008 1008 
1008 1008 1008 1008 1008 1008 1008 1008 1008 
1008 1008 1008 1008 1008 1008 1008 1008 1008 
1008 1008 1008 1008 1008 1008 1008 1008 1008 
1008 1008 1008 1008 1008 1008 1008 1008 1008 
1008 1008 1008 1008 1008 1008 1008 1008 1008 
1008 1008 1008 1008 1008 1008 1008 1008 1008 
1008 1008 1008 1008 1008 1008 1008 1008 1008 
1008 1008 1008 1008 1008 1008 1008 1008 1008 
1008 1008 1008 1008 1008 1008 1008 1008 1008 
1008 1008 1008 1008 1008 1008 1008 1008 1008 
1008 1008 1008 1008 1008 1008 1008 1008 1008 
1008 1008 1008 1008 1008 1008 1008 1008 1008 
1008 1008 1008 1008 1008 1008 1008 1008 1008 
1008 1008 1008 1008 1008 1008 1008 1008 1008 
1008 1008 1008 1008 1008 1008 1008 1008 1008 
1008 1008 1008 1008 1008 1008 1008 1008 1008 
1008 1008 1008 1008 1008 1008 1008 1008 1008 
1008 1008 1008 1008 1008 1008 1008 1008 1008 
1008 1008 1008 1008 1008 1008 1008 1008 1008 
1008 1008 1008 1008 1008 1008 1008 1008 1008 
1008 1008 1008 1008 1008 1008 1008 1008 1008 
1008 1008 1008 1008 1008 1008 1008 1008 1008 
1008 1008 1008 1008 1008 1008 1008 1008 1008 
1008 1008 1008 1008 1008 1008 1008 1008 1008 
1008 1008 1008 1008 1008 1008 1008 1008 1008 
1008 1008 1008 1008 1008 1008 1008 1008 1008 
1008 1008 1008 1008 1008 1008 1008 1008 1008 
1008 1008 1008 1008 1008 1008 1008 1008 1008 
1008 1008 1008 1008 1008 1008 1008 1008 1008 
1008 1008 1008 1008 1008 1008 1008 1008 1008 
1008 1008 1008 1008 1008 1008 1008 1008 1008 
1008 1008 1008 1008 1008 1008 1008 1008 1008 
1008 1008 1008 1008 1008 1008 1008 1008 1008 
1008 1008 1008 1008 1008 1008 1008 1008 1008 
1008 1008 1008 1008 1008 1008 1008 1008 1008 
1008 1008 1008 1008 1008 1008 1008 1008 1008 
1008 1008 1008 1008 1008 1008 1008 1008 1008 
1008 1008 1008 1008 1008 1008 1008 1008 1008 
1008 1008 1008 1008 1008 1008 1008 1008 1008 
1008 1008 1008 1008 1008 1008 1008 1008 1008 
1008 1008 1008 1008 1008 1008 1008 1008 1008 
1008 1008 1008 1008 1008 1008 1008 1008 1008 
1008 1008 1008 1008 1008 1008 1008 1008 1008 
1008 1008 1008 1008 1008 1008 1008 1008 1008 
1008 1008 1008 1008 1008 1008 1008 1008 1008 
1008 1008 1008 1008 1008 1008 1008 1008 1008 
1008 1008 1008 1008 1008 1008 1008 1008 1008 
1008 1008 1008 1008 1008 1008 1008 1008 1008 
1008 1008 1008 1008 1008 1008 1008 1008 1008 
1008 1008 1008 1008 1008 1008 1008 1008 1008 
1008 1008 1008 1008 1008 1008 1008 1008 1008 
1008 1008 1008 1008 1008 1008 1008 1008 1008 
1008 1008 1008 1008 1008 1008 1008 1008 1008 
1008 1008 1008 1008 1008 1008 1008 1008 1008 
1008 1008 1008 1008 1008 1008 1008 1008 1008 
1008 1008 1008 1008 1008 1008 1008 1008 1008 
1008 1008 1008 1008 1008 1008 1008 1008 1008 
1008 1008 1008 1008 1008 1008 1008 1008 1008 
1008 1008 1008 1008 1008 1008 1008 1008 1008 
1008 1008 1008 1008 1008 1008 1008 1008 1008 
1008 1008 1008 1008 1008 1008 1008 1008 1008 
1008 1008 1008 1008 1008 1008 1008 1008 1008 
1008 1008 1008 1008 1008 1008 1008 1008 1008 
1008 1008 1008 1008 1008 1008 1008 1008 1008 
1008 1008 1008 1008 1008 1008 1008 1008 1008 
1008 1008 1008 1008 1008 1008 1008 1008 1008 
1008 1008 1008 1008 1008 1008 1008 1008 1008 
1008 1008 1008 1008 1008 1008 1008 1008 1008 
1008 1008 1008 1008 1008 1008 1008 1008 1008 
1008 1008 1008 1008 1008 1008 1008 1008 1008 
1008 1008 1008 1008 1008 1008 1008 1008 1008 
1008 1008 1008 1008 1008 1008 1008 1008 1008 
1008 1008 1008 1008 1008 1008 1008 1008 1008 
1008 1008 1008 1008 1008 1008 1008 1008 1008 
1008 1008 1008 1008 1008 1008 1008 1008 1008 
1008 1008 1008 1008 1008 1008 1008 1008 1008 
1008 1008 1008 1008 1008 1008 1008 1008 1008 
1008 1008 1008 1008 1008 1008 1008 1008 1008 
1008 1008 1008 1008 1008 1008 1008 1008 1008 
1008 1008 1008 1008 1008 1008 1008 1008 1008 
1008 1008 1008 1008 1008 1008 1008 1008 1008 
1008 1008 1008 1008 1008 1008 1008 1008 1008 
1008 1008 1008 1008 1008 1008 1008 1008 1008 
1008 1008 1008 1008 1008 1008 1008 1008 1008 
1008 1008 1008 1008 1008 1008 1008 1008 1008 
1008 1008 1008 1008 1008 1008 1008 1008 1008 
1008 1008 1008 1008 1008 1008 1008 1008 1008 
1008 1008 1008 1008 1008 1008 1008 1008 1008 
1008 1008 1008 1008 1008 1008 1008 1008 1008 
1008 1008 1008 1008 1008 1008 1008 1008 1008 
1008 1008 1008 1008 1008 1008 1008 1008 1008 
1008 1008 1008 1008 1008 1008 1008 1008 1008 
1008 1008 1008 1008 1008 1008 1008 1008 1008 
1008 1008 1008 1008 1008 1008 1008 1008 1008 
1008 1008 1008 1008 1008 1008 1008 1008 1008 
1008 1008 1008 1008 1008 1008 1008 1008 1008 
1008 1008 1008 1008 1008 1008 1008 1008 1008 
1008 1008 1008 1008 1008 1008 1008 1008 1008 
1008 1008 1008 1008 1008 1008 1008 1008 1008 
1008 1008 1008 1008 1008 1008 1008 1008 1008 
1008 1008 1008 1008 1008 1008 1008 1008 1008 
1008 1008 1008 1008 1008 1008 1008 1008 1008 
1008 1008 1008 1008 1008 1008 1008 1008 1008 
1008 1008 1008 1008 1008 1008 1008 1008 1008 
1008 1008 1008 1008 1008 1008 1008 1008 1008 
1008 1008 1008 1008 1008 1008 1008 1008 1008 
1008 1008 1008 1008 1008 1008 1008 1008 1008 
1008 1008 1008 1008 1008 1008 1008 1008 1008 
1008 1008 1008 1008 1008 1008 1008 1008 1008 
1008 1008 1008 1008 1008 1008 1008 1008 1008 
1008 1008 1008 1008 1008 1008 1008 1008 1008 
1008 1008 1008 1008 1008 1008 1008 1008 1008 
1008 1008 1008 1008 1008 1008 1008 1008 1008 
1008 1008 1008 1008 1008 1008 1008 1008 1008 
1008 1008 1008 1008 1008 1008 1008 1008 1008 
1008 1008 1008 1008 1008 1008 1008 1008 1008 
1008 1008 1008 1008 1008 1008 1008 1008 1008 
1008 1008 1008 1008 1008 1008 1008 1008 1008 
1008 1008 1008 1008 1008 1008 1008 1008 1008 
1008 1008 1008 1008 1008 1008 1008 1008 1008 
1008 1008 1008 1008 1008 1008 1008 1008 1008 
1008 1008 1008 1008 1008 1008 1008 1008 1008 
1008 1008 1008 1008 1008 1008 1008 1008 1008 
1008 1008 1008 1008 1008 1008 1008 1008 1008 
1008 1008 1008 1008 1008 1008 1008 1008 1008 
1008 1008 1008 1008 1008 1008 1008 1008 1008 
1008 1008 1008 1008 1008 1008 1008 1008 1008 
1008 1008 1008 1008 1008 1008 1008 1008 1008 
1008 1008 1008 1008 1008 1008 1008 1008 1008 
1008 1008 1008 1008 1008 1008 1008 1008 1008 
1008 1008 1008 1008 1008 1008 1008 1008 1008 
1008 1008 1008 1008 1008 1008 1008 1008 1008 
1008 1008 1008 1008 1008 1008 1008 1008 1008 
1008 1008 1008 1008 1008 1008 1008 1008 1008 
1008 1008 1008 1008 1008 1008 1008 1008 1008 
1008 1008 1008 1008 1008 1008 1008 1008 1008 
1008 1008 1008 1008 1008 1008 1008 1008 1008 
1008 1008 1008 1008 1008 1008 1008 1008 1008 
1008 1008 1008 1008 1008 1008 1008 1008 1008 
1008 1008 1008 1008 1008 1008 1008 1008 1008 
1008 1008 1008 1008 1008 1008 1008 1008 1008 
1008 1008 1008 1008 1008 1008 1008 1008 1008 
1008 1008 1008 1008 1008 1008 1008 1008 1008 
1008 1008 1008 1008 1008 1008 1008 1008 1008 
1008 1008 1008 1008 1008 1008 1008 1008 1008 
1008 1008 1008 1008 1008 1008 1008 1008 1008 
1008 1008 1008 1008 1008 1008 1008 1008 1008 
1008 1008 1008 1008 1008 1008 1008 1008 1008 
1008 1008 1008 1008 1008 1008 1008 1008 1008 
1008 1008 1008 1008 1008 1008 1008 1008 1008 
1008 1008 1008 1008 1008 1008 1008 1008 1008 
1008 1008 1008 1008 1008 1008 1008 1008 1008 
1008 1008 1008 1008 1008 1008 1008 1008 1008 
1008 1008 1008 1008 1008 1008 1008 1008 1008 
1008 1008 1008 1008 1008 1008 1008 1008 1008 
1008 1008 1008 1008 1008 1008 1008 1008 1008 
1008 1008 1008 1008 1008 1008 1008 1008 1008 
1008 1008 1008 1008 1008 1008 1008 1008 1008 
1008 1008 1008 1008 1008 1008 1008 1008 1008 
1008 1008 1008 1008 1008 1008 1008 1008 1008 
1008 1008 1008 1008 1008 1008 1008 1008 1008 
1008 1008 1008 1008 1008 1008 1008 1008 1008 
1008 1008 1008 1008 1008 1008 1008 1008 1008 
1008 1008 1008 1008 1008 1008 1008 1008 1008 
1008 1008 1008 1008 1008 1008 1008 1008 1008 
1008 1008 1008 1008 1008 1008 1008 1008 1008 
1008 1008 1008 1008 1008 1008 1008 1008 1008 
1008 1008 1008 1008 1008 1008 1008 1008 1008 
1008 1008 1008 1008 1008 1008 1008 1008 1008 
1008 1008 1008 1008 1008 1008 1008 1008 1008 
1008 1008 1008 1008 1008 1008 1008 1008 1008 
1008 1008 1008 1008 1008 1008 1008 1008 1008 
1008 1008 1008 1008 1008 1008 1008 1008 1008 
1008 1008 1008 1008 1008 1008 1008 1008 1008 
1008 1008 1008 1008 1008 1008 1008 1008 1008 
1008 1008 1008 1008 1008 1008 1008 1008 1008 
1008 1008 1008 1008 1008 1008 1008 1008 1008 
1008 1008 1008 1008 1008 1008 1008 1008 1008 
1008 1008 1008 1008 1008 1008 1008 1008 1008 
1008 1008 1008 1008 1008 1008 1008 1008 1008 
1008 1008 1008 1008 1008 1008 1008 1008 1008 
1008 1008 1008 1008 1008 1008 1008 1008 1008 
1008 1008 1008 1008 1008 1008 1008 1008 1008 
1008 1008 1008 1008 1008 1008 1008 1008 1008 
1008 1008 1008 1008 1008 1008 1008 1008 1008 
1008 1008 1008 1008 1008 1008 1008 1008 1008 
1008 1008 1008 1008 1008 1008 1008 1008 1008 
1008 1008 1008 1008 1008 1008 1008 1008 1008 
1008 1008 1008 1008 1008 1008 1008 1008 1008 
1008 1008 1008 1008 1008 1008 1008 1008 1008 
1008 1008 1008 1008 1008 1008 1008 1008 1008 
1008 1008 1008 1008 1008 1008 1008 1008 1008 
1008 1008 1008 1008 1008 1008 1008 1008 1008 
1008 1008 1008 1008 1008 1008 1008 1008 1008 
1008 1008 1008 1008 1008 1008 1008 1008 1008 
1008 1008 1008 1008 1008 1008 1008 1008 1008 
1008 1008 1008 1008 1008 1008 1008 1008 1008 
1008 1008 1008 1008 1008 1008 1008 1008 1008 
1008 1008 1008 1008 1008 1008 1008 1008 1008 
1008 1008 1008 1008 1008 1008 1008 1008 1008 
1008 1008 1008 1008 1008 1008 1008 1008 1008 
1008 1008 1008 1008 1008 1008 1008 1008 1008 
1008 1008 1008 1008 1008 1008 1008 1008 1008 
1008 1008 1008 1008 1008 1008 1008 1008 1008 
1008 1008 1008 1008 1008 1008 1008 1008 1008 
1008 1008 1008 1008 1008 1008 1008 1008 1008 
1008 1008 1008 1008 1008 1008 1008 1008 1008 
1008 1008 1008 1008 1008 1008 1008 1008 1008 
1008 1008 1008 1008 1008 1008 1008 1008 1008 
1008 1008 1008 1008 1008 1008 1008 1008 1008 
1008 1008 1008 1008 1008 1008 1008 1008 1008 
1008 1008 1008 1008 1008 1008 1008 1008 1008 
1008 1008 1008 1008 1008 1008 1008 1008 1008 
1008 1008 1008 1008 1008 1008 1008 1008 1008 
1008 1008 1008 1008 1008 1008 1008 1008 1008 
1008 1008 1008 1008 1008 1008 1008 1008 1008 
1008 1008 1008 1008 1008 1008 1008 1008 1008 
1008 1008 1008 1008 1008 1008 1008 1008 1008 
1008 1008 1008 1008 1008 1008 1008 1008 1008 
1008 1008 1008 1008 1008 1008 1008 1008 1008 
1008 1008 1008 1008 1008 1008 1008 1008 1008 
1008 1008 1008 1008 1008 1008 1008 1008 1008 
1008 1008 1008 1008 1008 1008 1008 1008 1008 
1008 1008 1008 1008 1008 1008 1008 1008 1008 
1008 1008 1008 1008 1008 1008 1008 1008 1008 
1008 1008 1008 1008 1008 1008 1008 1008 1008 
1008 1008 1008 1008 1008 1008 1008 1008 1008 
1008 1008 1008 1008 1008 1008 1008 1008 1008 
1008 1008 1008 1008 1008 1008 1008 1008 1008 
1008 1008 1008 1008 1008 1008 1008 1008 1008 
1008 1008 1008 1008 1008 1008 1008 1008 1008 
1008 1008 1008 1008 1008 1008 1008 1008 1008 
1008 1008 1008 1008 1008 1008 1008 1008 1008 
1008 1008 1008 1008 1008 1008 1008 1008 1008 
1008 1008 1008 1008 1008 1008 1008 1008 1008 
1008 1008 1008 1008 1008 1008 1008 1008 1008 
1008 1008 1008 1008 1008 1008 1008 1008 1008 
1008 1008 1008 1008 1008 1008 1008 1008 1008 
1008 1008 1008 1008 1008 1008 1008 1008 1008 
1008 1008 1008 1008 1008 1008 1008 1008 1008 
1008 1008 1008 1008 1008 1008 1008 1008 1008 
1008 1008 1008 1008 1008 1008 1008 1008 1008 
1008 1008 1008 1008 1008 1008 1008 1008 1008 
1008 1008 1008 1008 1008 1008 1008 1008 1008 
1008 1008 1008 1008 1008 1008 1008 1008 1008 
1008 1008 1008 1008 1008 1008 1008 1008 1008 
1008 1008 1008 1008 1008 1008 1008 1008 1008 
1008 1008 1008 1008 1008 1008 1008 1008 1008 
1008 1008 1008 1008 1008 1008 1008 1008 1008 
1008 1008 1008 1008 1008 1008 1008 1008 1008 
1008 1008 1008 1008 1008 1008 1008 1008 1008 
1008 1008 1008 1008 1008 1008 1008 1008 1008 
1008 1008 1008 1008 1008 1008 1008 1008 1008 
1008 1008 1008 1008 1008 1008 1008 1008 1008 
1008 1008 1008 1008 1008 1008 1008 1008 1008 
1008 1008 1008 1008 1008 1008 1008 1008 1008 
1008 1008 1008 1008 1008 1008 1008 1008 1008 
1008 1008 1008 1008 1008 1008 1008 1008 1008 
1008 1008 1008 1008 1008 1008 1008 1008 1008 
1008 1008 1008 1008 1008 1008 1008 1008 1008 
1008 1008 1008 1008 1008 1008 1008 1008 1008 
1008 1008 1008 1008 1008 1008 1008 1008 1008 