# vtk DataFile Version 4.2
vtk output
ASCII
DATASET POLYDATA
POINTS 25874 float
23.6361 -3.51154 84.6579 23.5909 -3.10066 84.3903 23.4245 -3.69153 84.2131 
23.9112 -3.33846 84.5053 23.8364 -3.8072 84.4995 24.6875 8.47963 83.625 
24.7203 8.92528 83.2132 24.5337 8.41182 83.3423 25.1491 8.34341 83.2997 
24.7152 8.27145 83.4773 24.8893 -1.72128 83.8506 24.507 -1.18996 83.2351 
24.11 -1.6088 83.5725 25.7174 -1.71817 83.8202 25.5929 -0.980532 83.2188 
26.2325 -1.49678 83.3997 24.0418 -2.48077 84.0183 23.6972 -1.9533 83.5401 
23.302 -2.69729 83.6161 24.9064 -2.68591 84.0506 25.6075 -2.49254 83.9223 
26.2262 -2.25315 83.5633 23.0346 -3.74846 83.3371 24.5632 -3.70903 84.1697 
25.5847 -3.53043 83.8921 26.2471 -3.24032 83.5293 23.94 -4.53407 84.129 
23.3237 -4.58683 83.6817 24.687 -4.63957 84.0444 25.406 -4.64042 83.8319 
26.2167 -4.22516 83.4863 23.6897 -5.35129 83.8027 23.346 -5.34187 83.3094 
24.5453 -5.39164 83.8524 25.3579 -5.4415 83.5981 25.9649 -4.99805 83.445 
23.7535 -6.04858 83.3545 24.8034 -5.94808 83.4836 21.6264 -9.46591 83.6185 
21.579 -9.06287 83.3897 21.4003 -9.61525 83.1836 21.8907 -9.29882 83.4838 
21.8066 -9.7327 83.4641 22.6965 -10.2512 83.5208 22.3058 -10.7421 83.4713 
22.7879 -10.7477 83.675 23.071 -10.4328 83.4649 22.657 -11.3377 83.6877 
22.3656 -11.6672 83.4445 23.1808 -11.2106 83.5328 22.8734 -11.8466 83.4792 
24.0021 9.35692 82.8152 23.599 9.82114 82.4985 23.311 9.4604 82.5548 
24.6467 9.51641 82.9257 24.6367 10.0206 82.3325 25.2485 9.51545 82.5761 
23.4047 9.0228 82.3406 24.1938 8.50205 82.7056 25.8256 8.2485 82.8774 
25.557 8.91097 82.816 26.0899 8.70773 82.236 24.8193 7.96896 82.9157 
25.7113 7.36162 82.9273 24.9711 7.29707 82.5824 26.3585 7.82734 82.3606 
25.0893 6.56329 82.7882 24.5557 6.86655 82.3803 24.4686 6.2964 82.4159 
25.7356 6.47474 83.0508 26.6111 7.0504 82.6311 26.4046 6.34293 82.8597 
27.0645 6.59439 82.18 24.8859 5.86938 82.6019 25.1533 5.10272 82.3665 
25.6829 5.62233 82.8755 26.4175 5.48297 82.6764 26.8625 5.84793 82.4175 
25.639 4.66728 82.7141 25.4199 4.20677 82.2702 26.2365 4.51797 82.3982 
25.7778 4.00717 82.4186 22.5836 0.487312 82.6138 22.6984 0.729599 82.1478 
22.4285 0.442881 82.3417 23.0793 0.376571 82.2446 22.6037 0.303187 82.4693 
25.7516 -0.506017 82.8106 25.8895 -0.270023 82.3027 25.2811 -0.390805 82.4586 
26.243 -0.504933 82.5256 23.6563 -1.66721 83.1153 23.9636 -1.11632 82.6536 
23.2455 -1.51449 82.4943 24.6337 -0.788737 82.6443 26.7491 -1.81062 82.9684 
26.755 -0.983018 82.506 27.2677 -1.49923 82.3589 20.8439 -2.41456 82.7124 
20.8229 -2.28042 82.2603 20.4793 -2.47129 82.5324 21.7358 -2.6076 82.7877 
21.4326 -2.18814 82.5179 22.8339 -2.31256 82.9426 22.3365 -1.96873 82.3458 
26.7466 -2.76596 83.0313 27.2629 -2.26427 82.504 20.8272 -2.69424 82.6216 
21.511 -3.15912 82.3812 22.159 -3.52134 82.4671 22.5104 -3.18789 82.9285 
26.7723 -3.79892 83.0073 27.2675 -3.29387 82.5191 22.5216 -3.91939 82.4304 
23.056 -4.62149 82.8401 26.6094 -4.85505 83.0114 27.2686 -4.46543 82.4112 
23.276 -5.64397 82.3545 25.7077 -5.69459 83.2142 26.4812 -5.77061 82.815 
27.0396 -5.47961 82.3817 22.6913 -6.32055 82.3326 22.4802 -6.52987 82.4823 
22.8886 -6.38836 82.7837 23.4524 -6.64707 82.9229 24.5662 -6.47504 83.034 
25.653 -6.412 82.8135 26.3387 -6.60263 82.328 26.8091 -6.13508 82.3367 
22.8598 -6.71159 82.4374 23.8191 -6.99503 82.371 24.9412 -7.03871 82.4751 
25.7013 -7.02234 82.329 22.0023 -8.64182 82.9922 21.9481 -8.1682 82.3127 
21.4557 -8.76318 82.7789 22.8964 -8.72015 82.7903 22.4543 -8.11615 82.5199 
23.0932 -8.28009 82.3861 21.0465 -9.47468 82.3526 22.5913 -9.72534 83.2485 
23.6464 -8.78952 82.5371 23.8733 -9.53285 82.8795 24.7585 -9.73903 82.7344 
24.4139 -9.06493 82.471 25.0902 -9.44343 82.411 21.7589 -10.3314 83.1757 
21.1616 -10.6589 82.6223 23.7357 -10.646 83.1722 24.6422 -10.5103 82.8658 
25.2787 -10.2633 82.5187 21.799 -11.4929 83.0164 21.1584 -11.8839 82.502 
23.5346 -11.7736 83.2006 24.4025 -11.6293 82.8492 25.2526 -11.4332 82.3344 
21.7 -12.375 82.7416 21.2802 -12.5423 82.4717 22.5928 -12.3529 83.0284 
23.6881 -12.4684 82.8326 24.3636 -12.6097 82.3455 24.8012 -12.1253 82.3437 
21.7467 -13.0091 82.3776 22.9711 -13.1011 82.532 23.7639 -13.0651 82.3764 
22.8492 10.5136 81.8153 22.7349 10.8235 81.1832 22.3285 10.2812 81.5271 
23.7821 10.419 82.0529 23.6674 10.9118 81.4061 24.6485 10.5443 81.8989 
24.5053 10.8053 81.5297 25.1725 10.4952 81.3007 22.8647 9.74814 82.055 
22.416 9.76139 81.2523 25.8489 9.35187 82.1184 25.606 9.8888 81.6943 
26.088 9.36931 81.4043 22.9379 9.08538 81.5364 23.5577 8.21003 81.9866 
23.0062 8.47126 81.4173 26.3795 8.51124 81.349 23.0297 7.50109 81.8132 
22.6182 8.08184 81.3608 22.3341 7.40456 81.3992 23.7202 7.43133 81.9776 
24.3361 7.55054 82.2434 26.7255 7.82498 81.6224 26.8722 7.32274 82.1195 
27.0872 7.32629 81.4173 22.7897 6.52152 81.8035 22.2708 6.40597 81.2202 
23.8208 6.61266 82.0692 27.2954 6.65654 81.2731 22.7668 5.83323 81.5973 
23.2607 5.25789 81.4197 23.47 5.71687 81.7937 24.3815 5.61845 82.0525 
26.7916 5.08181 82.1386 27.2039 5.7451 81.5498 24.0442 5.0265 81.4517 
24.748 4.94102 81.6543 25.0521 4.35047 81.6392 26.7571 4.44891 81.9296 
27.108 4.58043 81.2607 25.6687 3.57575 81.9598 25.3006 3.44055 81.4294 
26.1576 3.58676 81.8186 26.7298 3.87686 81.5274 26.002 3.16668 81.2451 
22.9307 0.808976 81.2804 22.4816 0.569728 81.7595 24.0257 0.3214 81.9197 
23.6259 0.893556 81.5233 24.8621 0.221816 81.85 24.4947 0.760684 81.4667 
25.2183 0.658887 81.2568 22.7451 0.116451 81.8953 23.5907 -0.552334 82.0998 
22.993 -0.423264 81.2977 24.5003 -0.279776 82.1738 25.7415 0.0597965 81.6028 
26.7383 -0.496159 82.0015 26.4652 -0.23855 81.6879 27.1456 -0.571194 81.2967 
22.888 -1.26467 81.8609 22.6993 -1.10031 81.1077 22.2993 -1.72265 81.3663 
27.7706 -1.84333 81.9183 27.5738 -1.1443 81.6754 28.0363 -1.52391 81.2511 
20.7422 -2.72682 82.1183 21.0563 -2.64349 81.4642 21.5744 -2.09284 81.828 
27.7782 -2.79756 82.0226 28.1494 -2.2989 81.3438 21.229 -3.55361 81.3811 
21.8255 -3.6498 82.0224 27.7607 -3.8396 82.0255 28.1473 -3.3295 81.4089 
21.9301 -4.11829 81.6267 22.767 -4.66391 81.9065 22.177 -4.55477 81.406 
27.687 -4.67426 81.861 28.0499 -4.27686 81.3958 22.6784 -5.01276 81.2087 
23.5516 -5.24082 81.6464 23.8413 -5.52371 81.7337 23.9634 -5.50415 81.4759 
27.3654 -5.37239 81.7199 27.7268 -5.03002 81.1882 22.5842 -6.55817 82.1989 
23.1167 -6.72555 81.7017 23.6038 -5.87054 81.3939 26.7322 -6.57048 81.9919 
27.0529 -6.34457 81.4619 22.8476 -7.31665 81.2779 22.5717 -7.64153 81.4119 
22.8037 -7.69927 81.8976 23.7763 -7.59222 81.9574 24.7065 -7.68053 82.068 
25.5453 -7.64747 81.9623 26.1803 -7.41732 81.7369 26.6905 -7.06647 81.5083 
21.4695 -8.65873 82.006 22.0497 -8.17499 81.461 23.7679 -8.32969 82.1573 
24.7793 -8.57749 82.079 25.7569 -8.58826 81.8304 26.2627 -8.20791 81.4696 
20.4985 -9.72754 81.91 20.8193 -9.02818 81.558 20.1234 -9.59919 81.2767 
21.451 -8.68092 81.4238 25.7672 -9.66461 82.1099 26.5592 -8.93159 81.5173 
26.5931 -9.59884 81.7644 27.0807 -9.46074 81.4137 19.9741 -10.4723 81.8201 
19.6695 -10.2368 81.311 19.3576 -10.9006 81.4306 20.6404 -10.3379 82.1682 
25.8763 -10.8099 82.1664 26.6084 -10.5752 81.8634 27.2531 -10.2937 81.5002 
19.7181 -11.5682 81.8653 19.217 -11.7307 81.4901 20.5108 -11.2976 82.1548 
25.8466 -11.4697 82.0354 26.4143 -11.4645 81.8042 27.2532 -11.4696 81.3112 
19.5742 -12.3292 81.7225 19.3269 -12.2917 81.2132 20.5467 -12.4505 82.0518 
24.75 -12.5633 82.0072 25.2316 -12.5585 81.509 25.933 -12.0737 81.6228 
26.6971 -12.103 81.3426 19.9586 -12.8025 81.4202 20.8815 -13.1607 81.663 
21.5993 -13.6059 81.9433 21.1886 -13.7432 81.401 22.4071 -13.7679 82.0451 
23.406 -13.5759 81.9415 24.1693 -13.3575 81.7501 24.7179 -13.0703 81.5097 
21.7658 -14.2448 81.7639 21.4287 -14.498 81.1696 22.278 -14.4327 81.6345 
23.0328 -14.1634 81.3168 23.9185 -13.8568 81.1865 21.9728 -14.8196 81.2829 
22.7934 10.9416 80.2266 22.3462 10.4048 80.6153 23.6716 11.0627 80.5138 
24.6123 10.9201 80.7502 25.3127 10.5494 80.161 29.9728 10.2385 80.7353 
29.5502 10.7655 80.4316 29.2627 10.1763 80.5193 30.1413 10.6648 80.4461 
22.5629 9.82622 80.5465 22.6877 9.47351 80.9592 22.91 9.28921 80.5549 
25.797 10.0217 80.7116 26.138 9.35256 80.4578 29.8572 9.47398 80.8822 
29.1808 9.26098 80.5204 30.5581 10.0945 80.5904 30.5813 9.44943 80.808 
31.0475 9.56672 80.4533 22.7496 8.93363 80.1323 22.387 8.24061 80.7354 
22.7853 8.66676 80.8914 26.3579 8.44656 80.1681 29.8331 8.49959 80.9071 
29.1872 8.25702 80.5019 30.7617 8.44115 80.9134 31.2951 8.78414 80.5248 
22.0683 7.47696 80.6408 26.7482 7.90712 80.806 27.0942 7.14778 80.3997 
29.8195 7.49529 80.8996 29.1802 7.25299 80.4936 30.7 7.46615 81.0296 
31.5827 8.02334 80.5962 31.5648 7.37622 80.8084 32.0643 7.49773 80.4239 
22.2052 6.68695 80.4191 27.3082 6.31599 80.6119 29.8173 6.48916 80.8843 
29.1755 6.25143 80.4906 30.7118 6.46774 81.0335 31.5969 6.45465 80.8811 
32.225 6.69583 80.4711 22.6838 5.36081 81.1532 22.3498 5.46753 80.5419 
27.2759 5.44437 80.4554 29.8183 5.47337 80.8838 29.1664 5.22942 80.4958 
30.718 5.475 81.0376 31.7762 5.38008 80.8999 32.3615 5.76071 80.5127 
22.645 4.6826 80.7304 22.3237 4.26011 80.2188 23.5775 4.49741 80.9562 
24.5234 4.47032 81.2138 27.2533 4.5535 80.257 29.8283 4.43769 80.8999 
29.1854 4.21595 80.5119 30.7185 4.46456 81.0471 31.5596 4.56903 81.0135 
32.6019 5.02301 80.5739 32.4008 4.32628 80.7528 32.9953 4.59483 80.4102 
22.9997 3.9945 80.4361 23.7959 3.76404 80.5473 23.9712 3.24118 80.54 
24.4852 3.6004 80.9628 26.5923 3.29655 81.0745 27.0997 3.5802 80.3864 
29.8434 3.50238 80.858 29.2944 3.55939 80.5276 30.7376 3.41883 81.0505 
31.7253 3.52928 80.9056 32.4347 3.51853 80.5624 32.897 4.01861 80.4024 
23.9724 2.66535 80.6745 23.5253 2.79672 80.4057 23.4077 2.38228 80.4435 
24.7267 2.63107 80.7618 25.7568 2.74082 80.624 25.227 2.42793 80.4642 
26.6186 2.89886 80.4444 29.6038 2.95709 80.4261 30.1544 2.10702 80.3874 
30.6477 2.46546 80.9502 31.5723 2.42321 80.8966 32.2715 2.69012 80.5104 
23.7598 2.01315 80.3066 24.7791 2.11183 80.3606 25.7607 1.76947 80.4094 
[...]
CELL_DATA 51912
SCALARS scalars float
LOOKUP_TABLE default
1027 1027 1027 1027 1027 1027 1027 1027 1027 
1027 1027 1027 1027 1027 1027 1027 1027 1027 
1027 1027 1027 1027 1027 1027 1027 1027 1027 
1027 1027 1027 1027 1027 1027 1027 1027 1027 
1027 1027 1027 1027 1027 1027 1027 1027 1027 
1027 1027 1027 1027 1027 1027 1027 1027 1027 
1027 1027 1027 1027 1027 1027 1027 1027 1027 
1027 1027 1027 1027 1027 1027 1027 1027 1027 
1027 1027 1027 1027 1027 1027 1027 1027 1027 
1027 1027 1027 1027 1027 1027 1027 1027 1027 
1027 1027 1027 1027 1027 1027 1027 1027 1027 
1027 1027 1027 1027 1027 1027 1027 1027 1027 
1027 1027 1027 1027 1027 1027 1027 1027 1027 
1027 1027 1027 1027 1027 1027 1027 1027 1027 
1027 1027 1027 1027 1027 1027 1027 1027 1027 
1027 1027 1027 1027 1027 1027 1027 1027 1027 
1027 1027 1027 1027 1027 1027 1027 1027 1027 
1027 1027 1027 1027 1027 1027 1027 1027 1027 
1027 1027 1027 1027 1027 1027 1027 1027 1027 
1027 1027 1027 1027 1027 1027 1027 1027 1027 
1027 1027 1027 1027 1027 1027 1027 1027 1027 
1027 1027 1027 1027 1027 1027 1027 1027 1027 
1027 1027 1027 1027 1027 1027 1027 1027 1027 
1027 1027 1027 1027 1027 1027 1027 1027 1027 
1027 1027 1027 1027 1027 1027 1027 1027 1027 
1027 1027 1027 1027 1027 1027 1027 1027 1027 
1027 1027 1027 1027 1027 1027 1027 1027 1027 
1027 1027 1027 1027 1027 1027 1027 1027 1027 
1027 1027 1027 1027 1027 1027 1027 1027 1027 
1027 1027 1027 1027 1027 1027 1027 1027 1027 
1027 1027 1027 1027 1027 1027 1027 1027 1027 
1027 1027 1027 1027 1027 1027 1027 1027 1027 
1027 1027 1027 1027 1027 1027 1027 1027 1027 
1027 1027 1027 1027 1027 1027 1027 1027 1027 
1027 1027 1027 1027 1027 1027 1027 1027 1027 
1027 1027 1027 1027 1027 1027 1027 1027 1027 
1027 1027 1027 1027 1027 1027 1027 1027 1027 
1027 1027 1027 1027 1027 1027 1027 1027 1027 
1027 1027 1027 1027 1027 1027 1027 1027 1027 
1027 1027 1027 1027 1027 1027 1027 1027 1027 
1027 1027 1027 1027 1027 1027 1027 1027 1027 
1027 1027 1027 1027 1027 1027 1027 1027 1027 
1027 1027 1027 1027 1027 1027 1027 1027 1027 
1027 1027 1027 1027 1027 1027 1027 1027 1027 
1027 1027 1027 1027 1027 1027 1027 1027 1027 
1027 1027 1027 1027 1027 1027 1027 1027 1027 
1027 1027 1027 1027 1027 1027 1027 1027 1027 
1027 1027 1027 1027 1027 1027 1027 1027 1027 
1027 1027 1027 1027 1027 1027 1027 1027 1027 
1027 1027 1027 1027 1027 1027 1027 1027 1027 
1027 1027 1027 1027 1027 1027 1027 1027 1027 
1027 1027 1027 1027 1027 1027 1027 1027 1027 
1027 1027 1027 1027 1027 1027 1027 1027 1027 
1027 1027 1027 1027 1027 1027 1027 1027 1027 
1027 1027 1027 1027 1027 1027 1027 1027 1027 
1027 1027 1027 1027 1027 1027 1027 1027 1027 
1027 1027 1027 1027 1027 1027 1027 1027 1027 
1027 1027 1027 1027 1027 1027 1027 1027 1027 
1027 1027 1027 1027 1027 1027 1027 1027 1027 
1027 1027 1027 1027 1027 1027 1027 1027 1027 
1027 1027 1027 1027 1027 1027 1027 1027 1027 
1027 1027 1027 1027 1027 1027 1027 1027 1027 
1027 1027 1027 1027 1027 1027 1027 1027 1027 
1027 1027 1027 1027 1027 1027 1027 1027 1027 
1027 1027 1027 1027 1027 1027 1027 1027 1027 
1027 1027 1027 1027 1027 1027 1027 1027 1027 
1027 1027 1027 1027 1027 1027 1027 1027 1027 
1027 1027 1027 1027 1027 1027 1027 1027 1027 
1027 1027 1027 1027 1027 1027 1027 1027 1027 
1027 1027 1027 1027 1027 1027 1027 1027 1027 
1027 1027 1027 1027 1027 1027 1027 1027 1027 
1027 1027 1027 1027 1027 1027 1027 1027 1027 
1027 1027 1027 1027 1027 1027 1027 1027 1027 
1027 1027 1027 1027 1027 1027 1027 1027 1027 
1027 1027 1027 1027 1027 1027 1027 1027 1027 
1027 1027 1027 1027 1027 1027 1027 1027 1027 
1027 1027 1027 1027 1027 1027 1027 1027 1027 
1027 1027 1027 1027 1027 1027 1027 1027 1027 
1027 1027 1027 1027 1027 1027 1027 1027 1027 
1027 1027 1027 1027 1027 1027 1027 1027 1027 
1027 1027 1027 1027 1027 1027 1027 1027 1027 
1027 1027 1027 1027 1027 1027 1027 1027 1027 
1027 1027 1027 1027 1027 1027 1027 1027 1027 
1027 1027 1027 1027 1027 1027 1027 1027 1027 
1027 1027 1027 1027 1027 1027 1027 1027 1027 
1027 1027 1027 1027 1027 1027 1027 1027 1027 
1027 1027 1027 1027 1027 1027 1027 1027 1027 
1027 1027 1027 1027 1027 1027 1027 1027 1027 
1027 1027 1027 1027 1027 1027 1027 1027 1027 
1027 1027 1027 1027 1027 1027 1027 1027 1027 
1027 1027 1027 1027 1027 1027 1027 1027 1027 
1027 1027 1027 1027 1027 1027 1027 1027 1027 
1027 1027 1027 1027 1027 1027 1027 1027 1027 
1027 1027 1027 1027 1027 1027 1027 1027 1027 
1027 1027 1027 1027 1027 1027 1027 1027 1027 
1027 1027 1027 1027 1027 1027 1027 1027 1027 
1027 1027 1027 1027 1027 1027 1027 1027 1027 
1027 1027 1027 1027 1027 1027 1027 1027 1027 
1027 1027 1027 1027 1027 1027 1027 1027 1027 
1027 1027 1027 1027 1027 1027 1027 1027 1027 
1027 1027 1027 1027 1027 1027 1027 1027 1027 
1027 1027 1027 1027 1027 1027 1027 1027 1027 
1027 1027 1027 1027 1027 1027 1027 1027 1027 
1027 1027 1027 1027 1027 1027 1027 1027 1027 
1027 1027 1027 1027 1027 1027 1027 1027 1027 
1027 1027 1027 1027 1027 1027 1027 1027 1027 
1027 1027 1027 1027 1027 1027 1027 1027 1027 
1027 1027 1027 1027 1027 1027 1027 1027 1027 
1027 1027 1027 1027 1027 1027 1027 1027 1027 
1027 1027 1027 1027 1027 1027 1027 1027 1027 
1027 1027 1027 1027 1027 1027 1027 1027 1027 
1027 1027 1027 1027 1027 1027 1027 1027 1027 
1027 1027 1027 1027 1027 1027 1027 1027 1027 
1027 1027 1027 1027 1027 1027 1027 1027 1027 
1027 1027 1027 1027 1027 1027 1027 1027 1027 
1027 1027 1027 1027 1027 1027 1027 1027 1027 
1027 1027 1027 1027 1027 1027 1027 1027 1027 
1027 1027 1027 1027 1027 1027 1027 1027 1027 
1027 1027 1027 1027 1027 1027 1027 1027 1027 
1027 1027 1027 1027 1027 1027 1027 1027 1027 
1027 1027 1027 1027 1027 1027 1027 1027 1027 
1027 1027 1027 1027 1027 1027 1027 1027 1027 
1027 1027 1027 1027 1027 1027 1027 1027 1027 
1027 1027 1027 1027 1027 1027 1027 1027 1027 
1027 1027 1027 1027 1027 1027 1027 1027 1027 
1027 1027 1027 1027 1027 1027 1027 1027 1027 
1027 1027 1027 1027 1027 1027 1027 1027 1027 
1027 1027 1027 1027 1027 1027 1027 1027 1027 
1027 1027 1027 1027 1027 1027 1027 1027 1027 
1027 1027 1027 1027 1027 1027 1027 1027 1027 
1027 1027 1027 1027 1027 1027 1027 1027 1027 
1027 1027 1027 1027 1027 1027 1027 1027 1027 
1027 1027 1027 1027 1027 1027 1027 1027 1027 
1027 1027 1027 1027 1027 1027 1027 1027 1027 
1027 1027 1027 1027 1027 1027 1027 1027 1027 
1027 1027 1027 1027 1027 1027 1027 1027 1027 
1027 1027 1027 1027 1027 1027 1027 1027 1027 
1027 1027 1027 1027 1027 1027 1027 1027 1027 
1027 1027 1027 1027 1027 1027 1027 1027 1027 
1027 1027 1027 1027 1027 1027 1027 1027 1027 
1027 1027 1027 1027 1027 1027 1027 1027 1027 
1027 1027 1027 1027 1027 1027 1027 1027 1027 
1027 1027 1027 1027 1027 1027 1027 1027 1027 
1027 1027 1027 1027 1027 1027 1027 1027 1027 
1027 1027 1027 1027 1027 1027 1027 1027 1027 
1027 1027 1027 1027 1027 1027 1027 1027 1027 
1027 1027 1027 1027 1027 1027 1027 1027 1027 
1027 1027 1027 1027 1027 1027 1027 1027 1027 
1027 1027 1027 1027 1027 1027 1027 1027 1027 
1027 1027 1027 1027 1027 1027 1027 1027 1027 
1027 1027 1027 1027 1027 1027 1027 1027 1027 
1027 1027 1027 1027 1027 1027 1027 1027 1027 
1027 1027 1027 1027 1027 1027 1027 1027 1027 
1027 1027 1027 1027 1027 1027 1027 1027 1027 
1027 1027 1027 1027 1027 1027 1027 1027 1027 
1027 1027 1027 1027 1027 1027 1027 1027 1027 
1027 1027 1027 1027 1027 1027 1027 1027 1027 
1027 1027 1027 1027 1027 1027 1027 1027 1027 
1027 1027 1027 1027 1027 1027 1027 1027 1027 
1027 1027 1027 1027 1027 1027 1027 1027 1027 
1027 1027 1027 1027 1027 1027 1027 1027 1027 
1027 1027 1027 1027 1027 1027 1027 1027 1027 
1027 1027 1027 1027 1027 1027 1027 1027 1027 
1027 1027 1027 1027 1027 1027 1027 1027 1027 
1027 1027 1027 1027 1027 1027 1027 1027 1027 
1027 1027 1027 1027 1027 1027 1027 1027 1027 
1027 1027 1027 1027 1027 1027 1027 1027 1027 
1027 1027 1027 1027 1027 1027 1027 1027 1027 
1027 1027 1027 1027 1027 1027 1027 1027 1027 
1027 1027 1027 1027 1027 1027 1027 1027 1027 
1027 1027 1027 1027 1027 1027 1027 1027 1027 
1027 1027 1027 1027 1027 1027 1027 1027 1027 
1027 1027 1027 1027 1027 1027 1027 1027 1027 
1027 1027 1027 1027 1027 1027 1027 1027 1027 
1027 1027 1027 1027 1027 1027 1027 1027 1027 
1027 1027 1027 1027 1027 1027 1027 1027 1027 
1027 1027 1027 1027 1027 1027 1027 1027 1027 
1027 1027 1027 1027 1027 1027 1027 1027 1027 
1027 1027 1027 1027 1027 1027 1027 1027 1027 
1027 1027 1027 1027 1027 1027 1027 1027 1027 
1027 1027 1027 1027 1027 1027 1027 1027 1027 
1027 1027 1027 1027 1027 1027 1027 1027 1027 
1027 1027 1027 1027 1027 1027 1027 1027 1027 
1027 1027 1027 1027 1027 1027 1027 1027 1027 
1027 1027 1027 1027 1027 1027 1027 1027 1027 
1027 1027 1027 1027 1027 1027 1027 1027 1027 
1027 1027 1027 1027 1027 1027 1027 1027 1027 
1027 1027 1027 1027 1027 1027 1027 1027 1027 
1027 1027 1027 1027 1027 1027 1027 1027 1027 
1027 1027 1027 1027 1027 1027 1027 1027 1027 
1027 1027 1027 1027 1027 1027 1027 1027 1027 
1027 1027 1027 1027 1027 1027 1027 1027 1027 
1027 1027 1027 1027 1027 1027 1027 1027 1027 
1027 1027 1027 1027 1027 1027 1027 1027 1027 
1027 1027 1027 1027 1027 1027 1027 1027 1027 
1027 1027 1027 1027 1027 1027 1027 1027 1027 
1027 1027 1027 1027 1027 1027 1027 1027 1027 
1027 1027 1027 1027 1027 1027 1027 1027 1027 
1027 1027 1027 1027 1027 1027 1027 1027 1027 
1027 1027 1027 1027 1027 1027 1027 1027 1027 
1027 1027 1027 1027 1027 1027 1027 1027 1027 
1027 1027 1027 1027 1027 1027 1027 1027 1027 
1027 1027 1027 1027 1027 1027 1027 1027 1027 
1027 1027 1027 1027 1027 1027 1027 1027 1027 
1027 1027 1027 1027 1027 1027 1027 1027 1027 
1027 1027 1027 1027 1027 1027 1027 1027 1027 
1027 1027 1027 1027 1027 1027 1027 1027 1027 
1027 1027 1027 1027 1027 1027 1027 1027 1027 
1027 1027 1027 1027 1027 1027 1027 1027 1027 
1027 1027 1027 1027 1027 1027 1027 1027 1027 
1027 1027 1027 1027 1027 1027 1027 1027 1027 
1027 1027 1027 1027 1027 1027 1027 1027 1027 
1027 1027 1027 1027 1027 1027 1027 1027 1027 
1027 1027 1027 1027 1027 1027 1027 1027 1027 
1027 1027 1027 1027 1027 1027 1027 1027 1027 
1027 1027 1027 1027 1027 1027 1027 1027 1027 
1027 1027 1027 1027 1027 1027 1027 1027 1027 
1027 1027 1027 1027 1027 1027 1027 1027 1027 
1027 1027 1027 1027 1027 1027 1027 1027 1027 
1027 1027 1027 1027 1027 1027 1027 1027 1027 
1027 1027 1027 1027 1027 1027 1027 1027 1027 
1027 1027 1027 1027 1027 1027 1027 1027 1027 
1027 1027 1027 1027 1027 1027 1027 1027 1027 
1027 1027 1027 1027 1027 1027 1027 1027 1027 
1027 1027 1027 1027 1027 1027 1027 1027 1027 
1027 1027 1027 1027 1027 1027 1027 1027 1027 
1027 1027 1027 1027 1027 1027 1027 1027 1027 
1027 1027 1027 1027 1027 1027 1027 1027 1027 
1027 1027 1027 1027 1027 1027 1027 1027 1027 
1027 1027 1027 1027 1027 1027 1027 1027 1027 
1027 1027 1027 1027 1027 1027 1027 1027 1027 
1027 1027 1027 1027 1027 1027 1027 1027 1027 
1027 1027 1027 1027 1027 1027 1027 1027 1027 
1027 1027 1027 1027 1027 1027 1027 1027 1027 
1027 1027 1027 1027 1027 1027 1027 1027 1027 
1027 1027 1027 1027 1027 1027 1027 1027 1027 
1027 1027 1027 1027 1027 1027 1027 1027 1027 
1027 1027 1027 1027 1027 1027 1027 1027 1027 
1027 1027 1027 1027 1027 1027 1027 1027 1027 
1027 1027 1027 1027 1027 1027 1027 1027 1027 
1027 1027 1027 1027 1027 1027 1027 1027 1027 
1027 1027 1027 1027 1027 1027 1027 1027 1027 
1027 1027 1027 1027 1027 1027 1027 1027 1027 
1027 1027 1027 1027 1027 1027 1027 1027 1027 
1027 1027 1027 1027 1027 1027 1027 1027 1027 
1027 1027 1027 1027 1027 1027 1027 1027 1027 
1027 1027 1027 1027 1027 1027 1027 1027 1027 
1027 1027 1027 1027 1027 1027 1027 1027 1027 
1027 1027 1027 1027 1027 1027 1027 1027 1027 
1027 1027 1027 1027 1027 1027 1027 1027 1027 
1027 1027 1027 1027 1027 1027 1027 1027 1027 
1027 1027 1027 1027 1027 1027 1027 1027 1027 
1027 1027 1027 1027 1027 1027 1027 1027 1027 
1027 1027 1027 1027 1027 1027 1027 1027 1027 
1027 1027 1027 1027 1027 1027 1027 1027 1027 
1027 1027 1027 1027 1027 1027 1027 1027 1027 
1027 1027 1027 1027 1027 1027 1027 1027 1027 
1027 1027 1027 1027 1027 1027 1027 1027 1027 
1027 1027 1027 1027 1027 1027 1027 1027 1027 
1027 1027 1027 1027 1027 1027 1027 1027 1027 
1027 1027 1027 1027 1027 1027 1027 1027 1027 
1027 1027 1027 1027 1027 1027 1027 1027 1027 
1027 1027 1027 1027 1027 1027 1027 1027 1027 
1027 1027 1027 1027 1027 1027 1027 1027 1027 
1027 1027 1027 1027 1027 1027 1027 1027 1027 
1027 1027 1027 1027 1027 1027 1027 1027 1027 
1027 1027 1027 1027 1027 1027 1027 1027 1027 
1027 1027 1027 1027 1027 1027 1027 1027 1027 
1027 1027 1027 1027 1027 1027 1027 1027 1027 
1027 1027 1027 1027 1027 1027 1027 1027 1027 
1027 1027 1027 1027 1027 1027 1027 1027 1027 
1027 1027 1027 1027 1027 1027 1027 1027 1027 
1027 1027 1027 1027 1027 1027 1027 1027 1027 
1027 1027 1027 1027 1027 1027 1027 1027 1027 
1027 1027 1027 1027 1027 1027 1027 1027 1027 
1027 1027 1027 1027 1027 1027 1027 1027 1027 
1027 1027 1027 1027 1027 1027 1027 1027 1027 
1027 1027 1027 1027 1027 1027 1027 1027 1027 
1027 1027 1027 1027 1027 1027 1027 1027 1027 
1027 1027 1027 1027 1027 1027 1027 1027 1027 
1027 1027 1027 1027 1027 1027 1027 1027 1027 
1027 1027 1027 1027 1027 1027 1027 1027 1027 
1027 1027 1027 1027 1027 1027 1027 1027 1027 
1027 1027 1027 1027 1027 1027 1027 1027 1027 
1027 1027 1027 1027 1027 1027 1027 1027 1027 
1027 1027 1027 1027 1027 1027 1027 1027 1027 
1027 1027 1027 1027 1027 1027 1027 1027 1027 
1027 1027 1027 1027 1027 1027 1027 1027 1027 
1027 1027 1027 1027 1027 1027 1027 1027 1027 
1027 1027 1027 1027 1027 1027 1027 1027 1027 
1027 1027 1027 1027 1027 1027 1027 1027 1027 
1027 1027 1027 1027 1027 1027 1027 1027 1027 
1027 1027 1027 1027 1027 1027 1027 1027 1027 
1027 1027 1027 1027 1027 1027 1027 1027 1027 
1027 1027 1027 1027 1027 1027 1027 1027 1027 
1027 1027 1027 1027 1027 1027 1027 1027 1027 
1027 1027 1027 1027 1027 1027 1027 1027 1027 
1027 1027 1027 1027 1027 1027 1027 1027 1027 
1027 1027 1027 1027 1027 1027 1027 1027 1027 
1027 1027 1027 1027 1027 1027 1027 1027 1027 
1027 1027 1027 1027 1027 1027 1027 1027 1027 
1027 1027 1027 1027 1027 1027 1027 1027 1027 
1027 1027 1027 1027 1027 1027 1027 1027 1027 
1027 1027 1027 1027 1027 1027 1027 1027 1027 
1027 1027 1027 1027 1027 1027 1027 1027 1027 
1027 1027 1027 1027 1027 1027 1027 1027 1027 
1027 1027 1027 1027 1027 1027 1027 1027 1027 
1027 1027 1027 1027 1027 1027 1027 1027 1027 
1027 1027 1027 1027 1027 1027 1027 1027 1027 
1027 1027 1027 1027 1027 1027 1027 1027 1027 
1027 1027 1027 1027 1027 1027 1027 1027 1027 
1027 1027 1027 1027 1027 1027 1027 1027 1027 
1027 1027 1027 1027 1027 1027 1027 1027 1027 
1027 1027 1027 1027 1027 1027 1027 1027 1027 
1027 1027 1027 1027 1027 1027 1027 1027 1027 
1027 1027 1027 1027 1027 1027 1027 1027 1027 
1027 1027 1027 1027 1027 1027 1027 1027 1027 
1027 1027 1027 1027 1027 1027 1027 1027 1027 
1027 1027 1027 1027 1027 1027 1027 1027 1027 
1027 1027 1027 1027 1027 1027 1027 1027 1027 
1027 1027 1027 1027 1027 1027 1027 1027 1027 
1027 1027 1027 1027 1027 1027 1027 1027 1027 
1027 1027 1027 1027 1027 1027 1027 1027 1027 
1027 1027 1027 1027 1027 1027 1027 1027 1027 
1027 1027 1027 1027 1027 1027 1027 1027 1027 
1027 1027 1027 1027 1027 1027 1027 1027 1027 
1027 1027 1027 1027 1027 1027 1027 1027 1027 
1027 1027 1027 1027 1027 1027 1027 1027 1027 
1027 1027 1027 1027 1027 1027 1027 1027 1027 
1027 1027 1027 1027 1027 1027 1027 1027 1027 
1027 1027 1027 1027 1027 1027 1027 1027 1027 
1027 1027 1027 1027 1027 1027 1027 1027 1027 
1027 1027 1027 1027 1027 1027 1027 1027 1027 
1027 1027 1027 1027 1027 1027 1027 1027 1027 
1027 1027 1027 1027 1027 1027 1027 1027 1027 
1027 1027 1027 1027 1027 1027 1027 1027 1027 
1027 1027 1027 1027 1027 1027 1027 1027 1027 
1027 1027 1027 1027 1027 1027 1027 1027 1027 
1027 1027 1027 1027 1027 1027 1027 1027 1027 
1027 1027 1027 1027 1027 1027 1027 1027 1027 
1027 1027 1027 1027 1027 1027 1027 1027 1027 
1027 1027 1027 1027 1027 1027 1027 1027 1027 
1027 1027 1027 1027 1027 1027 1027 1027 1027 
1027 1027 1027 1027 1027 1027 1027 1027 1027 
1027 1027 1027 1027 1027 1027 1027 1027 1027 
1027 1027 1027 1027 1027 1027 1027 1027 1027 
1027 1027 1027 1027 1027 1027 1027 1027 1027 
1027 1027 1027 1027 1027 1027 1027 1027 1027 
1027 1027 1027 1027 1027 1027 1027 1027 1027 
1027 1027 1027 1027 1027 1027 1027 1027 1027 
1027 1027 1027 1027 1027 1027 1027 1027 1027 
1027 1027 1027 1027 1027 1027 1027 1027 1027 
1027 1027 1027 1027 1027 1027 1027 1027 1027 
1027 1027 1027 1027 1027 1027 1027 1027 1027 
1027 1027 1027 1027 1027 1027 1027 1027 1027 
1027 1027 1027 1027 1027 1027 1027 1027 1027 
1027 1027 1027 1027 1027 1027 1027 1027 1027 
1027 1027 1027 1027 1027 1027 1027 1027 1027 
1027 1027 1027 1027 1027 1027 1027 1027 1027 
1027 1027 1027 1027 1027 1027 1027 1027 1027 
1027 1027 1027 1027 1027 1027 1027 1027 1027 
1027 1027 1027 1027 1027 1027 1027 1027 1027 
1027 1027 1027 1027 1027 1027 1027 1027 1027 
1027 1027 1027 1027 1027 1027 1027 1027 1027 
1027 1027 1027 1027 1027 1027 1027 1027 1027 
1027 1027 1027 1027 1027 1027 1027 1027 1027 
1027 1027 1027 1027 1027 1027 1027 1027 1027 
1027 1027 1027 1027 1027 1027 1027 1027 1027 
1027 1027 1027 1027 1027 1027 1027 1027 1027 
1027 1027 1027 1027 1027 1027 1027 1027 1027 
1027 1027 1027 1027 1027 1027 1027 1027 1027 
1027 1027 1027 1027 1027 1027 1027 1027 1027 
1027 1027 1027 1027 1027 1027 1027 1027 1027 
1027 1027 1027 1027 1027 1027 1027 1027 1027 
1027 1027 1027 1027 1027 1027 1027 1027 1027 
1027 1027 1027 1027 1027 1027 1027 1027 1027 
1027 1027 1027 1027 1027 1027 1027 1027 1027 
1027 1027 1027 1027 1027 1027 1027 1027 1027 
1027 1027 1027 1027 1027 1027 1027 1027 1027 
1027 1027 1027 1027 1027 1027 1027 1027 1027 
1027 1027 1027 1027 1027 1027 1027 1027 1027 
1027 1027 1027 1027 1027 1027 1027 1027 1027 
1027 1027 1027 1027 1027 1027 1027 1027 1027 
1027 1027 1027 1027 1027 1027 1027 1027 1027 
1027 1027 1027 1027 1027 1027 1027 1027 1027 
1027 1027 1027 1027 1027 1027 1027 1027 1027 
1027 1027 1027 1027 1027 1027 1027 1027 1027 
1027 1027 1027 1027 1027 1027 1027 1027 1027 
1027 1027 1027 1027 1027 1027 1027 1027 1027 
1027 1027 1027 1027 1027 1027 1027 1027 1027 
1027 1027 1027 1027 1027 1027 1027 1027 1027 
1027 1027 1027 1027 1027 1027 1027 1027 1027 
1027 1027 1027 1027 1027 1027 1027 1027 1027 
1027 1027 1027 1027 1027 1027 1027 1027 1027 
1027 1027 1027 1027 1027 1027 1027 1027 1027 
1027 1027 1027 1027 1027 1027 1027 1027 1027 
1027 1027 1027 1027 1027 1027 1027 1027 1027 
1027 1027 1027 1027 1027 1027 1027 1027 1027 
1027 1027 1027 1027 1027 1027 1027 1027 1027 
1027 1027 1027 1027 1027 1027 1027 1027 1027 
1027 1027 1027 1027 1027 1027 1027 1027 1027 
1027 1027 1027 1027 1027 1027 1027 1027 1027 
1027 1027 1027 1027 1027 1027 1027 1027 1027 
1027 1027 1027 1027 1027 1027 1027 1027 1027 
1027 1027 1027 1027 1027 1027 1027 1027 1027 
1027 1027 1027 1027 1027 1027 1027 1027 1027 
1027 1027 1027 1027 1027 1027 1027 1027 1027 
1027 1027 1027 1027 1027 1027 1027 1027 1027 
1027 1027 1027 1027 1027 1027 1027 1027 1027 
1027 1027 1027 1027 1027 1027 1027 1027 1027 
1027 1027 1027 1027 1027 1027 1027 1027 1027 
1027 1027 1027 1027 1027 1027 1027 1027 1027 
1027 1027 1027 1027 1027 1027 1027 1027 1027 
1027 1027 1027 1027 1027 1027 1027 1027 1027 
1027 1027 1027 1027 1027 1027 1027 1027 1027 
1027 1027 1027 1027 1027 1027 1027 1027 1027 
1027 1027 1027 1027 1027 1027 1027 1027 1027 
1027 1027 1027 1027 1027 1027 1027 1027 1027 
1027 1027 1027 1027 1027 1027 1027 1027 1027 
1027 1027 1027 1027 1027 1027 1027 1027 1027 
1027 1027 1027 1027 1027 1027 1027 1027 1027 
1027 1027 1027 1027 1027 1027 1027 1027 1027 
1027 1027 1027 1027 1027 1027 1027 1027 1027 
1027 1027 1027 1027 1027 1027 1027 1027 1027 
1027 1027 1027 1027 1027 1027 1027 1027 1027 
1027 1027 1027 1027 1027 1027 1027 1027 1027 
1027 1027 1027 1027 1027 1027 1027 1027 1027 
1027 1027 1027 1027 1027 1027 1027 1027 1027 
1027 1027 1027 1027 1027 1027 1027 1027 1027 
1027 1027 1027 1027 1027 1027 1027 1027 1027 
1027 1027 1027 1027 1027 1027 1027 1027 1027 
1027 1027 1027 1027 1027 1027 1027 1027 1027 
1027 1027 1027 1027 1027 1027 1027 1027 1027 