# vtk DataFile Version 4.2
vtk output
ASCII
DATASET POLYDATA
POINTS 4894 float
8.38034 25.7845 33.1437 8.25132 25.5297 33.6096 8.64816 25.5227 33.3253 
8.07462 25.4101 33.3797 10.2274 25.7544 32.5547 10.1923 25.3478 32.7579 
10.5712 25.5594 32.4293 9.32248 25.8395 32.6397 9.45428 25.5035 32.9921 
8.53218 25.8227 32.4552 7.98665 25.503 32.7554 10.0919 25.5118 32.2126 
9.03908 25.4379 32.0479 8.05532 25.3025 32.1164 4.12932 24.9293 34.2922 
4.15377 24.2275 34.7983 4.76119 24.5819 34.3659 3.009 25.0005 34.384 
3.40521 24.5798 34.8731 2.22745 24.8518 34.2434 2.37641 24.2296 35.0311 
1.70766 24.2454 34.333 9.38537 24.8269 33.2868 9.34894 24.2409 33.6629 
9.5955 24.3944 33.4257 8.2334 25.2657 33.5514 8.82498 24.138 33.4643 
7.17959 24.7871 33.4163 6.99976 24.2362 33.6865 7.52499 24.5365 33.4761 
6.35874 24.8173 33.3216 6.29581 24.3554 33.8367 5.26032 24.8489 33.6886 
5.44578 24.4375 34.03 4.48641 24.9065 33.5273 3.5394 24.9626 33.6282 
2.58081 24.9155 33.6048 1.91557 24.4165 33.4686 12.3782 24.7196 32.4513 
12.3188 24.2534 32.6619 12.5522 24.4053 32.3807 11.9241 24.3283 32.3242 
10.2732 25.1446 32.3663 9.83591 24.5119 32.665 8.14678 24.7658 33.1968 
7.37993 24.9991 32.6457 6.66972 24.3734 32.3909 5.97314 24.5567 32.9122 
5.06216 24.5669 32.9885 4.06642 24.557 32.9546 3.02284 24.5581 32.9602 
2.35265 24.5738 33.0656 12.3775 24.5606 32.2665 9.40696 24.7145 31.9053 
8.23869 24.6518 31.7025 7.36814 24.5278 31.8835 2.23834 23.7512 35.5443 
2.23085 23.4507 35.6486 2.48195 23.4875 35.4476 2.06208 23.4792 35.4235 
4.47817 23.2583 34.8604 4.83831 23.8381 34.5058 3.38255 23.4539 35.1683 
1.2814 23.7277 34.3205 1.57766 23.4844 34.7656 1.14115 23.4704 34.4194 
9.32628 23.5994 33.8 9.8125 23.8302 33.3454 8.75906 23.1749 33.591 
7.43683 24.085 33.389 7.04039 23.5951 33.5029 6.55609 23.3989 33.8419 
5.63453 23.4324 34.1681 1.42416 23.4596 33.8374 1.18986 23.4685 34.1732 
12.4058 23.499 33.0195 12.6551 23.4708 32.5478 10.9909 23.9388 32.268 
11.6372 23.7113 32.9322 10.1506 23.9105 32.3629 10.6006 23.5145 33.0322 
8.26875 23.6225 33.1016 7.63654 23.3729 33.1409 6.18571 24.1204 32.4451 
5.36791 23.9755 32.2576 4.50581 24.1817 32.4411 3.56924 23.9912 32.2777 
2.29579 24.0223 32.5746 1.45091 23.7298 32.9394 1.47675 23.6679 32.3698 
0.944159 23.1465 32.5451 12.1937 23.7544 31.9875 11.4568 23.9108 31.6627 
11.6275 23.3689 31.4578 10.5343 23.8389 31.508 9.57352 23.9619 31.5536 
8.53021 23.9692 31.3363 7.58969 23.9072 31.3646 6.95223 23.7518 31.6115 
6.29718 23.3872 31.9787 5.41838 23.4224 31.9086 4.35865 23.7787 31.7791 
4.79162 23.2464 31.4 3.75641 23.5158 31.6016 2.96278 23.4589 31.8652 
1.93852 23.464 31.9615 1.1914 23.3094 31.9636 11.0217 23.4189 31.1431 
10.0556 23.3495 31.0007 9.09927 23.4338 31.018 8.29984 23.2634 31.104 
7.45766 23.3769 31.2311 4.1548 23.3762 31.1917 2.06457 23.8823 30.2179 
2.36073 23.4103 30.8811 2.87024 23.5684 30.3755 1.18995 23.7824 30.2112 
1.54228 23.4774 30.915 0.876384 23.2567 30.6699 2.993 23.9218 29.5023 
3.54196 23.3288 29.9703 3.64714 23.5355 29.1835 2.27137 24.1266 29.4202 
1.57933 23.9379 29.3472 0.950483 23.4724 29.7458 3.32103 23.8533 28.6629 
3.63902 23.2158 28.5452 2.48086 23.9561 28.645 1.78162 23.4571 28.6217 
1.29592 23.4318 29.128 2.99806 23.4405 28.1011 2.28911 23.3566 28.0973 
10.189 22.7666 35.1803 10.3818 22.251 35.6965 10.8282 22.5103 35.3501 
9.71703 22.1315 35.3942 3.16267 22.6986 35.4262 3.42764 22.0944 35.7481 
3.73108 22.6247 35.4109 2.25969 23.1933 35.5391 2.7041 22.2768 35.5574 
1.29251 22.5875 35.5151 1.49371 22.2458 35.7117 1.55395 22.5259 35.4966 
1.03578 22.1204 35.3652 12.0088 22.7747 34.3331 12.259 22.2373 34.9595 
12.6989 22.3986 34.3779 11.0043 22.8742 34.5766 11.497 22.3861 35.0015 
10.2576 22.9884 34.5557 9.4727 22.5939 34.8813 9.51257 23.0101 34.3909 
9.0291 22.6294 34.2071 5.11822 23.0236 34.5296 5.20768 22.4791 34.8204 
5.6963 22.5802 34.4052 4.3792 22.6025 35.181 2.36012 22.8745 35.2453 
1.30008 23.2081 34.3103 1.6199 22.6619 34.5225 1.40351 22.4393 35.253 
12.2541 23.0496 33.5822 12.8094 22.6023 33.409 11.3249 23.135 33.6399 
10.2298 23.1831 33.8737 8.67188 22.2926 33.6473 7.13748 22.9946 33.4788 
7.02831 22.5676 33.8218 7.62959 22.4711 33.4367 6.37172 22.5575 34.1651 
1.20619 22.4755 33.9553 1.14179 23.0822 33.2616 0.838431 22.3938 33.3558 
12.7034 22.3353 32.6953 8.20152 22.7384 33.1528 0.696076 22.3062 32.5893 
12.2734 22.616 32.1183 11.4952 22.5336 31.7151 11.2154 22.8739 31.294 
10.7833 22.2512 31.4523 7.89767 22.8686 31.3843 8.69692 22.5857 31.3208 
8.36285 22.1 31.7283 7.27984 22.5875 31.7743 7.14238 23.1574 31.4979 
6.49683 22.3075 32.0887 5.49633 22.727 31.9555 4.87879 22.3279 31.6698 
3.48849 23.163 31.2136 2.38106 23.196 31.3838 1.3263 23.1917 31.4361 
0.784219 22.6413 31.5841 10.5159 22.7102 31.0851 9.44892 22.6915 31.0637 
4.08582 22.9775 30.486 4.63859 22.2877 30.491 3.15849 23.1689 30.7747 
0.878108 22.6111 30.3825 4.3415 22.5144 29.8917 3.99908 22.5954 29.2741 
1.13333 22.964 29.552 1.57366 22.5938 29.2542 1.30174 22.3357 29.9664 
3.75454 22.5011 28.5238 1.88895 22.4327 28.3699 3.29933 22.5036 27.8854 
2.40726 22.6347 27.7888 9.38676 21.7683 36.2283 9.23885 21.5453 36.6534 
9.50794 21.5146 36.5328 9.06509 21.527 36.4379 12.2123 21.7429 35.408 
12.2356 21.1699 36.0029 12.7263 21.5812 35.3823 11.7546 21.3399 35.5404 
10.1464 21.3665 35.987 10.9178 21.8689 35.5205 9.31993 21.8921 35.6223 
8.92768 21.3876 35.8506 6.25588 21.7199 35.3557 6.38906 21.393 35.8578 
6.90484 21.4927 35.317 5.20651 21.9572 35.3858 5.56085 21.4637 35.9965 
4.2456 22.1472 35.55 4.41329 21.5845 35.9901 3.28716 21.3188 36.1114 
1.91785 22.2639 35.3082 2.21526 21.6098 35.8922 1.22661 21.6139 35.8524 
0.822336 21.2634 35.5252 12.9492 21.5365 34.4711 11.634 21.7738 35.2507 
9.23851 22.0059 34.3657 9.50273 21.6097 34.5657 9.23666 21.5567 35.095 
7.17354 21.889 34.373 7.48594 21.3372 34.8605 7.95111 21.4441 34.2192 
6.08342 22.0975 34.7175 1.31919 22.1753 34.7431 0.817692 21.5839 34.526 
12.7472 21.461 33.555 9.27908 21.4295 34.1581 8.69332 21.4978 33.9832 
8.12596 21.956 33.6138 0.833717 21.4825 33.3304 12.2611 21.3901 32.9421 
12.231 21.9179 32.3518 11.7648 21.3125 32.4811 5.93583 21.9322 32.4788 
6.62238 21.5415 32.5719 6.13079 21.4786 32.9051 5.52814 21.4828 32.9665 
5.24361 22.0224 32.3568 4.88035 21.4041 32.5865 0.856182 21.6319 32.174 
11.4362 21.587 32.0691 10.4044 21.4826 31.8006 9.99687 21.9973 31.4214 
9.31553 21.5187 31.7855 9.21896 22.0935 31.4792 8.53098 21.2261 32.0568 
7.49179 21.6712 32.1226 4.75911 21.5119 31.4648 0.945026 21.7433 31.219 
4.80536 21.3451 30.5619 1.19669 21.8661 30.5651 1.62863 21.5196 30.3062 
1.36361 21.286 31.0279 4.42201 22.0616 29.5596 4.63556 21.2994 29.6641 
1.81336 21.5009 29.3954 6.23003 21.8799 28.1523 6.62012 21.307 28.7991 
6.96458 21.6796 28.4186 5.86249 21.232 28.5251 4.26511 21.5841 29.0628 
3.94566 21.6567 28.4207 1.81185 21.3232 28.5953 7.02256 21.8784 27.6256 
7.44979 21.4406 28.1539 7.67487 21.217 27.3524 6.322 22.1109 27.4994 
5.20097 21.4346 28.0205 5.32579 21.9009 27.3233 3.9926 22.0012 27.4278 
4.38358 21.3906 27.9336 3.09547 22.1545 27.128 2.3962 22.0653 27.2302 
1.8779 21.5676 27.6779 7.19907 21.675 26.8686 6.90009 21.5972 26.4179 
6.4533 21.8501 26.7974 5.7018 21.3689 26.3714 5.13481 21.6305 26.7012 
4.87881 21.3837 26.3743 4.48507 21.8541 26.7155 3.49925 21.9372 26.5451 
2.55176 21.8583 26.483 1.92573 21.3714 26.7164 6.53813 21.234 26.0004 
4.11568 21.28 26.0879 2.94193 21.4051 25.9676 2.1886 21.2718 26.0845 
12.3814 20.7894 36.5693 12.4558 20.2607 36.7527 12.6916 20.7393 36.3126 
11.953 20.2953 36.4669 9.19508 21.1736 36.3192 7.20476 20.7586 36.3334 
7.46243 20.1903 36.7684 7.85498 20.5098 36.2734 6.17267 20.9879 36.409 
6.56617 20.2923 36.984 5.03863 21.0185 36.5082 5.52645 20.4871 37.003 
4.0378 20.9907 36.4741 4.54501 20.5064 36.9869 3.22329 20.8033 36.4069 
3.61459 20.4954 36.8923 2.86924 20.4056 36.6477 12.9309 20.5369 35.5373 
11.1567 21.2856 35.5638 11.3027 20.7595 35.9004 10.3523 20.2063 36.028 
9.44878 20.5449 36.0049 8.62321 20.4333 36.0444 8.27971 20.9664 35.459 
7.21515 21.1277 35.6041 2.3216 20.5863 36.1905 1.31725 20.7231 35.9008 
0.824627 20.4319 35.3579 12.7928 20.3534 34.4938 9.01962 21.2037 34.456 
8.1478 21.1166 34.6623 0.901255 20.5584 34.4198 12.2894 20.4136 33.8055 
12.3685 21.02 33.4443 11.8372 20.4845 33.4422 6.13887 20.9611 33.3422 
6.85819 20.5324 33.3867 6.43767 20.2007 33.8868 5.51509 20.3917 33.8278 
5.20842 20.9814 33.4155 4.93541 20.5639 33.2711 1.20191 20.818 33.545 
1.61087 20.3381 33.4004 1.34287 20.3014 34.0635 11.3072 20.4404 32.943 
11.1726 20.8517 32.3599 10.7064 20.2654 32.481 7.99325 20.8848 32.4582 
8.66335 20.4893 32.4935 8.20975 20.4395 32.8028 7.62386 20.4612 33.0389 
7.14984 20.989 32.7568 4.85696 20.6558 32.2605 1.27211 20.9722 32.7094 
1.69619 20.3403 32.4743 10.5078 20.6847 32.1137 9.48627 20.652 32.1025 
4.93308 20.472 31.1575 1.30043 21.0271 31.7656 1.72884 20.5122 31.3996 
4.83411 20.6053 30.2714 1.85292 20.4834 30.4539 4.59547 20.2468 29.6855 
1.83097 20.4704 29.486 7.23821 21.1806 28.6763 7.10636 20.3827 28.8893 
7.70051 20.7548 28.2642 6.20087 20.5346 28.9297 5.60276 20.4865 28.5926 
4.26817 20.7748 28.9996 3.97408 20.4095 28.5725 1.76835 20.4724 28.4619 
8.0349 20.2293 27.4159 5.10025 20.6182 28.1799 4.35905 20.5225 28.0786 
1.72428 20.4743 27.4022 7.30586 21.1954 26.444 7.70391 20.4487 26.5646 
5.27487 21.2324 26.4078 1.83376 20.4676 26.4773 7.02867 20.4729 25.8649 
6.50848 20.6999 25.4338 6.58257 20.2698 25.4112 6.0425 20.7414 25.5754 
5.36669 20.5925 25.9635 4.37764 20.2182 26.0611 3.25389 20.522 25.867 
2.33109 20.4974 25.9444 6.33499 20.4517 25.2482 4.9626 19.7866 44.4395 
5.25833 19.3263 44.7519 5.45961 19.455 44.5036 4.29165 19.8259 44.2597 
4.60508 19.3874 44.9268 3.91816 19.5105 44.5577 5.349 19.425 43.9467 
4.72697 19.4314 43.3345 4.53519 19.7718 43.7527 3.82388 19.5753 43.7954 
6.26471 19.6929 42.2498 6.48036 19.4483 42.7667 6.78633 19.5365 42.1318 
5.96882 19.4238 42.6026 4.11573 19.4549 43.2215 6.38136 19.6911 41.6926 
[...]
CELL_DATA 9804
SCALARS scalars float
LOOKUP_TABLE default
2023 2023 2023 2023 2023 2023 2023 2023 2023 
2023 2023 2023 2023 2023 2023 2023 2023 2023 
2023 2023 2023 2023 2023 2023 2023 2023 2023 
2023 2023 2023 2023 2023 2023 2023 2023 2023 
2023 2023 2023 2023 2023 2023 2023 2023 2023 
2023 2023 2023 2023 2023 2023 2023 2023 2023 
2023 2023 2023 2023 2023 2023 2023 2023 2023 
2023 2023 2023 2023 2023 2023 2023 2023 2023 
2023 2023 2023 2023 2023 2023 2023 2023 2023 
2023 2023 2023 2023 2023 2023 2023 2023 2023 
2023 2023 2023 2023 2023 2023 2023 2023 2023 
2023 2023 2023 2023 2023 2023 2023 2023 2023 
2023 2023 2023 2023 2023 2023 2023 2023 2023 
2023 2023 2023 2023 2023 2023 2023 2023 2023 
2023 2023 2023 2023 2023 2023 2023 2023 2023 
2023 2023 2023 2023 2023 2023 2023 2023 2023 
2023 2023 2023 2023 2023 2023 2023 2023 2023 
2023 2023 2023 2023 2023 2023 2023 2023 2023 
2023 2023 2023 2023 2023 2023 2023 2023 2023 
2023 2023 2023 2023 2023 2023 2023 2023 2023 
2023 2023 2023 2023 2023 2023 2023 2023 2023 
2023 2023 2023 2023 2023 2023 2023 2023 2023 
2023 2023 2023 2023 2023 2023 2023 2023 2023 
2023 2023 2023 2023 2023 2023 2023 2023 2023 
2023 2023 2023 2023 2023 2023 2023 2023 2023 
2023 2023 2023 2023 2023 2023 2023 2023 2023 
2023 2023 2023 2023 2023 2023 2023 2023 2023 
2023 2023 2023 2023 2023 2023 2023 2023 2023 
2023 2023 2023 2023 2023 2023 2023 2023 2023 
2023 2023 2023 2023 2023 2023 2023 2023 2023 
2023 2023 2023 2023 2023 2023 2023 2023 2023 
2023 2023 2023 2023 2023 2023 2023 2023 2023 
2023 2023 2023 2023 2023 2023 2023 2023 2023 
2023 2023 2023 2023 2023 2023 2023 2023 2023 
2023 2023 2023 2023 2023 2023 2023 2023 2023 
2023 2023 2023 2023 2023 2023 2023 2023 2023 
2023 2023 2023 2023 2023 2023 2023 2023 2023 
2023 2023 2023 2023 2023 2023 2023 2023 2023 
2023 2023 2023 2023 2023 2023 2023 2023 2023 
2023 2023 2023 2023 2023 2023 2023 2023 2023 
2023 2023 2023 2023 2023 2023 2023 2023 2023 
2023 2023 2023 2023 2023 2023 2023 2023 2023 
2023 2023 2023 2023 2023 2023 2023 2023 2023 
2023 2023 2023 2023 2023 2023 2023 2023 2023 
2023 2023 2023 2023 2023 2023 2023 2023 2023 
2023 2023 2023 2023 2023 2023 2023 2023 2023 
2023 2023 2023 2023 2023 2023 2023 2023 2023 
2023 2023 2023 2023 2023 2023 2023 2023 2023 
2023 2023 2023 2023 2023 2023 2023 2023 2023 
2023 2023 2023 2023 2023 2023 2023 2023 2023 
2023 2023 2023 2023 2023 2023 2023 2023 2023 
2023 2023 2023 2023 2023 2023 2023 2023 2023 
2023 2023 2023 2023 2023 2023 2023 2023 2023 
2023 2023 2023 2023 2023 2023 2023 2023 2023 
2023 2023 2023 2023 2023 2023 2023 2023 2023 
2023 2023 2023 2023 2023 2023 2023 2023 2023 
2023 2023 2023 2023 2023 2023 2023 2023 2023 
2023 2023 2023 2023 2023 2023 2023 2023 2023 
2023 2023 2023 2023 2023 2023 2023 2023 2023 
2023 2023 2023 2023 2023 2023 2023 2023 2023 
2023 2023 2023 2023 2023 2023 2023 2023 2023 
2023 2023 2023 2023 2023 2023 2023 2023 2023 
2023 2023 2023 2023 2023 2023 2023 2023 2023 
2023 2023 2023 2023 2023 2023 2023 2023 2023 
2023 2023 2023 2023 2023 2023 2023 2023 2023 
2023 2023 2023 2023 2023 2023 2023 2023 2023 
2023 2023 2023 2023 2023 2023 2023 2023 2023 
2023 2023 2023 2023 2023 2023 2023 2023 2023 
2023 2023 2023 2023 2023 2023 2023 2023 2023 
2023 2023 2023 2023 2023 2023 2023 2023 2023 
2023 2023 2023 2023 2023 2023 2023 2023 2023 
2023 2023 2023 2023 2023 2023 2023 2023 2023 
2023 2023 2023 2023 2023 2023 2023 2023 2023 
2023 2023 2023 2023 2023 2023 2023 2023 2023 
2023 2023 2023 2023 2023 2023 2023 2023 2023 
2023 2023 2023 2023 2023 2023 2023 2023 2023 
2023 2023 2023 2023 2023 2023 2023 2023 2023 
2023 2023 2023 2023 2023 2023 2023 2023 2023 
2023 2023 2023 2023 2023 2023 2023 2023 2023 
2023 2023 2023 2023 2023 2023 2023 2023 2023 
2023 2023 2023 2023 2023 2023 2023 2023 2023 
2023 2023 2023 2023 2023 2023 2023 2023 2023 
2023 2023 2023 2023 2023 2023 2023 2023 2023 
2023 2023 2023 2023 2023 2023 2023 2023 2023 
2023 2023 2023 2023 2023 2023 2023 2023 2023 
2023 2023 2023 2023 2023 2023 2023 2023 2023 
2023 2023 2023 2023 2023 2023 2023 2023 2023 
2023 2023 2023 2023 2023 2023 2023 2023 2023 
2023 2023 2023 2023 2023 2023 2023 2023 2023 
2023 2023 2023 2023 2023 2023 2023 2023 2023 
2023 2023 2023 2023 2023 2023 2023 2023 2023 
2023 2023 2023 2023 2023 2023 2023 2023 2023 
2023 2023 2023 2023 2023 2023 2023 2023 2023 
2023 2023 2023 2023 2023 2023 2023 2023 2023 
2023 2023 2023 2023 2023 2023 2023 2023 2023 
2023 2023 2023 2023 2023 2023 2023 2023 2023 
2023 2023 2023 2023 2023 2023 2023 2023 2023 
2023 2023 2023 2023 2023 2023 2023 2023 2023 
2023 2023 2023 2023 2023 2023 2023 2023 2023 
2023 2023 2023 2023 2023 2023 2023 2023 2023 
2023 2023 2023 2023 2023 2023 2023 2023 2023 
2023 2023 2023 2023 2023 2023 2023 2023 2023 
2023 2023 2023 2023 2023 2023 2023 2023 2023 
2023 2023 2023 2023 2023 2023 2023 2023 2023 
2023 2023 2023 2023 2023 2023 2023 2023 2023 
2023 2023 2023 2023 2023 2023 2023 2023 2023 
2023 2023 2023 2023 2023 2023 2023 2023 2023 
2023 2023 2023 2023 2023 2023 2023 2023 2023 
2023 2023 2023 2023 2023 2023 2023 2023 2023 
2023 2023 2023 2023 2023 2023 2023 2023 2023 
2023 2023 2023 2023 2023 2023 2023 2023 2023 
2023 2023 2023 2023 2023 2023 2023 2023 2023 
2023 2023 2023 2023 2023 2023 2023 2023 2023 
2023 2023 2023 2023 2023 2023 2023 2023 2023 
2023 2023 2023 2023 2023 2023 2023 2023 2023 
2023 2023 2023 2023 2023 2023 2023 2023 2023 
2023 2023 2023 2023 2023 2023 2023 2023 2023 
2023 2023 2023 2023 2023 2023 2023 2023 2023 
2023 2023 2023 2023 2023 2023 2023 2023 2023 
2023 2023 2023 2023 2023 2023 2023 2023 2023 
2023 2023 2023 2023 2023 2023 2023 2023 2023 
2023 2023 2023 2023 2023 2023 2023 2023 2023 
2023 2023 2023 2023 2023 2023 2023 2023 2023 
2023 2023 2023 2023 2023 2023 2023 2023 2023 
2023 2023 2023 2023 2023 2023 2023 2023 2023 
2023 2023 2023 2023 2023 2023 2023 2023 2023 
2023 2023 2023 2023 2023 2023 2023 2023 2023 
2023 2023 2023 2023 2023 2023 2023 2023 2023 
2023 2023 2023 2023 2023 2023 2023 2023 2023 
2023 2023 2023 2023 2023 2023 2023 2023 2023 
2023 2023 2023 2023 2023 2023 2023 2023 2023 
2023 2023 2023 2023 2023 2023 2023 2023 2023 
2023 2023 2023 2023 2023 2023 2023 2023 2023 
2023 2023 2023 2023 2023 2023 2023 2023 2023 
2023 2023 2023 2023 2023 2023 2023 2023 2023 
2023 2023 2023 2023 2023 2023 2023 2023 2023 
2023 2023 2023 2023 2023 2023 2023 2023 2023 
2023 2023 2023 2023 2023 2023 2023 2023 2023 
2023 2023 2023 2023 2023 2023 2023 2023 2023 
2023 2023 2023 2023 2023 2023 2023 2023 2023 
2023 2023 2023 2023 2023 2023 2023 2023 2023 
2023 2023 2023 2023 2023 2023 2023 2023 2023 
2023 2023 2023 2023 2023 2023 2023 2023 2023 
2023 2023 2023 2023 2023 2023 2023 2023 2023 
2023 2023 2023 2023 2023 2023 2023 2023 2023 
2023 2023 2023 2023 2023 2023 2023 2023 2023 
2023 2023 2023 2023 2023 2023 2023 2023 2023 
2023 2023 2023 2023 2023 2023 2023 2023 2023 
2023 2023 2023 2023 2023 2023 2023 2023 2023 
2023 2023 2023 2023 2023 2023 2023 2023 2023 
2023 2023 2023 2023 2023 2023 2023 2023 2023 
2023 2023 2023 2023 2023 2023 2023 2023 2023 
2023 2023 2023 2023 2023 2023 2023 2023 2023 
2023 2023 2023 2023 2023 2023 2023 2023 2023 
2023 2023 2023 2023 2023 2023 2023 2023 2023 
2023 2023 2023 2023 2023 2023 2023 2023 2023 
2023 2023 2023 2023 2023 2023 2023 2023 2023 
2023 2023 2023 2023 2023 2023 2023 2023 2023 
2023 2023 2023 2023 2023 2023 2023 2023 2023 
2023 2023 2023 2023 2023 2023 2023 2023 2023 
2023 2023 2023 2023 2023 2023 2023 2023 2023 
2023 2023 2023 2023 2023 2023 2023 2023 2023 
2023 2023 2023 2023 2023 2023 2023 2023 2023 
2023 2023 2023 2023 2023 2023 2023 2023 2023 
2023 2023 2023 2023 2023 2023 2023 2023 2023 
2023 2023 2023 2023 2023 2023 2023 2023 2023 
2023 2023 2023 2023 2023 2023 2023 2023 2023 
2023 2023 2023 2023 2023 2023 2023 2023 2023 
2023 2023 2023 2023 2023 2023 2023 2023 2023 
2023 2023 2023 2023 2023 2023 2023 2023 2023 
2023 2023 2023 2023 2023 2023 2023 2023 2023 
2023 2023 2023 2023 2023 2023 2023 2023 2023 
2023 2023 2023 2023 2023 2023 2023 2023 2023 
2023 2023 2023 2023 2023 2023 2023 2023 2023 
2023 2023 2023 2023 2023 2023 2023 2023 2023 
2023 2023 2023 2023 2023 2023 2023 2023 2023 
2023 2023 2023 2023 2023 2023 2023 2023 2023 
2023 2023 2023 2023 2023 2023 2023 2023 2023 
2023 2023 2023 2023 2023 2023 2023 2023 2023 
2023 2023 2023 2023 2023 2023 2023 2023 2023 
2023 2023 2023 2023 2023 2023 2023 2023 2023 
2023 2023 2023 2023 2023 2023 2023 2023 2023 
2023 2023 2023 2023 2023 2023 2023 2023 2023 
2023 2023 2023 2023 2023 2023 2023 2023 2023 
2023 2023 2023 2023 2023 2023 2023 2023 2023 
2023 2023 2023 2023 2023 2023 2023 2023 2023 
2023 2023 2023 2023 2023 2023 2023 2023 2023 
2023 2023 2023 2023 2023 2023 2023 2023 2023 
2023 2023 2023 2023 2023 2023 2023 2023 2023 
2023 2023 2023 2023 2023 2023 2023 2023 2023 
2023 2023 2023 2023 2023 2023 2023 2023 2023 
2023 2023 2023 2023 2023 2023 2023 2023 2023 
2023 2023 2023 2023 2023 2023 2023 2023 2023 
2023 2023 2023 2023 2023 2023 2023 2023 2023 
2023 2023 2023 2023 2023 2023 2023 2023 2023 
2023 2023 2023 2023 2023 2023 2023 2023 2023 
2023 2023 2023 2023 2023 2023 2023 2023 2023 
2023 2023 2023 2023 2023 2023 2023 2023 2023 
2023 2023 2023 2023 2023 2023 2023 2023 2023 
2023 2023 2023 2023 2023 2023 2023 2023 2023 
2023 2023 2023 2023 2023 2023 2023 2023 2023 
2023 2023 2023 2023 2023 2023 2023 2023 2023 
2023 2023 2023 2023 2023 2023 2023 2023 2023 
2023 2023 2023 2023 2023 2023 2023 2023 2023 
2023 2023 2023 2023 2023 2023 2023 2023 2023 
2023 2023 2023 2023 2023 2023 2023 2023 2023 
2023 2023 2023 2023 2023 2023 2023 2023 2023 
2023 2023 2023 2023 2023 2023 2023 2023 2023 
2023 2023 2023 2023 2023 2023 2023 2023 2023 
2023 2023 2023 2023 2023 2023 2023 2023 2023 
2023 2023 2023 2023 2023 2023 2023 2023 2023 
2023 2023 2023 2023 2023 2023 2023 2023 2023 
2023 2023 2023 2023 2023 2023 2023 2023 2023 
2023 2023 2023 2023 2023 2023 2023 2023 2023 
2023 2023 2023 2023 2023 2023 2023 2023 2023 
2023 2023 2023 2023 2023 2023 2023 2023 2023 
2023 2023 2023 2023 2023 2023 2023 2023 2023 
2023 2023 2023 2023 2023 2023 2023 2023 2023 
2023 2023 2023 2023 2023 2023 2023 2023 2023 
2023 2023 2023 2023 2023 2023 2023 2023 2023 
2023 2023 2023 2023 2023 2023 2023 2023 2023 
2023 2023 2023 2023 2023 2023 2023 2023 2023 
2023 2023 2023 2023 2023 2023 2023 2023 2023 
2023 2023 2023 2023 2023 2023 2023 2023 2023 
2023 2023 2023 2023 2023 2023 2023 2023 2023 
2023 2023 2023 2023 2023 2023 2023 2023 2023 
2023 2023 2023 2023 2023 2023 2023 2023 2023 
2023 2023 2023 2023 2023 2023 2023 2023 2023 
2023 2023 2023 2023 2023 2023 2023 2023 2023 
2023 2023 2023 2023 2023 2023 2023 2023 2023 
2023 2023 2023 2023 2023 2023 2023 2023 2023 
2023 2023 2023 2023 2023 2023 2023 2023 2023 
2023 2023 2023 2023 2023 2023 2023 2023 2023 
2023 2023 2023 2023 2023 2023 2023 2023 2023 
2023 2023 2023 2023 2023 2023 2023 2023 2023 
2023 2023 2023 2023 2023 2023 2023 2023 2023 
2023 2023 2023 2023 2023 2023 2023 2023 2023 
2023 2023 2023 2023 2023 2023 2023 2023 2023 
2023 2023 2023 2023 2023 2023 2023 2023 2023 
2023 2023 2023 2023 2023 2023 2023 2023 2023 
2023 2023 2023 2023 2023 2023 2023 2023 2023 
2023 2023 2023 2023 2023 2023 2023 2023 2023 
2023 2023 2023 2023 2023 2023 2023 2023 2023 
2023 2023 2023 2023 2023 2023 2023 2023 2023 
2023 2023 2023 2023 2023 2023 2023 2023 2023 
2023 2023 2023 2023 2023 2023 2023 2023 2023 
2023 2023 2023 2023 2023 2023 2023 2023 2023 
2023 2023 2023 2023 2023 2023 2023 2023 2023 
2023 2023 2023 2023 2023 2023 2023 2023 2023 
2023 2023 2023 2023 2023 2023 2023 2023 2023 
2023 2023 2023 2023 2023 2023 2023 2023 2023 
2023 2023 2023 2023 2023 2023 2023 2023 2023 
2023 2023 2023 2023 2023 2023 2023 2023 2023 
2023 2023 2023 2023 2023 2023 2023 2023 2023 
2023 2023 2023 2023 2023 2023 2023 2023 2023 
2023 2023 2023 2023 2023 2023 2023 2023 2023 
2023 2023 2023 2023 2023 2023 2023 2023 2023 
2023 2023 2023 2023 2023 2023 2023 2023 2023 
2023 2023 2023 2023 2023 2023 2023 2023 2023 
2023 2023 2023 2023 2023 2023 2023 2023 2023 
2023 2023 2023 2023 2023 2023 2023 2023 2023 
2023 2023 2023 2023 2023 2023 2023 2023 2023 
2023 2023 2023 2023 2023 2023 2023 2023 2023 
2023 2023 2023 2023 2023 2023 2023 2023 2023 
2023 2023 2023 2023 2023 2023 2023 2023 2023 
2023 2023 2023 2023 2023 2023 2023 2023 2023 
2023 2023 2023 2023 2023 2023 2023 2023 2023 
2023 2023 2023 2023 2023 2023 2023 2023 2023 
2023 2023 2023 2023 2023 2023 2023 2023 2023 
2023 2023 2023 2023 2023 2023 2023 2023 2023 
2023 2023 2023 2023 2023 2023 2023 2023 2023 
2023 2023 2023 2023 2023 2023 2023 2023 2023 
2023 2023 2023 2023 2023 2023 2023 2023 2023 
2023 2023 2023 2023 2023 2023 2023 2023 2023 
2023 2023 2023 2023 2023 2023 2023 2023 2023 
2023 2023 2023 2023 2023 2023 2023 2023 2023 
2023 2023 2023 2023 2023 2023 2023 2023 2023 
2023 2023 2023 2023 2023 2023 2023 2023 2023 
2023 2023 2023 2023 2023 2023 2023 2023 2023 
2023 2023 2023 2023 2023 2023 2023 2023 2023 
2023 2023 2023 2023 2023 2023 2023 2023 2023 
2023 2023 2023 2023 2023 2023 2023 2023 2023 
2023 2023 2023 2023 2023 2023 2023 2023 2023 
2023 2023 2023 2023 2023 2023 2023 2023 2023 
2023 2023 2023 2023 2023 2023 2023 2023 2023 
2023 2023 2023 2023 2023 2023 2023 2023 2023 
2023 2023 2023 2023 2023 2023 2023 2023 2023 
2023 2023 2023 2023 2023 2023 2023 2023 2023 
2023 2023 2023 2023 2023 2023 2023 2023 2023 
2023 2023 2023 2023 2023 2023 2023 2023 2023 
2023 2023 2023 2023 2023 2023 2023 2023 2023 
2023 2023 2023 2023 2023 2023 2023 2023 2023 
2023 2023 2023 2023 2023 2023 2023 2023 2023 
2023 2023 2023 2023 2023 2023 2023 2023 2023 
2023 2023 2023 2023 2023 2023 2023 2023 2023 
2023 2023 2023 2023 2023 2023 2023 2023 2023 
2023 2023 2023 2023 2023 2023 2023 2023 2023 
2023 2023 2023 2023 2023 2023 2023 2023 2023 
2023 2023 2023 2023 2023 2023 2023 2023 2023 
2023 2023 2023 2023 2023 2023 2023 2023 2023 
2023 2023 2023 2023 2023 2023 2023 2023 2023 
2023 2023 2023 2023 2023 2023 2023 2023 2023 
2023 2023 2023 2023 2023 2023 2023 2023 2023 
2023 2023 2023 2023 2023 2023 2023 2023 2023 
2023 2023 2023 2023 2023 2023 2023 2023 2023 
2023 2023 2023 2023 2023 2023 2023 2023 2023 
2023 2023 2023 2023 2023 2023 2023 2023 2023 
2023 2023 2023 2023 2023 2023 2023 2023 2023 
2023 2023 2023 2023 2023 2023 2023 2023 2023 
2023 2023 2023 2023 2023 2023 2023 2023 2023 
2023 2023 2023 2023 2023 2023 2023 2023 2023 
2023 2023 2023 2023 2023 2023 2023 2023 2023 
2023 2023 2023 2023 2023 2023 2023 2023 2023 
2023 2023 2023 2023 2023 2023 2023 2023 2023 
2023 2023 2023 2023 2023 2023 2023 2023 2023 
2023 2023 2023 2023 2023 2023 2023 2023 2023 
2023 2023 2023 2023 2023 2023 2023 2023 2023 
2023 2023 2023 2023 2023 2023 2023 2023 2023 
2023 2023 2023 2023 2023 2023 2023 2023 2023 
2023 2023 2023 2023 2023 2023 2023 2023 2023 
2023 2023 2023 2023 2023 2023 2023 2023 2023 
2023 2023 2023 2023 2023 2023 2023 2023 2023 
2023 2023 2023 2023 2023 2023 2023 2023 2023 
2023 2023 2023 2023 2023 2023 2023 2023 2023 
2023 2023 2023 2023 2023 2023 2023 2023 2023 
2023 2023 2023 2023 2023 2023 2023 2023 2023 
2023 2023 2023 2023 2023 2023 2023 2023 2023 
2023 2023 2023 2023 2023 2023 2023 2023 2023 
2023 2023 2023 2023 2023 2023 2023 2023 2023 
2023 2023 2023 2023 2023 2023 2023 2023 2023 
2023 2023 2023 2023 2023 2023 2023 2023 2023 
2023 2023 2023 2023 2023 2023 2023 2023 2023 
2023 2023 2023 2023 2023 2023 2023 2023 2023 
2023 2023 2023 2023 2023 2023 2023 2023 2023 
2023 2023 2023 2023 2023 2023 2023 2023 2023 
2023 2023 2023 2023 2023 2023 2023 2023 2023 
2023 2023 2023 2023 2023 2023 2023 2023 2023 
2023 2023 2023 2023 2023 2023 2023 2023 2023 
2023 2023 2023 2023 2023 2023 2023 2023 2023 
2023 2023 2023 2023 2023 2023 2023 2023 2023 
2023 2023 2023 2023 2023 2023 2023 2023 2023 
2023 2023 2023 2023 2023 2023 2023 2023 2023 
2023 2023 2023 2023 2023 2023 2023 2023 2023 
2023 2023 2023 2023 2023 2023 2023 2023 2023 
2023 2023 2023 2023 2023 2023 2023 2023 2023 
2023 2023 2023 2023 2023 2023 2023 2023 2023 
2023 2023 2023 2023 2023 2023 2023 2023 2023 
2023 2023 2023 2023 2023 2023 2023 2023 2023 
2023 2023 2023 2023 2023 2023 2023 2023 2023 
2023 2023 2023 2023 2023 2023 2023 2023 2023 
2023 2023 2023 2023 2023 2023 2023 2023 2023 
2023 2023 2023 2023 2023 2023 2023 2023 2023 
2023 2023 2023 2023 2023 2023 2023 2023 2023 
2023 2023 2023 2023 2023 2023 2023 2023 2023 
2023 2023 2023 2023 2023 2023 2023 2023 2023 
2023 2023 2023 2023 2023 2023 2023 2023 2023 
2023 2023 2023 2023 2023 2023 2023 2023 2023 
2023 2023 2023 2023 2023 2023 2023 2023 2023 
2023 2023 2023 2023 2023 2023 2023 2023 2023 
2023 2023 2023 2023 2023 2023 2023 2023 2023 
2023 2023 2023 2023 2023 2023 2023 2023 2023 
2023 2023 2023 2023 2023 2023 2023 2023 2023 
2023 2023 2023 2023 2023 2023 2023 2023 2023 
2023 2023 2023 2023 2023 2023 2023 2023 2023 
2023 2023 2023 2023 2023 2023 2023 2023 2023 
2023 2023 2023 2023 2023 2023 2023 2023 2023 
2023 2023 2023 2023 2023 2023 2023 2023 2023 
2023 2023 2023 2023 2023 2023 2023 2023 2023 
2023 2023 2023 2023 2023 2023 2023 2023 2023 
2023 2023 2023 2023 2023 2023 2023 2023 2023 
2023 2023 2023 2023 2023 2023 2023 2023 2023 
2023 2023 2023 2023 2023 2023 2023 2023 2023 
2023 2023 2023 2023 2023 2023 2023 2023 2023 
2023 2023 2023 2023 2023 2023 2023 2023 2023 
2023 2023 2023 2023 2023 2023 2023 2023 2023 
2023 2023 2023 2023 2023 2023 2023 2023 2023 
2023 2023 2023 2023 2023 2023 2023 2023 2023 
2023 2023 2023 2023 2023 2023 2023 2023 2023 
2023 2023 2023 2023 2023 2023 2023 2023 2023 
2023 2023 2023 2023 2023 2023 2023 2023 2023 
2023 2023 2023 2023 2023 2023 2023 2023 2023 
2023 2023 2023 2023 2023 2023 2023 2023 2023 
2023 2023 2023 2023 2023 2023 2023 2023 2023 
2023 2023 2023 2023 2023 2023 2023 2023 2023 
2023 2023 2023 2023 2023 2023 2023 2023 2023 
2023 2023 2023 2023 2023 2023 2023 2023 2023 
2023 2023 2023 2023 2023 2023 2023 2023 2023 
2023 2023 2023 2023 2023 2023 2023 2023 2023 
2023 2023 2023 2023 2023 2023 2023 2023 2023 
2023 2023 2023 2023 2023 2023 2023 2023 2023 
2023 2023 2023 2023 2023 2023 2023 2023 2023 
2023 2023 2023 2023 2023 2023 2023 2023 2023 
2023 2023 2023 2023 2023 2023 2023 2023 2023 
2023 2023 2023 2023 2023 2023 2023 2023 2023 
2023 2023 2023 2023 2023 2023 2023 2023 2023 
2023 2023 2023 2023 2023 2023 2023 2023 2023 
2023 2023 2023 2023 2023 2023 2023 2023 2023 
2023 2023 2023 2023 2023 2023 2023 2023 2023 
2023 2023 2023 2023 2023 2023 2023 2023 2023 
2023 2023 2023 2023 2023 2023 2023 2023 2023 
2023 2023 2023 2023 2023 2023 2023 2023 2023 
2023 2023 2023 2023 2023 2023 2023 2023 2023 
2023 2023 2023 2023 2023 2023 2023 2023 2023 
2023 2023 2023 2023 2023 2023 2023 2023 2023 
2023 2023 2023 2023 2023 2023 2023 2023 2023 
2023 2023 2023 2023 2023 2023 2023 2023 2023 
2023 2023 2023 2023 2023 2023 2023 2023 2023 
2023 2023 2023 2023 2023 2023 2023 2023 2023 
2023 2023 2023 2023 2023 2023 2023 2023 2023 
2023 2023 2023 2023 2023 2023 2023 2023 2023 
2023 2023 2023 2023 2023 2023 2023 2023 2023 
2023 2023 2023 2023 2023 2023 2023 2023 2023 
2023 2023 2023 2023 2023 2023 2023 2023 2023 
2023 2023 2023 2023 2023 2023 2023 2023 2023 
2023 2023 2023 2023 2023 2023 2023 2023 2023 
2023 2023 2023 2023 2023 2023 2023 2023 2023 
2023 2023 2023 2023 2023 2023 2023 2023 2023 
2023 2023 2023 2023 2023 2023 2023 2023 2023 
2023 2023 2023 2023 2023 2023 2023 2023 2023 
2023 2023 2023 2023 2023 2023 2023 2023 2023 
2023 2023 2023 2023 2023 2023 2023 2023 2023 
2023 2023 2023 2023 2023 2023 2023 2023 2023 
2023 2023 2023 2023 2023 2023 2023 2023 2023 
2023 2023 2023 2023 2023 2023 2023 2023 2023 
2023 2023 2023 2023 2023 2023 2023 2023 2023 
2023 2023 2023 2023 2023 2023 2023 2023 2023 
2023 2023 2023 2023 2023 2023 2023 2023 2023 
2023 2023 2023 2023 2023 2023 2023 2023 2023 
2023 2023 2023 2023 2023 2023 2023 2023 2023 
2023 2023 2023 2023 2023 2023 2023 2023 2023 
2023 2023 2023 2023 2023 2023 2023 2023 2023 
2023 2023 2023 2023 2023 2023 2023 2023 2023 
2023 2023 2023 2023 2023 2023 2023 2023 2023 