# vtk DataFile Version 4.2
vtk output
ASCII
DATASET POLYDATA
POINTS 4132 float
-3.37572 -13.6585 -31.8718 -3.37942 -13.3472 -32.1584 -3.119 -13.556 -32.0256 
-3.58933 -13.4568 -32.1906 -2.9597 -13.9386 -31.8819 -2.80688 -13.8133 -32.2496 
-2.68191 -14.1046 -32.0899 -3.27748 -14.0843 -31.8487 -3.70227 -13.8854 -32.1291 
-2.8445 -14.3931 -32.0903 -3.45799 -14.314 -32.0432 -5.17244 -12.8921 -32.5606 
-5.20218 -12.7348 -32.8503 -5.03891 -13.0548 -32.7977 -5.41701 -12.7999 -32.711 
-3.41814 -13.2959 -32.6629 -3.11472 -13.4473 -32.5092 -3.72279 -13.519 -32.7527 
-5.28393 -13.0453 -32.6582 -2.80564 -13.7691 -32.8561 -2.5254 -14.1928 -32.4957 
-4.11719 -13.8475 -32.688 -4.00313 -14.2362 -32.3272 -4.47252 -14.2989 -32.5235 
-4.49254 -13.995 -32.6622 -4.84102 -14.0123 -32.7976 -1.72148 -14.6676 -32.5416 
-1.52737 -14.505 -32.85 -1.40338 -14.7026 -32.6329 -2.2181 -14.6634 -32.4343 
-2.09948 -14.425 -32.7344 -2.68862 -14.7819 -32.3725 -3.33522 -14.6701 -32.3131 
-3.96783 -14.6599 -32.4575 -4.31198 -14.6339 -32.6595 -4.73135 -14.3907 -32.8816 
-1.61209 -14.9487 -32.7055 -2.34837 -15.0323 -32.7404 -2.94906 -14.9588 -32.724 
-3.55278 -14.9428 -32.7456 -4.00349 -14.8785 -32.7965 -6.51889 -12.458 -33.1235 
-6.46794 -12.1542 -33.2827 -6.19689 -12.3288 -33.2161 -6.64497 -12.2268 -33.2958 
-5.26402 -12.6454 -33.4398 -4.96668 -12.8898 -33.1717 -5.80799 -12.871 -32.9402 
-5.79985 -12.5296 -33.2704 -6.32146 -13.0076 -33.0523 -6.86396 -12.549 -33.3559 
-6.87296 -12.8441 -33.146 -7.12484 -12.8702 -33.285 -3.38204 -13.2818 -33.3932 
-3.06901 -13.4437 -33.1143 -3.79739 -13.4336 -33.3597 -5.17099 -13.5013 -32.9255 
-4.83446 -13.3019 -33.2638 -5.73462 -13.5343 -33.0694 -6.16414 -13.3948 -33.2322 
-6.60255 -13.1362 -33.3087 -6.98454 -12.9905 -33.3679 -2.80843 -13.705 -33.2778 
-2.49981 -14.0211 -33.1676 -4.02794 -13.6527 -33.1461 -4.54639 -13.7162 -33.137 
-5.21456 -14.025 -32.9883 -5.55354 -14.0108 -33.2364 -5.8997 -13.7508 -33.328 
-1.13095 -14.7129 -32.9266 -0.977994 -14.432 -33.2901 -0.807632 -14.8679 -33.3986 
-1.49274 -14.2883 -33.258 -1.99812 -14.2691 -33.2026 -4.3486 -14.7363 -33.0823 
-4.74765 -14.5706 -33.2967 -5.18072 -14.3328 -33.2566 -1.10239 -15.0591 -33.1189 
-1.50414 -15.2941 -33.0359 -1.2075 -15.3774 -33.3388 -1.98954 -15.3303 -32.994 
-2.40213 -15.2867 -33.2025 -2.80361 -15.0765 -33.3498 -3.39434 -15.0082 -33.2985 
-4.01955 -14.9514 -33.3289 -1.6814 -15.5479 -33.4175 -2.18909 -15.4887 -33.401 
-6.44096 -12.2818 -33.4231 -5.31329 -12.7168 -33.9065 -4.90606 -12.9746 -33.6958 
-5.83434 -12.6113 -33.9587 -6.53271 -12.5733 -33.8414 -6.97533 -12.8244 -33.5371 
-6.82529 -12.9974 -33.7929 1.86764 -13.4377 -33.7362 2.00976 -13.3093 -33.9925 
2.12459 -13.4971 -33.887 1.57357 -13.1738 -33.9809 1.52212 -13.5347 -33.7155 
1.17583 -13.4524 -34.0607 -2.78547 -13.5662 -33.5562 -2.99251 -13.3211 -33.8648 
-2.58379 -13.6464 -34.0074 -3.46632 -13.2598 -33.891 -4.19389 -13.4916 -33.5819 
-3.99525 -13.3039 -33.9154 -4.57931 -13.3962 -33.6192 -4.6299 -13.1941 -34.0315 
-6.43414 -13.6171 -33.5159 -7.05359 -13.5555 -33.7307 -6.99606 -13.1486 -33.9189 
-7.23096 -13.3528 -33.9467 1.95204 -13.7923 -33.8848 1.42899 -13.7572 -33.8058 
-0.583411 -14.1307 -33.694 -0.537598 -13.8434 -33.9888 -0.172101 -13.9506 -33.9718 
-1.16389 -14.0718 -33.558 -0.907864 -13.871 -33.855 -1.78104 -14.0759 -33.5798 
-1.5293 -13.9319 -33.9287 -2.30305 -13.9303 -33.61 -2.13696 -13.9222 -33.9379 
-5.82675 -14.2178 -33.5037 -6.49136 -14.1963 -33.5711 -7.00531 -14.1066 -33.5819 
-7.49329 -13.7438 -33.848 -7.63625 -14.1755 -33.6841 -7.86988 -14.0184 -33.8995 
-0.217987 -14.3434 -33.9579 -0.574832 -14.7361 -33.8638 -4.54272 -14.7733 -33.5036 
-5.13079 -14.6435 -33.6167 -5.72259 -14.6999 -33.7049 -6.27157 -14.6244 -33.6635 
-6.86566 -14.6109 -33.6475 -7.46775 -14.6265 -33.6456 -8.17635 -14.325 -33.8279 
-8.17151 -14.6451 -33.7076 -8.91368 -14.781 -33.6915 -8.74069 -14.4178 -33.9335 
-9.54955 -14.8529 -33.6732 -9.27628 -14.5445 -33.8675 -9.71859 -14.5731 -33.9774 
-0.901776 -15.2344 -33.5068 -0.768796 -15.2433 -33.9085 -2.49876 -15.3083 -33.7231 
-2.90026 -15.064 -34.0731 -3.40312 -14.9827 -33.9278 -4.00759 -14.994 -33.9061 
-4.60673 -14.9222 -33.839 -5.28847 -15.0029 -33.9675 -5.97913 -15.012 -33.8791 
-6.58418 -15.0094 -33.8589 -7.1813 -15.0207 -33.8536 -7.78656 -15.0224 -33.8599 
-8.39349 -15.0167 -33.855 -8.88675 -15.0995 -33.796 -9.07637 -15.3465 -33.9199 
-9.41824 -15.2485 -33.6381 -9.94072 -14.9613 -33.8212 -9.94308 -15.3613 -33.6598 
-10.241 -15.3673 -33.9565 -11.2175 -15.3367 -33.7631 -11.1286 -15.1716 -33.8642 
-10.9877 -15.3875 -33.9335 -11.4255 -15.21 -33.9806 -1.16532 -15.5394 -33.8371 
-1.68327 -15.6476 -33.9874 -2.125 -15.5451 -33.8874 -9.43014 -15.6191 -33.9079 
-9.76772 -15.9626 -34.0499 -9.88511 -15.7751 -33.6916 -10.1862 -15.8073 -33.839 
-11.2217 -15.4797 -34.0539 -10.0976 -16.0601 -33.9818 1.29052 -12.9226 -34.253 
1.33588 -12.7644 -34.5144 1.51008 -12.8529 -34.4103 1.18112 -13.0633 -34.4775 
-5.12596 -12.9205 -34.1151 -5.5931 -12.8425 -34.2709 -6.06194 -12.8114 -34.4437 
-6.47232 -12.6759 -34.4415 -7.21205 -12.9471 -34.1632 -6.98928 -12.6882 -34.4069 
-7.72762 -13.0087 -34.3138 -7.45888 -12.7285 -34.4576 -7.75501 -12.8871 -34.5925 
1.84462 -13.1491 -34.4029 2.25144 -13.572 -34.2485 1.02915 -13.4281 -34.4491 
0.173346 -13.6878 -34.246 0.330396 -13.3472 -34.6113 0.525595 -13.5895 -34.3982 
-0.0625214 -13.4699 -34.6537 -2.85136 -13.4631 -34.1366 -3.22868 -13.4514 -34.173 
-3.78802 -13.4722 -34.2161 -4.24393 -13.4554 -34.3924 -4.67455 -13.2912 -34.5436 
-5.27698 -13.0965 -34.543 -5.93958 -13.049 -34.6789 -7.6814 -13.5101 -34.0766 
-8.14261 -13.1408 -34.6442 -8.2374 -13.5605 -34.2877 -8.53759 -13.4345 -34.5799 
3.1282 -14.0772 -34.334 3.17444 -13.804 -34.6121 3.4205 -14.087 -34.6239 
2.62765 -14.0761 -34.2241 2.6237 -13.8122 -34.5626 2.13062 -14.197 -34.1713 
1.41882 -14.0337 -34.1344 0.959271 -13.6855 -34.5216 0.749103 -14.0097 -34.2822 
0.235849 -14.1296 -34.1446 -0.390802 -13.732 -34.4045 -1.00743 -13.8576 -34.2791 
-1.56537 -14.0612 -34.2654 -1.34981 -14.1295 -34.6687 -2.01019 -14.1096 -34.2215 
-2.42007 -13.9944 -34.3656 -2.88255 -13.7541 -34.5398 -3.54628 -13.708 -34.5613 
-4.13074 -13.6774 -34.6446 -8.2604 -14.0412 -34.0563 -8.70396 -13.7743 -34.4611 
-8.75434 -14.0831 -34.2654 -9.05443 -14.0067 -34.5234 -10.0689 -14.2188 -34.2798 
-10.0474 -13.852 -34.6135 -9.70599 -14.0814 -34.483 -10.7913 -14.1458 -34.2485 
-10.5175 -13.8565 -34.4856 -11.3956 -14.2324 -34.2863 -11.0457 -13.9026 -34.4965 
-11.4296 -14.0694 -34.4695 3.07398 -14.3119 -34.5106 2.48752 -14.3768 -34.5217 
1.84474 -14.3823 -34.5309 1.20979 -14.3483 -34.559 0.619061 -14.3403 -34.5394 
0.0827454 -14.4511 -34.3813 -0.295386 -14.6539 -34.2106 -0.15943 -14.7264 -34.6752 
-1.8253 -14.3113 -34.5778 -2.21587 -14.2808 -34.6098 -9.36044 -14.2751 -34.2802 
-10.1611 -14.792 -34.0652 -10.5375 -14.5761 -34.1635 -11.2283 -14.7428 -34.1164 
-11.6862 -14.3855 -34.5476 -11.7522 -14.6149 -34.3095 -11.9424 -14.7086 -34.4793 
-0.435049 -14.9229 -34.4137 -0.666971 -15.2675 -34.5324 -2.54392 -15.3002 -34.3066 
-2.94995 -15.1244 -34.5264 -3.40865 -15.0504 -34.4584 -4.00034 -15.0646 -34.4204 
-4.64713 -15.109 -34.3024 -5.15421 -15.2702 -34.2919 -4.8497 -15.3555 -34.586 
-5.64758 -15.307 -34.1722 -6.25586 -15.3268 -34.1493 -6.86945 -15.337 -34.1665 
-7.4708 -15.3415 -34.1656 -8.04564 -15.3283 -34.1763 -8.60459 -15.3059 -34.1187 
-10.6592 -15.2054 -34.1085 -11.7533 -14.9149 -34.4275 -11.5317 -15.2771 -34.4768 
-1.0474 -15.5598 -34.476 -1.57311 -15.6506 -34.4897 -2.21245 -15.5559 -34.5316 
-5.29514 -15.5071 -34.6148 -5.88566 -15.5274 -34.4545 -6.4855 -15.6457 -34.6277 
-7.18178 -15.5679 -34.5731 -7.70403 -15.5361 -34.4921 -8.17023 -15.4718 -34.5788 
-8.85281 -15.4657 -34.3515 -9.31959 -15.7314 -34.44 -9.62672 -16.0151 -34.5026 
-10.3809 -15.857 -34.2552 -10.8502 -15.6894 -34.4651 -11.2615 -15.5545 -34.5779 
-10.0713 -16.1616 -34.5674 1.50857 -13.004 -34.6695 -6.4783 -12.9846 -34.7437 
-6.92035 -12.8605 -34.7304 -7.39998 -12.9436 -34.7644 3.13634 -13.5151 -34.9002 
3.20096 -13.4209 -35.0524 3.40212 -13.7089 -34.9859 3.04199 -13.4539 -35.0745 
1.95526 -13.4502 -34.7192 1.36623 -13.4537 -34.7834 0.670496 -13.4476 -34.7096 
0.750952 -13.2836 -35.1936 1.01032 -13.5433 -34.9862 0.123898 -13.2511 -35.0634 
-0.208493 -13.4304 -35.109 -4.52621 -13.5344 -34.7518 -4.86695 -13.4483 -35.0076 
-5.26359 -13.3062 -35.027 -5.83122 -13.2648 -35.02 -6.39973 -13.288 -34.9822 
-6.96776 -13.29 -34.9378 -6.72216 -13.6379 -35.2129 -7.37925 -13.3927 -35.0394 
-7.817 -13.2036 -35.0862 -8.32581 -13.1549 -35.2045 -9.01684 -13.5778 -34.7589 
-8.78708 -13.2227 -35.0575 -9.52863 -13.474 -34.8941 -9.34254 -13.2723 -35.0874 
-9.98623 -13.5797 -34.8811 -9.83254 -13.322 -35.1425 -10.1895 -13.4912 -35.1938 
3.48633 -14.121 -35.1481 2.83973 -13.6394 -35.1044 2.05117 -13.67 -35.0431 
1.40741 -13.6567 -35.0632 -0.465948 -13.6624 -35.0118 -0.893161 -13.883 -34.8896 
-1.28659 -14.1473 -35.2487 -2.89017 -13.8935 -35.2543 -2.50757 -14.1196 -34.923 
-3.40406 -13.8033 -35.0865 -4.01433 -13.8052 -35.0846 -4.64743 -13.6967 -35.1659 
-7.18152 -13.6676 -35.2592 -9.49278 -13.8771 -34.6568 -10.6232 -13.7445 -35.057 
-11.2491 -14.0395 -34.7835 -11.1094 -13.9974 -35.21 3.19557 -14.3641 -35.0552 
2.63613 -14.4576 -35.0535 2.01375 -14.462 -35.0812 1.40514 -14.4485 -35.1024 
0.808328 -14.4338 -35.0886 0.265521 -14.5099 -34.945 -0.103519 -14.733 -35.2578 
-1.69465 -14.3755 -35.1124 -2.14367 -14.3707 -35.0867 -11.4548 -14.3329 -35.0065 
-11.8036 -14.6646 -34.7365 -11.5993 -14.7199 -35.1128 -0.404315 -15.0408 -34.9395 
-0.678122 -15.3505 -35.233 -2.74983 -15.3366 -34.7148 -3.24545 -15.282 -34.8193 
-3.84026 -15.2807 -34.816 -4.4069 -15.3066 -34.754 -8.42664 -15.2846 -34.8291 
-8.01611 -15.3473 -35.0503 -8.29654 -15.0819 -35.2836 -8.67057 -15.1026 -35.1055 
-8.906 -15.3866 -34.8044 -8.9658 -15.2682 -35.2245 -11.4489 -15.2676 -35.0673 
-1.04581 -15.5697 -35.0979 -1.57393 -15.6496 -35.0969 -2.19237 -15.6251 -35.1069 
[...]
CELL_DATA 8380
SCALARS scalars float
LOOKUP_TABLE default
1021 1021 1021 1021 1021 1021 1021 1021 1021 
1021 1021 1021 1021 1021 1021 1021 1021 1021 
1021 1021 1021 1021 1021 1021 1021 1021 1021 
1021 1021 1021 1021 1021 1021 1021 1021 1021 
1021 1021 1021 1021 1021 1021 1021 1021 1021 
1021 1021 1021 1021 1021 1021 1021 1021 1021 
1021 1021 1021 1021 1021 1021 1021 1021 1021 
1021 1021 1021 1021 1021 1021 1021 1021 1021 
1021 1021 1021 1021 1021 1021 1021 1021 1021 
1021 1021 1021 1021 1021 1021 1021 1021 1021 
1021 1021 1021 1021 1021 1021 1021 1021 1021 
1021 1021 1021 1021 1021 1021 1021 1021 1021 
1021 1021 1021 1021 1021 1021 1021 1021 1021 
1021 1021 1021 1021 1021 1021 1021 1021 1021 
1021 1021 1021 1021 1021 1021 1021 1021 1021 
1021 1021 1021 1021 1021 1021 1021 1021 1021 
1021 1021 1021 1021 1021 1021 1021 1021 1021 
1021 1021 1021 1021 1021 1021 1021 1021 1021 
1021 1021 1021 1021 1021 1021 1021 1021 1021 
1021 1021 1021 1021 1021 1021 1021 1021 1021 
1021 1021 1021 1021 1021 1021 1021 1021 1021 
1021 1021 1021 1021 1021 1021 1021 1021 1021 
1021 1021 1021 1021 1021 1021 1021 1021 1021 
1021 1021 1021 1021 1021 1021 1021 1021 1021 
1021 1021 1021 1021 1021 1021 1021 1021 1021 
1021 1021 1021 1021 1021 1021 1021 1021 1021 
1021 1021 1021 1021 1021 1021 1021 1021 1021 
1021 1021 1021 1021 1021 1021 1021 1021 1021 
1021 1021 1021 1021 1021 1021 1021 1021 1021 
1021 1021 1021 1021 1021 1021 1021 1021 1021 
1021 1021 1021 1021 1021 1021 1021 1021 1021 
1021 1021 1021 1021 1021 1021 1021 1021 1021 
1021 1021 1021 1021 1021 1021 1021 1021 1021 
1021 1021 1021 1021 1021 1021 1021 1021 1021 
1021 1021 1021 1021 1021 1021 1021 1021 1021 
1021 1021 1021 1021 1021 1021 1021 1021 1021 
1021 1021 1021 1021 1021 1021 1021 1021 1021 
1021 1021 1021 1021 1021 1021 1021 1021 1021 
1021 1021 1021 1021 1021 1021 1021 1021 1021 
1021 1021 1021 1021 1021 1021 1021 1021 1021 
1021 1021 1021 1021 1021 1021 1021 1021 1021 
1021 1021 1021 1021 1021 1021 1021 1021 1021 
1021 1021 1021 1021 1021 1021 1021 1021 1021 
1021 1021 1021 1021 1021 1021 1021 1021 1021 
1021 1021 1021 1021 1021 1021 1021 1021 1021 
1021 1021 1021 1021 1021 1021 1021 1021 1021 
1021 1021 1021 1021 1021 1021 1021 1021 1021 
1021 1021 1021 1021 1021 1021 1021 1021 1021 
1021 1021 1021 1021 1021 1021 1021 1021 1021 
1021 1021 1021 1021 1021 1021 1021 1021 1021 
1021 1021 1021 1021 1021 1021 1021 1021 1021 
1021 1021 1021 1021 1021 1021 1021 1021 1021 
1021 1021 1021 1021 1021 1021 1021 1021 1021 
1021 1021 1021 1021 1021 1021 1021 1021 1021 
1021 1021 1021 1021 1021 1021 1021 1021 1021 
1021 1021 1021 1021 1021 1021 1021 1021 1021 
1021 1021 1021 1021 1021 1021 1021 1021 1021 
1021 1021 1021 1021 1021 1021 1021 1021 1021 
1021 1021 1021 1021 1021 1021 1021 1021 1021 
1021 1021 1021 1021 1021 1021 1021 1021 1021 
1021 1021 1021 1021 1021 1021 1021 1021 1021 
1021 1021 1021 1021 1021 1021 1021 1021 1021 
1021 1021 1021 1021 1021 1021 1021 1021 1021 
1021 1021 1021 1021 1021 1021 1021 1021 1021 
1021 1021 1021 1021 1021 1021 1021 1021 1021 
1021 1021 1021 1021 1021 1021 1021 1021 1021 
1021 1021 1021 1021 1021 1021 1021 1021 1021 
1021 1021 1021 1021 1021 1021 1021 1021 1021 
1021 1021 1021 1021 1021 1021 1021 1021 1021 
1021 1021 1021 1021 1021 1021 1021 1021 1021 
1021 1021 1021 1021 1021 1021 1021 1021 1021 
1021 1021 1021 1021 1021 1021 1021 1021 1021 
1021 1021 1021 1021 1021 1021 1021 1021 1021 
1021 1021 1021 1021 1021 1021 1021 1021 1021 
1021 1021 1021 1021 1021 1021 1021 1021 1021 
1021 1021 1021 1021 1021 1021 1021 1021 1021 
1021 1021 1021 1021 1021 1021 1021 1021 1021 
1021 1021 1021 1021 1021 1021 1021 1021 1021 
1021 1021 1021 1021 1021 1021 1021 1021 1021 
1021 1021 1021 1021 1021 1021 1021 1021 1021 
1021 1021 1021 1021 1021 1021 1021 1021 1021 
1021 1021 1021 1021 1021 1021 1021 1021 1021 
1021 1021 1021 1021 1021 1021 1021 1021 1021 
1021 1021 1021 1021 1021 1021 1021 1021 1021 
1021 1021 1021 1021 1021 1021 1021 1021 1021 
1021 1021 1021 1021 1021 1021 1021 1021 1021 
1021 1021 1021 1021 1021 1021 1021 1021 1021 
1021 1021 1021 1021 1021 1021 1021 1021 1021 
1021 1021 1021 1021 1021 1021 1021 1021 1021 
1021 1021 1021 1021 1021 1021 1021 1021 1021 
1021 1021 1021 1021 1021 1021 1021 1021 1021 
1021 1021 1021 1021 1021 1021 1021 1021 1021 
1021 1021 1021 1021 1021 1021 1021 1021 1021 
1021 1021 1021 1021 1021 1021 1021 1021 1021 
1021 1021 1021 1021 1021 1021 1021 1021 1021 
1021 1021 1021 1021 1021 1021 1021 1021 1021 
1021 1021 1021 1021 1021 1021 1021 1021 1021 
1021 1021 1021 1021 1021 1021 1021 1021 1021 
1021 1021 1021 1021 1021 1021 1021 1021 1021 
1021 1021 1021 1021 1021 1021 1021 1021 1021 
1021 1021 1021 1021 1021 1021 1021 1021 1021 
1021 1021 1021 1021 1021 1021 1021 1021 1021 
1021 1021 1021 1021 1021 1021 1021 1021 1021 
1021 1021 1021 1021 1021 1021 1021 1021 1021 
1021 1021 1021 1021 1021 1021 1021 1021 1021 
1021 1021 1021 1021 1021 1021 1021 1021 1021 
1021 1021 1021 1021 1021 1021 1021 1021 1021 
1021 1021 1021 1021 1021 1021 1021 1021 1021 
1021 1021 1021 1021 1021 1021 1021 1021 1021 
1021 1021 1021 1021 1021 1021 1021 1021 1021 
1021 1021 1021 1021 1021 1021 1021 1021 1021 
1021 1021 1021 1021 1021 1021 1021 1021 1021 
1021 1021 1021 1021 1021 1021 1021 1021 1021 
1021 1021 1021 1021 1021 1021 1021 1021 1021 
1021 1021 1021 1021 1021 1021 1021 1021 1021 
1021 1021 1021 1021 1021 1021 1021 1021 1021 
1021 1021 1021 1021 1021 1021 1021 1021 1021 
1021 1021 1021 1021 1021 1021 1021 1021 1021 
1021 1021 1021 1021 1021 1021 1021 1021 1021 
1021 1021 1021 1021 1021 1021 1021 1021 1021 
1021 1021 1021 1021 1021 1021 1021 1021 1021 
1021 1021 1021 1021 1021 1021 1021 1021 1021 
1021 1021 1021 1021 1021 1021 1021 1021 1021 
1021 1021 1021 1021 1021 1021 1021 1021 1021 
1021 1021 1021 1021 1021 1021 1021 1021 1021 
1021 1021 1021 1021 1021 1021 1021 1021 1021 
1021 1021 1021 1021 1021 1021 1021 1021 1021 
1021 1021 1021 1021 1021 1021 1021 1021 1021 
1021 1021 1021 1021 1021 1021 1021 1021 1021 
1021 1021 1021 1021 1021 1021 1021 1021 1021 
1021 1021 1021 1021 1021 1021 1021 1021 1021 
1021 1021 1021 1021 1021 1021 1021 1021 1021 
1021 1021 1021 1021 1021 1021 1021 1021 1021 
1021 1021 1021 1021 1021 1021 1021 1021 1021 
1021 1021 1021 1021 1021 1021 1021 1021 1021 
1021 1021 1021 1021 1021 1021 1021 1021 1021 
1021 1021 1021 1021 1021 1021 1021 1021 1021 
1021 1021 1021 1021 1021 1021 1021 1021 1021 
1021 1021 1021 1021 1021 1021 1021 1021 1021 
1021 1021 1021 1021 1021 1021 1021 1021 1021 
1021 1021 1021 1021 1021 1021 1021 1021 1021 
1021 1021 1021 1021 1021 1021 1021 1021 1021 
1021 1021 1021 1021 1021 1021 1021 1021 1021 
1021 1021 1021 1021 1021 1021 1021 1021 1021 
1021 1021 1021 1021 1021 1021 1021 1021 1021 
1021 1021 1021 1021 1021 1021 1021 1021 1021 
1021 1021 1021 1021 1021 1021 1021 1021 1021 
1021 1021 1021 1021 1021 1021 1021 1021 1021 
1021 1021 1021 1021 1021 1021 1021 1021 1021 
1021 1021 1021 1021 1021 1021 1021 1021 1021 
1021 1021 1021 1021 1021 1021 1021 1021 1021 
1021 1021 1021 1021 1021 1021 1021 1021 1021 
1021 1021 1021 1021 1021 1021 1021 1021 1021 
1021 1021 1021 1021 1021 1021 1021 1021 1021 
1021 1021 1021 1021 1021 1021 1021 1021 1021 
1021 1021 1021 1021 1021 1021 1021 1021 1021 
1021 1021 1021 1021 1021 1021 1021 1021 1021 
1021 1021 1021 1021 1021 1021 1021 1021 1021 
1021 1021 1021 1021 1021 1021 1021 1021 1021 
1021 1021 1021 1021 1021 1021 1021 1021 1021 
1021 1021 1021 1021 1021 1021 1021 1021 1021 
1021 1021 1021 1021 1021 1021 1021 1021 1021 
1021 1021 1021 1021 1021 1021 1021 1021 1021 
1021 1021 1021 1021 1021 1021 1021 1021 1021 
1021 1021 1021 1021 1021 1021 1021 1021 1021 
1021 1021 1021 1021 1021 1021 1021 1021 1021 
1021 1021 1021 1021 1021 1021 1021 1021 1021 
1021 1021 1021 1021 1021 1021 1021 1021 1021 
1021 1021 1021 1021 1021 1021 1021 1021 1021 
1021 1021 1021 1021 1021 1021 1021 1021 1021 
1021 1021 1021 1021 1021 1021 1021 1021 1021 
1021 1021 1021 1021 1021 1021 1021 1021 1021 
1021 1021 1021 1021 1021 1021 1021 1021 1021 
1021 1021 1021 1021 1021 1021 1021 1021 1021 
1021 1021 1021 1021 1021 1021 1021 1021 1021 
1021 1021 1021 1021 1021 1021 1021 1021 1021 
1021 1021 1021 1021 1021 1021 1021 1021 1021 
1021 1021 1021 1021 1021 1021 1021 1021 1021 
1021 1021 1021 1021 1021 1021 1021 1021 1021 
1021 1021 1021 1021 1021 1021 1021 1021 1021 
1021 1021 1021 1021 1021 1021 1021 1021 1021 
1021 1021 1021 1021 1021 1021 1021 1021 1021 
1021 1021 1021 1021 1021 1021 1021 1021 1021 
1021 1021 1021 1021 1021 1021 1021 1021 1021 
1021 1021 1021 1021 1021 1021 1021 1021 1021 
1021 1021 1021 1021 1021 1021 1021 1021 1021 
1021 1021 1021 1021 1021 1021 1021 1021 1021 
1021 1021 1021 1021 1021 1021 1021 1021 1021 
1021 1021 1021 1021 1021 1021 1021 1021 1021 
1021 1021 1021 1021 1021 1021 1021 1021 1021 
1021 1021 1021 1021 1021 1021 1021 1021 1021 
1021 1021 1021 1021 1021 1021 1021 1021 1021 
1021 1021 1021 1021 1021 1021 1021 1021 1021 
1021 1021 1021 1021 1021 1021 1021 1021 1021 
1021 1021 1021 1021 1021 1021 1021 1021 1021 
1021 1021 1021 1021 1021 1021 1021 1021 1021 
1021 1021 1021 1021 1021 1021 1021 1021 1021 
1021 1021 1021 1021 1021 1021 1021 1021 1021 
1021 1021 1021 1021 1021 1021 1021 1021 1021 
1021 1021 1021 1021 1021 1021 1021 1021 1021 
1021 1021 1021 1021 1021 1021 1021 1021 1021 
1021 1021 1021 1021 1021 1021 1021 1021 1021 
1021 1021 1021 1021 1021 1021 1021 1021 1021 
1021 1021 1021 1021 1021 1021 1021 1021 1021 
1021 1021 1021 1021 1021 1021 1021 1021 1021 
1021 1021 1021 1021 1021 1021 1021 1021 1021 
1021 1021 1021 1021 1021 1021 1021 1021 1021 
1021 1021 1021 1021 1021 1021 1021 1021 1021 
1021 1021 1021 1021 1021 1021 1021 1021 1021 
1021 1021 1021 1021 1021 1021 1021 1021 1021 
1021 1021 1021 1021 1021 1021 1021 1021 1021 
1021 1021 1021 1021 1021 1021 1021 1021 1021 
1021 1021 1021 1021 1021 1021 1021 1021 1021 
1021 1021 1021 1021 1021 1021 1021 1021 1021 
1021 1021 1021 1021 1021 1021 1021 1021 1021 
1021 1021 1021 1021 1021 1021 1021 1021 1021 
1021 1021 1021 1021 1021 1021 1021 1021 1021 
1021 1021 1021 1021 1021 1021 1021 1021 1021 
1021 1021 1021 1021 1021 1021 1021 1021 1021 
1021 1021 1021 1021 1021 1021 1021 1021 1021 
1021 1021 1021 1021 1021 1021 1021 1021 1021 
1021 1021 1021 1021 1021 1021 1021 1021 1021 
1021 1021 1021 1021 1021 1021 1021 1021 1021 
1021 1021 1021 1021 1021 1021 1021 1021 1021 
1021 1021 1021 1021 1021 1021 1021 1021 1021 
1021 1021 1021 1021 1021 1021 1021 1021 1021 
1021 1021 1021 1021 1021 1021 1021 1021 1021 
1021 1021 1021 1021 1021 1021 1021 1021 1021 
1021 1021 1021 1021 1021 1021 1021 1021 1021 
1021 1021 1021 1021 1021 1021 1021 1021 1021 
1021 1021 1021 1021 1021 1021 1021 1021 1021 
1021 1021 1021 1021 1021 1021 1021 1021 1021 
1021 1021 1021 1021 1021 1021 1021 1021 1021 
1021 1021 1021 1021 1021 1021 1021 1021 1021 
1021 1021 1021 1021 1021 1021 1021 1021 1021 
1021 1021 1021 1021 1021 1021 1021 1021 1021 
1021 1021 1021 1021 1021 1021 1021 1021 1021 
1021 1021 1021 1021 1021 1021 1021 1021 1021 
1021 1021 1021 1021 1021 1021 1021 1021 1021 
1021 1021 1021 1021 1021 1021 1021 1021 1021 
1021 1021 1021 1021 1021 1021 1021 1021 1021 
1021 1021 1021 1021 1021 1021 1021 1021 1021 
1021 1021 1021 1021 1021 1021 1021 1021 1021 
1021 1021 1021 1021 1021 1021 1021 1021 1021 
1021 1021 1021 1021 1021 1021 1021 1021 1021 
1021 1021 1021 1021 1021 1021 1021 1021 1021 
1021 1021 1021 1021 1021 1021 1021 1021 1021 
1021 1021 1021 1021 1021 1021 1021 1021 1021 
1021 1021 1021 1021 1021 1021 1021 1021 1021 
1021 1021 1021 1021 1021 1021 1021 1021 1021 
1021 1021 1021 1021 1021 1021 1021 1021 1021 
1021 1021 1021 1021 1021 1021 1021 1021 1021 
1021 1021 1021 1021 1021 1021 1021 1021 1021 
1021 1021 1021 1021 1021 1021 1021 1021 1021 
1021 1021 1021 1021 1021 1021 1021 1021 1021 
1021 1021 1021 1021 1021 1021 1021 1021 1021 
1021 1021 1021 1021 1021 1021 1021 1021 1021 
1021 1021 1021 1021 1021 1021 1021 1021 1021 
1021 1021 1021 1021 1021 1021 1021 1021 1021 
1021 1021 1021 1021 1021 1021 1021 1021 1021 
1021 1021 1021 1021 1021 1021 1021 1021 1021 
1021 1021 1021 1021 1021 1021 1021 1021 1021 
1021 1021 1021 1021 1021 1021 1021 1021 1021 
1021 1021 1021 1021 1021 1021 1021 1021 1021 
1021 1021 1021 1021 1021 1021 1021 1021 1021 
1021 1021 1021 1021 1021 1021 1021 1021 1021 
1021 1021 1021 1021 1021 1021 1021 1021 1021 
1021 1021 1021 1021 1021 1021 1021 1021 1021 
1021 1021 1021 1021 1021 1021 1021 1021 1021 
1021 1021 1021 1021 1021 1021 1021 1021 1021 
1021 1021 1021 1021 1021 1021 1021 1021 1021 
1021 1021 1021 1021 1021 1021 1021 1021 1021 
1021 1021 1021 1021 1021 1021 1021 1021 1021 
1021 1021 1021 1021 1021 1021 1021 1021 1021 
1021 1021 1021 1021 1021 1021 1021 1021 1021 
1021 1021 1021 1021 1021 1021 1021 1021 1021 
1021 1021 1021 1021 1021 1021 1021 1021 1021 
1021 1021 1021 1021 1021 1021 1021 1021 1021 
1021 1021 1021 1021 1021 1021 1021 1021 1021 
1021 1021 1021 1021 1021 1021 1021 1021 1021 
1021 1021 1021 1021 1021 1021 1021 1021 1021 
1021 1021 1021 1021 1021 1021 1021 1021 1021 
1021 1021 1021 1021 1021 1021 1021 1021 1021 
1021 1021 1021 1021 1021 1021 1021 1021 1021 
1021 1021 1021 1021 1021 1021 1021 1021 1021 
1021 1021 1021 1021 1021 1021 1021 1021 1021 
1021 1021 1021 1021 1021 1021 1021 1021 1021 
1021 1021 1021 1021 1021 1021 1021 1021 1021 
1021 1021 1021 1021 1021 1021 1021 1021 1021 
1021 1021 1021 1021 1021 1021 1021 1021 1021 
1021 1021 1021 1021 1021 1021 1021 1021 1021 
1021 1021 1021 1021 1021 1021 1021 1021 1021 
1021 1021 1021 1021 1021 1021 1021 1021 1021 
1021 1021 1021 1021 1021 1021 1021 1021 1021 
1021 1021 1021 1021 1021 1021 1021 1021 1021 
1021 1021 1021 1021 1021 1021 1021 1021 1021 
1021 1021 1021 1021 1021 1021 1021 1021 1021 
1021 1021 1021 1021 1021 1021 1021 1021 1021 
1021 1021 1021 1021 1021 1021 1021 1021 1021 
1021 1021 1021 1021 1021 1021 1021 1021 1021 
1021 1021 1021 1021 1021 1021 1021 1021 1021 
1021 1021 1021 1021 1021 1021 1021 1021 1021 
1021 1021 1021 1021 1021 1021 1021 1021 1021 
1021 1021 1021 1021 1021 1021 1021 1021 1021 
1021 1021 1021 1021 1021 1021 1021 1021 1021 
1021 1021 1021 1021 1021 1021 1021 1021 1021 
1021 1021 1021 1021 1021 1021 1021 1021 1021 
1021 1021 1021 1021 1021 1021 1021 1021 1021 
1021 1021 1021 1021 1021 1021 1021 1021 1021 
1021 1021 1021 1021 1021 1021 1021 1021 1021 
1021 1021 1021 1021 1021 1021 1021 1021 1021 
1021 1021 1021 1021 1021 1021 1021 1021 1021 
1021 1021 1021 1021 1021 1021 1021 1021 1021 
1021 1021 1021 1021 1021 1021 1021 1021 1021 
1021 1021 1021 1021 1021 1021 1021 1021 1021 
1021 1021 1021 1021 1021 1021 1021 1021 1021 
1021 1021 1021 1021 1021 1021 1021 1021 1021 
1021 1021 1021 1021 1021 1021 1021 1021 1021 
1021 1021 1021 1021 1021 1021 1021 1021 1021 
1021 1021 1021 1021 1021 1021 1021 1021 1021 
1021 1021 1021 1021 1021 1021 1021 1021 1021 
1021 1021 1021 1021 1021 1021 1021 1021 1021 
1021 1021 1021 1021 1021 1021 1021 1021 1021 
1021 1021 1021 1021 1021 1021 1021 1021 1021 
1021 1021 1021 1021 1021 1021 1021 1021 1021 
1021 1021 1021 1021 1021 1021 1021 1021 1021 
1021 1021 1021 1021 1021 1021 1021 1021 1021 
1021 1021 1021 1021 1021 1021 1021 1021 1021 
1021 1021 1021 1021 1021 1021 1021 1021 1021 
1021 1021 1021 1021 1021 1021 1021 1021 1021 
1021 1021 1021 1021 1021 1021 1021 1021 1021 
1021 1021 1021 1021 1021 1021 1021 1021 1021 
1021 1021 1021 1021 1021 1021 1021 1021 1021 
1021 1021 1021 1021 1021 1021 1021 1021 1021 
1021 1021 1021 1021 1021 1021 1021 1021 1021 
1021 1021 1021 1021 1021 1021 1021 1021 1021 
1021 1021 1021 1021 1021 1021 1021 1021 1021 
1021 1021 1021 1021 1021 1021 1021 1021 1021 
1021 1021 1021 1021 1021 1021 1021 1021 1021 
1021 1021 1021 1021 1021 1021 1021 1021 1021 
1021 1021 1021 1021 1021 1021 1021 1021 1021 
1021 1021 1021 1021 1021 1021 1021 1021 1021 
1021 1021 1021 1021 1021 1021 1021 1021 1021 
1021 1021 1021 1021 1021 1021 1021 1021 1021 
1021 1021 1021 1021 1021 1021 1021 1021 1021 
1021 1021 1021 1021 1021 1021 1021 1021 1021 
1021 1021 1021 1021 1021 1021 1021 1021 1021 
1021 1021 1021 1021 1021 1021 1021 1021 1021 
1021 1021 1021 1021 1021 1021 1021 1021 1021 
1021 1021 1021 1021 1021 1021 1021 1021 1021 
1021 1021 1021 1021 1021 1021 1021 1021 1021 
1021 1021 1021 1021 1021 1021 1021 1021 1021 
1021 1021 1021 1021 1021 1021 1021 1021 1021 
1021 1021 1021 1021 1021 1021 1021 1021 1021 
1021 1021 1021 1021 1021 1021 1021 1021 1021 
1021 1021 1021 1021 1021 1021 1021 1021 1021 
1021 1021 1021 1021 1021 1021 1021 1021 1021 
1021 1021 1021 1021 1021 1021 1021 1021 1021 
1021 1021 1021 1021 1021 1021 1021 1021 1021 
1021 1021 1021 1021 1021 1021 1021 1021 1021 
1021 1021 1021 1021 1021 1021 1021 1021 1021 
1021 1021 1021 1021 1021 1021 1021 1021 1021 
1021 1021 1021 1021 1021 1021 1021 1021 1021 
1021 1021 1021 1021 1021 1021 1021 1021 1021 
1021 1021 1021 1021 1021 1021 1021 1021 1021 
1021 1021 1021 1021 1021 1021 1021 1021 1021 
1021 1021 1021 1021 1021 1021 1021 1021 1021 
1021 1021 1021 1021 1021 1021 1021 1021 1021 
1021 1021 1021 1021 1021 1021 1021 1021 1021 
1021 1021 1021 1021 1021 1021 1021 1021 1021 
1021 1021 1021 1021 1021 1021 1021 1021 1021 
1021 1021 1021 1021 1021 1021 1021 1021 1021 
1021 1021 1021 1021 1021 1021 1021 1021 1021 
1021 1021 1021 1021 1021 1021 1021 1021 1021 
1021 1021 1021 1021 1021 1021 1021 1021 1021 
1021 1021 1021 1021 1021 1021 1021 1021 1021 
1021 1021 1021 1021 1021 1021 1021 1021 1021 
1021 1021 1021 1021 1021 1021 1021 1021 1021 
1021 1021 1021 1021 1021 1021 1021 1021 1021 
1021 1021 1021 1021 1021 1021 1021 1021 1021 
1021 1021 1021 1021 1021 1021 1021 1021 1021 
1021 1021 1021 1021 1021 1021 1021 1021 1021 
1021 1021 1021 1021 1021 1021 1021 1021 1021 
1021 1021 1021 1021 1021 1021 1021 1021 1021 
1021 1021 1021 1021 1021 1021 1021 1021 1021 
1021 1021 1021 1021 1021 1021 1021 1021 1021 
1021 1021 1021 1021 1021 1021 1021 1021 1021 
1021 1021 1021 1021 1021 1021 1021 1021 1021 
1021 1021 1021 1021 1021 1021 1021 1021 1021 
1021 1021 1021 1021 1021 1021 1021 1021 1021 
1021 1021 1021 1021 1021 1021 1021 1021 1021 
1021 1021 1021 1021 1021 1021 1021 1021 1021 
1021 1021 1021 1021 1021 1021 1021 1021 1021 
1021 1021 1021 1021 1021 1021 1021 1021 1021 
1021 1021 1021 1021 1021 1021 1021 1021 1021 
1021 1021 1021 1021 1021 1021 1021 1021 1021 
1021 1021 1021 1021 1021 1021 1021 1021 1021 
1021 1021 1021 1021 1021 1021 1021 1021 1021 
1021 1021 1021 1021 1021 1021 1021 1021 1021 
1021 1021 1021 1021 1021 1021 1021 1021 1021 
1021 1021 1021 1021 1021 1021 1021 1021 1021 
1021 1021 1021 1021 1021 1021 1021 1021 1021 
1021 1021 1021 1021 1021 1021 1021 1021 1021 
1021 1021 1021 1021 1021 1021 1021 1021 1021 
1021 1021 1021 1021 1021 1021 1021 1021 1021 
1021 1021 1021 1021 1021 1021 1021 1021 1021 
1021 1021 1021 1021 1021 1021 1021 1021 1021 
1021 1021 1021 1021 1021 1021 1021 1021 1021 
1021 1021 1021 1021 1021 1021 1021 1021 1021 
1021 1021 1021 1021 1021 1021 1021 1021 1021 
1021 1021 1021 1021 1021 1021 1021 1021 1021 
1021 1021 1021 1021 1021 1021 1021 1021 1021 
1021 1021 1021 1021 1021 1021 1021 1021 1021 
1021 1021 1021 1021 1021 1021 1021 1021 1021 
1021 1021 1021 1021 1021 1021 1021 1021 1021 
1021 1021 1021 1021 1021 1021 1021 1021 1021 
1021 1021 1021 1021 1021 1021 1021 1021 1021 
1021 1021 1021 1021 1021 1021 1021 1021 1021 
1021 1021 1021 1021 1021 1021 1021 1021 1021 
1021 1021 1021 1021 1021 1021 1021 1021 1021 
1021 1021 1021 1021 1021 1021 1021 1021 1021 
1021 1021 1021 1021 1021 1021 1021 1021 1021 
1021 1021 1021 1021 1021 1021 1021 1021 1021 
1021 1021 1021 1021 1021 1021 1021 1021 1021 
1021 1021 1021 1021 1021 1021 1021 1021 1021 
1021 1021 1021 1021 1021 1021 1021 1021 1021 
1021 1021 1021 1021 1021 1021 1021 1021 1021 
1021 1021 1021 1021 1021 1021 1021 1021 1021 
1021 1021 1021 1021 1021 1021 1021 1021 1021 
1021 1021 1021 1021 1021 1021 1021 1021 1021 
1021 1021 1021 1021 1021 1021 1021 1021 1021 
1021 1021 1021 1021 1021 1021 1021 1021 1021 
1021 1021 1021 1021 1021 1021 1021 1021 1021 