# vtk DataFile Version 4.2
vtk output
ASCII
DATASET POLYDATA
POINTS 4290 float
15.2093 -16.4871 -26.5346 15.087 -16.228 -26.7627 15.4056 -16.5383 -26.7352 
14.9496 -16.4362 -26.6907 15.0379 -16.6388 -26.7578 15.3173 -16.0274 -26.9671 
15.3302 -15.6827 -27.4233 15.5629 -15.9194 -27.2027 14.9527 -15.8833 -27.3675 
13.4015 -15.8613 -27.1977 13.3001 -15.7292 -27.4694 13.4985 -15.9409 -27.3569 
13.2421 -15.8587 -27.2354 16.973 -16.4815 -27.1712 17.1302 -16.34 -27.3926 
17.1166 -16.5745 -27.2554 16.886 -16.5171 -27.4048 15.7869 -16.4444 -26.9826 
15.8426 -16.0983 -27.3523 16.1141 -16.5093 -27.3459 14.5387 -16.498 -26.9573 
14.5889 -16.2109 -27.2069 14.0965 -16.5718 -27.1339 14.0213 -16.373 -27.2914 
13.3167 -16.0098 -27.2622 13.7538 -16.6338 -27.3597 16.9615 -16.6511 -27.2152 
16.4643 -16.8844 -27.4203 16.668 -17.2051 -27.3258 16.2721 -16.9813 -27.0915 
15.8072 -17.0225 -27.0206 15.1583 -16.9152 -27.2341 15.506 -17.1527 -27.237 
14.4959 -16.7278 -27.2301 14.0217 -16.6921 -27.2953 16.2956 -17.3628 -27.3822 
15.6769 -17.33 -27.4202 9.20653 -13.4335 -27.7512 9.33854 -13.3293 -27.9676 
9.35691 -13.4511 -27.8058 9.08523 -13.4279 -27.9751 9.84802 -14.079 -27.7653 
9.88124 -13.8481 -27.9061 9.94837 -14.0721 -28.0368 9.20231 -13.5715 -27.9762 
9.7184 -14.0079 -27.9073 9.76393 -14.2214 -27.9792 11.6077 -15.3161 -27.7609 
11.6587 -15.1854 -27.9716 11.7201 -15.3855 -27.9017 11.3267 -15.2963 -28.0326 
15.6764 -15.777 -27.5461 15.5744 -15.6943 -27.8661 15.9501 -16.0709 -27.8282 
15.1836 -15.6721 -27.7593 14.9805 -15.8735 -27.9428 13.2513 -15.684 -27.9004 
13.5841 -15.8924 -27.7277 12.6833 -15.6806 -27.9142 12.9616 -15.9765 -27.463 
12.3433 -16.0217 -27.7351 12.1051 -15.7232 -27.9781 11.548 -15.5429 -27.8998 
11.8815 -16.0319 -28.031 18.6636 -16.5079 -27.6829 18.7815 -16.2839 -28.0449 
18.969 -16.5333 -27.9564 18.0898 -16.558 -27.596 18.2362 -16.2294 -27.9134 
17.4828 -16.575 -27.4752 17.5306 -16.2325 -27.8321 16.995 -16.2813 -27.7721 
16.7199 -16.57 -28.0024 16.2077 -16.5379 -27.796 14.6541 -16.0696 -27.8937 
14.0276 -16.169 -27.8438 13.4583 -16.3048 -27.4833 12.8183 -16.5441 -27.6381 
12.4839 -16.4304 -27.8147 12.2863 -16.2315 -28.0817 18.7689 -16.7897 -27.8154 
18.507 -17.1376 -28.0392 18.3696 -16.9471 -27.6481 17.7855 -17.033 -27.6006 
16.9989 -16.9357 -27.5176 16.4525 -16.742 -27.9353 15.2721 -17.1886 -27.5304 
14.9603 -17.0879 -27.839 14.6439 -16.9067 -27.868 14.0542 -16.7906 -27.8185 
13.3914 -16.9221 -27.6564 13.624 -17.0821 -28.0905 13.036 -16.9286 -27.9959 
12.7143 -16.6982 -27.8433 18.0229 -17.3327 -27.9438 17.4335 -17.3787 -27.9343 
16.8262 -17.4074 -27.8247 16.3063 -17.4768 -27.9753 15.7911 -17.4469 -27.9038 
15.2469 -17.3091 -27.9338 13.1912 -17.3127 -28.0235 8.58836 -12.8945 -28.3708 
8.56575 -12.7292 -28.616 8.72915 -12.9537 -28.5062 8.28273 -12.9486 -28.6215 
9.59005 -13.6183 -28.0852 9.60768 -13.295 -28.5104 9.96301 -13.6879 -28.3678 
9.12764 -13.2912 -28.4061 8.91223 -13.63 -28.4861 8.55338 -13.1263 -28.5142 
9.9952 -14.1449 -28.4876 9.19603 -13.8627 -28.4513 9.47634 -14.1973 -28.4598 
10.9841 -14.7683 -28.2312 10.8294 -14.5176 -28.5994 11.1583 -14.6567 -28.4439 
10.5043 -14.8538 -28.2788 10.4273 -14.5488 -28.4827 9.78012 -14.3839 -28.4151 
10.174 -14.7101 -28.4409 11.461 -14.971 -28.5124 11.835 -15.3061 -28.3208 
10.8786 -15.1572 -28.1804 10.6836 -15.1583 -28.4869 10.276 -14.9188 -28.6453 
15.7987 -15.9692 -28.2365 15.3802 -15.8473 -28.1868 13.4384 -16.0654 -28.0938 
12.8306 -15.899 -28.1145 12.4796 -15.9053 -28.3704 12.1943 -15.5884 -28.5007 
11.7371 -15.7177 -28.1363 11.3434 -15.8028 -28.3189 10.9888 -15.5535 -28.5592 
18.7728 -16.2613 -28.6118 19.0357 -16.5769 -28.4813 18.2399 -16.1591 -28.4528 
17.6105 -16.151 -28.4647 16.9778 -16.2536 -28.4265 16.5874 -16.4731 -28.5747 
15.7735 -16.1825 -28.6899 16.1384 -16.4053 -28.3176 15.0178 -16.0947 -28.4876 
14.4523 -16.2539 -28.3888 13.8867 -16.5093 -28.2033 14.3161 -16.5716 -28.5998 
13.3527 -16.5507 -28.1933 12.8311 -16.4263 -28.0429 12.3718 -16.3598 -28.5019 
12.1519 -16.512 -28.3146 11.9093 -16.4271 -28.358 11.5653 -16.1698 -28.551 
18.8724 -16.8607 -28.2392 18.6363 -17.1926 -28.5134 16.4327 -16.6259 -28.3923 
14.9029 -17.1082 -28.3102 14.6313 -16.931 -28.609 13.478 -16.8899 -28.4558 
13.5969 -17.2126 -28.621 12.8642 -17.2149 -28.2146 12.9664 -16.8958 -28.5618 
12.1733 -16.6344 -28.6325 12.6598 -17.0845 -28.5717 18.1985 -17.4041 -28.5556 
17.6006 -17.4678 -28.4869 17.0046 -17.4648 -28.4834 16.5024 -17.4594 -28.4053 
15.961 -17.3657 -28.5365 15.3597 -17.2884 -28.4226 13.3305 -17.408 -28.5132 
12.8588 -17.3702 -28.5127 8.44188 -12.6927 -29.1602 8.78443 -12.9025 -28.8861 
7.96829 -12.8729 -28.8468 8.13927 -12.6895 -28.9231 7.84555 -12.8185 -29.1729 
9.87127 -13.5221 -28.8135 9.61976 -13.3662 -29.0505 9.11774 -13.1739 -29.1249 
8.76489 -13.3005 -28.7319 8.37917 -13.3319 -28.9812 8.00763 -13.0532 -29.1226 
9.82053 -13.7009 -29.3049 10.0351 -14.0037 -28.9445 9.15979 -14.1496 -28.8016 
8.91982 -14.031 -28.9893 8.5831 -13.7578 -29.191 10.8742 -14.868 -28.7434 
10.734 -14.6368 -28.9942 10.4704 -14.3983 -29.1377 9.97464 -14.5683 -28.7309 
9.52843 -14.6484 -28.9733 9.16357 -14.3956 -29.2186 11.5175 -15.0169 -29.1743 
11.9143 -15.192 -28.9693 11.1484 -15.0853 -29.11 10.8761 -15.2951 -28.9469 
10.4615 -14.939 -29.242 9.82261 -14.9339 -29.1518 12.2242 -15.5047 -29.0389 
12.4851 -15.9157 -28.9332 11.227 -15.875 -29.0386 10.9885 -15.5423 -29.1645 
18.7867 -16.2618 -29.2323 19.0541 -16.486 -28.9901 18.2319 -16.181 -29.0672 
17.5884 -16.1834 -29.089 16.9776 -16.2007 -29.1132 16.3007 -16.4575 -28.6921 
16.3533 -16.2692 -29.05 15.6975 -16.1956 -29.2428 15.177 -16.1773 -29.1354 
14.5711 -16.2559 -29.0384 14.2389 -16.4953 -29.1585 12.5813 -16.6363 -28.8335 
12.7697 -16.229 -29.0919 13.0416 -16.6385 -29.2467 11.8745 -16.547 -28.8883 
11.6306 -16.2618 -29.2919 18.9006 -17.0085 -28.7126 18.9999 -16.9031 -29.1496 
15.8165 -16.9739 -29.3564 15.5698 -17.1045 -28.8597 16.0317 -17.1456 -29.0231 
15.1281 -16.9317 -29.1243 15.1016 -17.056 -28.7046 14.5928 -17.118 -28.9385 
14.7197 -17.0779 -29.1012 14.4126 -16.9227 -29.0736 13.3263 -16.894 -28.9715 
13.5429 -17.0975 -28.9791 12.2267 -16.7609 -28.9996 12.53 -17.0508 -29.0096 
18.6095 -17.2975 -29.0324 18.2135 -17.4462 -29.0899 17.7939 -17.3737 -29.1228 
17.1672 -17.3444 -29.0205 16.5109 -17.3082 -28.9598 14.596 -17.192 -29.0939 
13.4342 -17.3249 -28.9904 13.0042 -17.3351 -29.0363 8.47412 -13.0689 -29.345 
8.23027 -12.871 -29.7257 7.97109 -12.6715 -29.656 7.67002 -12.8862 -29.6212 
9.01539 -13.2935 -29.8395 9.45221 -13.55 -29.6631 8.66864 -13.2286 -29.7461 
8.41382 -13.4885 -29.5859 7.87036 -13.0678 -29.7553 9.91887 -13.8105 -29.8495 
10.091 -14.2116 -29.7579 8.85666 -14.0635 -29.6878 8.48659 -13.794 -29.8329 
11.5801 -14.8272 -29.4839 11.5279 -14.4711 -29.8115 11.9177 -14.6509 -29.7089 
10.9297 -14.7548 -29.4236 10.9644 -14.5411 -29.7269 10.4418 -14.4054 -29.6636 
9.42382 -14.701 -29.6083 9.13115 -14.4056 -29.693 12.224 -15.2659 -29.3892 
12.2394 -14.9211 -29.7766 12.4958 -15.2981 -29.7558 11.206 -15.2264 -29.579 
10.9871 -15.3189 -29.3156 10.9006 -14.9264 -29.7375 10.4794 -14.9445 -29.7462 
9.94385 -14.9356 -29.663 12.8048 -15.8959 -29.3949 12.9104 -15.6355 -29.884 
13.1199 -16.1134 -29.823 11.3597 -15.8495 -29.6884 18.8619 -16.1232 -29.7254 
19.0548 -16.5634 -29.716 18.3929 -16.0842 -29.5942 17.6621 -16.1313 -29.6814 
16.9865 -16.2097 -29.7142 16.3984 -16.2161 -29.7237 15.7966 -16.2145 -29.7315 
15.1872 -16.1886 -29.7179 14.6903 -16.1736 -29.6037 13.9822 -16.5737 -29.4638 
14.1127 -16.2217 -29.7537 13.3924 -16.4164 -29.5174 13.5449 -16.3283 -29.7312 
12.1946 -16.3422 -29.7911 12.1694 -16.6652 -29.3521 12.5054 -16.6249 -29.6837 
11.7049 -16.119 -29.8574 18.908 -16.9884 -29.6278 18.7324 -17.1888 -29.4631 
18.6928 -17.2122 -29.8078 17.4133 -17.087 -29.4523 17.8286 -17.1419 -29.6433 
17.5203 -16.8917 -29.8979 17.0062 -16.838 -29.8065 16.8438 -17.0715 -29.3953 
16.3728 -16.8837 -29.7106 16.3427 -17.0458 -29.3105 15.8069 -17.1034 -29.5294 
15.9286 -17.0287 -29.7021 15.6561 -17.0704 -29.6129 15.3042 -16.8907 -29.8057 
14.5301 -16.8917 -29.5871 14.5897 -17.1237 -29.2516 13.8808 -16.7255 -29.7045 
13.4526 -16.6637 -29.7796 13.2501 -17.095 -29.2428 12.7429 -16.9431 -29.41 
12.9332 -16.6882 -29.6929 18.293 -17.3352 -29.678 15.7827 -17.1568 -29.6705 
7.98203 -12.6417 -30.454 8.17049 -12.8174 -30.1472 7.40113 -12.955 -30.0329 
7.48167 -12.7086 -30.1577 7.20999 -12.8643 -30.4295 9.03988 -13.6779 -29.9934 
8.89353 -13.4415 -30.3552 8.67646 -13.234 -30.1707 8.43693 -13.4519 -30.2088 
7.94695 -13.1015 -30.3437 7.40588 -13.0962 -30.3686 11.5782 -14.2109 -30.0727 
11.6169 -13.884 -30.3969 11.9692 -14.1553 -30.2317 10.8813 -14.1277 -30.206 
11.0191 -13.9598 -30.3952 10.3263 -14.0224 -30.0423 10.2859 -13.9033 -30.271 
9.68151 -13.8711 -30.1827 9.30205 -14.1399 -29.9804 9.57757 -14.1938 -30.3337 
8.67017 -13.7459 -30.3695 12.0899 -14.5201 -30.0196 12.2933 -14.4244 -30.3071 
12.3954 -14.8728 -30.2004 11.2531 -14.6599 -30.171 10.8386 -14.7618 -29.9377 
10.9365 -14.3107 -30.3349 10.4735 -14.2064 -30.2766 10.3274 -14.663 -29.8677 
9.69925 -14.5399 -30.0297 9.9039 -14.2691 -30.3321 12.4909 -15.2908 -30.2367 
11.3951 -15.4461 -30.1643 18.6365 -15.8449 -30.0114 18.6808 -15.7063 -30.4502 
18.9908 -16.0236 -30.1344 18.0493 -15.8771 -29.9819 18.1984 -15.6297 -30.3791 
17.5287 -15.9484 -30.0989 17.6221 -15.7123 -30.3726 17.2134 -15.8691 -30.3931 
13.8384 -15.9296 -30.103 14.0331 -15.6695 -30.3132 14.303 -16.0703 -30.3889 
13.402 -15.9298 -30.0296 13.466 -15.5911 -30.1976 12.7099 -15.532 -30.4382 
11.5039 -15.8598 -30.0817 11.8034 -15.9858 -30.2301 11.6535 -15.7106 -30.3684 
19.0659 -16.4109 -30.289 17.0835 -16.0922 -30.1538 16.5273 -16.1388 -30.2251 
15.8913 -16.1785 -30.3127 15.2064 -16.3074 -30.3071 14.6231 -16.1958 -30.1135 
13.634 -16.3592 -30.106 13.2333 -16.4596 -29.8696 13.2834 -16.2167 -30.403 
12.7666 -16.4045 -29.8752 12.7446 -16.2155 -30.1833 12.2397 -16.1251 -30.3258 
18.8994 -17.0453 -29.9594 18.9818 -16.9256 -30.2677 17.8737 -17.1044 -30.0987 
[...]
CELL_DATA 8760
SCALARS scalars float
LOOKUP_TABLE default
2021 2021 2021 2021 2021 2021 2021 2021 2021 
2021 2021 2021 2021 2021 2021 2021 2021 2021 
2021 2021 2021 2021 2021 2021 2021 2021 2021 
2021 2021 2021 2021 2021 2021 2021 2021 2021 
2021 2021 2021 2021 2021 2021 2021 2021 2021 
2021 2021 2021 2021 2021 2021 2021 2021 2021 
2021 2021 2021 2021 2021 2021 2021 2021 2021 
2021 2021 2021 2021 2021 2021 2021 2021 2021 
2021 2021 2021 2021 2021 2021 2021 2021 2021 
2021 2021 2021 2021 2021 2021 2021 2021 2021 
2021 2021 2021 2021 2021 2021 2021 2021 2021 
2021 2021 2021 2021 2021 2021 2021 2021 2021 
2021 2021 2021 2021 2021 2021 2021 2021 2021 
2021 2021 2021 2021 2021 2021 2021 2021 2021 
2021 2021 2021 2021 2021 2021 2021 2021 2021 
2021 2021 2021 2021 2021 2021 2021 2021 2021 
2021 2021 2021 2021 2021 2021 2021 2021 2021 
2021 2021 2021 2021 2021 2021 2021 2021 2021 
2021 2021 2021 2021 2021 2021 2021 2021 2021 
2021 2021 2021 2021 2021 2021 2021 2021 2021 
2021 2021 2021 2021 2021 2021 2021 2021 2021 
2021 2021 2021 2021 2021 2021 2021 2021 2021 
2021 2021 2021 2021 2021 2021 2021 2021 2021 
2021 2021 2021 2021 2021 2021 2021 2021 2021 
2021 2021 2021 2021 2021 2021 2021 2021 2021 
2021 2021 2021 2021 2021 2021 2021 2021 2021 
2021 2021 2021 2021 2021 2021 2021 2021 2021 
2021 2021 2021 2021 2021 2021 2021 2021 2021 
2021 2021 2021 2021 2021 2021 2021 2021 2021 
2021 2021 2021 2021 2021 2021 2021 2021 2021 
2021 2021 2021 2021 2021 2021 2021 2021 2021 
2021 2021 2021 2021 2021 2021 2021 2021 2021 
2021 2021 2021 2021 2021 2021 2021 2021 2021 
2021 2021 2021 2021 2021 2021 2021 2021 2021 
2021 2021 2021 2021 2021 2021 2021 2021 2021 
2021 2021 2021 2021 2021 2021 2021 2021 2021 
2021 2021 2021 2021 2021 2021 2021 2021 2021 
2021 2021 2021 2021 2021 2021 2021 2021 2021 
2021 2021 2021 2021 2021 2021 2021 2021 2021 
2021 2021 2021 2021 2021 2021 2021 2021 2021 
2021 2021 2021 2021 2021 2021 2021 2021 2021 
2021 2021 2021 2021 2021 2021 2021 2021 2021 
2021 2021 2021 2021 2021 2021 2021 2021 2021 
2021 2021 2021 2021 2021 2021 2021 2021 2021 
2021 2021 2021 2021 2021 2021 2021 2021 2021 
2021 2021 2021 2021 2021 2021 2021 2021 2021 
2021 2021 2021 2021 2021 2021 2021 2021 2021 
2021 2021 2021 2021 2021 2021 2021 2021 2021 
2021 2021 2021 2021 2021 2021 2021 2021 2021 
2021 2021 2021 2021 2021 2021 2021 2021 2021 
2021 2021 2021 2021 2021 2021 2021 2021 2021 
2021 2021 2021 2021 2021 2021 2021 2021 2021 
2021 2021 2021 2021 2021 2021 2021 2021 2021 
2021 2021 2021 2021 2021 2021 2021 2021 2021 
2021 2021 2021 2021 2021 2021 2021 2021 2021 
2021 2021 2021 2021 2021 2021 2021 2021 2021 
2021 2021 2021 2021 2021 2021 2021 2021 2021 
2021 2021 2021 2021 2021 2021 2021 2021 2021 
2021 2021 2021 2021 2021 2021 2021 2021 2021 
2021 2021 2021 2021 2021 2021 2021 2021 2021 
2021 2021 2021 2021 2021 2021 2021 2021 2021 
2021 2021 2021 2021 2021 2021 2021 2021 2021 
2021 2021 2021 2021 2021 2021 2021 2021 2021 
2021 2021 2021 2021 2021 2021 2021 2021 2021 
2021 2021 2021 2021 2021 2021 2021 2021 2021 
2021 2021 2021 2021 2021 2021 2021 2021 2021 
2021 2021 2021 2021 2021 2021 2021 2021 2021 
2021 2021 2021 2021 2021 2021 2021 2021 2021 
2021 2021 2021 2021 2021 2021 2021 2021 2021 
2021 2021 2021 2021 2021 2021 2021 2021 2021 
2021 2021 2021 2021 2021 2021 2021 2021 2021 
2021 2021 2021 2021 2021 2021 2021 2021 2021 
2021 2021 2021 2021 2021 2021 2021 2021 2021 
2021 2021 2021 2021 2021 2021 2021 2021 2021 
2021 2021 2021 2021 2021 2021 2021 2021 2021 
2021 2021 2021 2021 2021 2021 2021 2021 2021 
2021 2021 2021 2021 2021 2021 2021 2021 2021 
2021 2021 2021 2021 2021 2021 2021 2021 2021 
2021 2021 2021 2021 2021 2021 2021 2021 2021 
2021 2021 2021 2021 2021 2021 2021 2021 2021 
2021 2021 2021 2021 2021 2021 2021 2021 2021 
2021 2021 2021 2021 2021 2021 2021 2021 2021 
2021 2021 2021 2021 2021 2021 2021 2021 2021 
2021 2021 2021 2021 2021 2021 2021 2021 2021 
2021 2021 2021 2021 2021 2021 2021 2021 2021 
2021 2021 2021 2021 2021 2021 2021 2021 2021 
2021 2021 2021 2021 2021 2021 2021 2021 2021 
2021 2021 2021 2021 2021 2021 2021 2021 2021 
2021 2021 2021 2021 2021 2021 2021 2021 2021 
2021 2021 2021 2021 2021 2021 2021 2021 2021 
2021 2021 2021 2021 2021 2021 2021 2021 2021 
2021 2021 2021 2021 2021 2021 2021 2021 2021 
2021 2021 2021 2021 2021 2021 2021 2021 2021 
2021 2021 2021 2021 2021 2021 2021 2021 2021 
2021 2021 2021 2021 2021 2021 2021 2021 2021 
2021 2021 2021 2021 2021 2021 2021 2021 2021 
2021 2021 2021 2021 2021 2021 2021 2021 2021 
2021 2021 2021 2021 2021 2021 2021 2021 2021 
2021 2021 2021 2021 2021 2021 2021 2021 2021 
2021 2021 2021 2021 2021 2021 2021 2021 2021 
2021 2021 2021 2021 2021 2021 2021 2021 2021 
2021 2021 2021 2021 2021 2021 2021 2021 2021 
2021 2021 2021 2021 2021 2021 2021 2021 2021 
2021 2021 2021 2021 2021 2021 2021 2021 2021 
2021 2021 2021 2021 2021 2021 2021 2021 2021 
2021 2021 2021 2021 2021 2021 2021 2021 2021 
2021 2021 2021 2021 2021 2021 2021 2021 2021 
2021 2021 2021 2021 2021 2021 2021 2021 2021 
2021 2021 2021 2021 2021 2021 2021 2021 2021 
2021 2021 2021 2021 2021 2021 2021 2021 2021 
2021 2021 2021 2021 2021 2021 2021 2021 2021 
2021 2021 2021 2021 2021 2021 2021 2021 2021 
2021 2021 2021 2021 2021 2021 2021 2021 2021 
2021 2021 2021 2021 2021 2021 2021 2021 2021 
2021 2021 2021 2021 2021 2021 2021 2021 2021 
2021 2021 2021 2021 2021 2021 2021 2021 2021 
2021 2021 2021 2021 2021 2021 2021 2021 2021 
2021 2021 2021 2021 2021 2021 2021 2021 2021 
2021 2021 2021 2021 2021 2021 2021 2021 2021 
2021 2021 2021 2021 2021 2021 2021 2021 2021 
2021 2021 2021 2021 2021 2021 2021 2021 2021 
2021 2021 2021 2021 2021 2021 2021 2021 2021 
2021 2021 2021 2021 2021 2021 2021 2021 2021 
2021 2021 2021 2021 2021 2021 2021 2021 2021 
2021 2021 2021 2021 2021 2021 2021 2021 2021 
2021 2021 2021 2021 2021 2021 2021 2021 2021 
2021 2021 2021 2021 2021 2021 2021 2021 2021 
2021 2021 2021 2021 2021 2021 2021 2021 2021 
2021 2021 2021 2021 2021 2021 2021 2021 2021 
2021 2021 2021 2021 2021 2021 2021 2021 2021 
2021 2021 2021 2021 2021 2021 2021 2021 2021 
2021 2021 2021 2021 2021 2021 2021 2021 2021 
2021 2021 2021 2021 2021 2021 2021 2021 2021 
2021 2021 2021 2021 2021 2021 2021 2021 2021 
2021 2021 2021 2021 2021 2021 2021 2021 2021 
2021 2021 2021 2021 2021 2021 2021 2021 2021 
2021 2021 2021 2021 2021 2021 2021 2021 2021 
2021 2021 2021 2021 2021 2021 2021 2021 2021 
2021 2021 2021 2021 2021 2021 2021 2021 2021 
2021 2021 2021 2021 2021 2021 2021 2021 2021 
2021 2021 2021 2021 2021 2021 2021 2021 2021 
2021 2021 2021 2021 2021 2021 2021 2021 2021 
2021 2021 2021 2021 2021 2021 2021 2021 2021 
2021 2021 2021 2021 2021 2021 2021 2021 2021 
2021 2021 2021 2021 2021 2021 2021 2021 2021 
2021 2021 2021 2021 2021 2021 2021 2021 2021 
2021 2021 2021 2021 2021 2021 2021 2021 2021 
2021 2021 2021 2021 2021 2021 2021 2021 2021 
2021 2021 2021 2021 2021 2021 2021 2021 2021 
2021 2021 2021 2021 2021 2021 2021 2021 2021 
2021 2021 2021 2021 2021 2021 2021 2021 2021 
2021 2021 2021 2021 2021 2021 2021 2021 2021 
2021 2021 2021 2021 2021 2021 2021 2021 2021 
2021 2021 2021 2021 2021 2021 2021 2021 2021 
2021 2021 2021 2021 2021 2021 2021 2021 2021 
2021 2021 2021 2021 2021 2021 2021 2021 2021 
2021 2021 2021 2021 2021 2021 2021 2021 2021 
2021 2021 2021 2021 2021 2021 2021 2021 2021 
2021 2021 2021 2021 2021 2021 2021 2021 2021 
2021 2021 2021 2021 2021 2021 2021 2021 2021 
2021 2021 2021 2021 2021 2021 2021 2021 2021 
2021 2021 2021 2021 2021 2021 2021 2021 2021 
2021 2021 2021 2021 2021 2021 2021 2021 2021 
2021 2021 2021 2021 2021 2021 2021 2021 2021 
2021 2021 2021 2021 2021 2021 2021 2021 2021 
2021 2021 2021 2021 2021 2021 2021 2021 2021 
2021 2021 2021 2021 2021 2021 2021 2021 2021 
2021 2021 2021 2021 2021 2021 2021 2021 2021 
2021 2021 2021 2021 2021 2021 2021 2021 2021 
2021 2021 2021 2021 2021 2021 2021 2021 2021 
2021 2021 2021 2021 2021 2021 2021 2021 2021 
2021 2021 2021 2021 2021 2021 2021 2021 2021 
2021 2021 2021 2021 2021 2021 2021 2021 2021 
2021 2021 2021 2021 2021 2021 2021 2021 2021 
2021 2021 2021 2021 2021 2021 2021 2021 2021 
2021 2021 2021 2021 2021 2021 2021 2021 2021 
2021 2021 2021 2021 2021 2021 2021 2021 2021 
2021 2021 2021 2021 2021 2021 2021 2021 2021 
2021 2021 2021 2021 2021 2021 2021 2021 2021 
2021 2021 2021 2021 2021 2021 2021 2021 2021 
2021 2021 2021 2021 2021 2021 2021 2021 2021 
2021 2021 2021 2021 2021 2021 2021 2021 2021 
2021 2021 2021 2021 2021 2021 2021 2021 2021 
2021 2021 2021 2021 2021 2021 2021 2021 2021 
2021 2021 2021 2021 2021 2021 2021 2021 2021 
2021 2021 2021 2021 2021 2021 2021 2021 2021 
2021 2021 2021 2021 2021 2021 2021 2021 2021 
2021 2021 2021 2021 2021 2021 2021 2021 2021 
2021 2021 2021 2021 2021 2021 2021 2021 2021 
2021 2021 2021 2021 2021 2021 2021 2021 2021 
2021 2021 2021 2021 2021 2021 2021 2021 2021 
2021 2021 2021 2021 2021 2021 2021 2021 2021 
2021 2021 2021 2021 2021 2021 2021 2021 2021 
2021 2021 2021 2021 2021 2021 2021 2021 2021 
2021 2021 2021 2021 2021 2021 2021 2021 2021 
2021 2021 2021 2021 2021 2021 2021 2021 2021 
2021 2021 2021 2021 2021 2021 2021 2021 2021 
2021 2021 2021 2021 2021 2021 2021 2021 2021 
2021 2021 2021 2021 2021 2021 2021 2021 2021 
2021 2021 2021 2021 2021 2021 2021 2021 2021 
2021 2021 2021 2021 2021 2021 2021 2021 2021 
2021 2021 2021 2021 2021 2021 2021 2021 2021 
2021 2021 2021 2021 2021 2021 2021 2021 2021 
2021 2021 2021 2021 2021 2021 2021 2021 2021 
2021 2021 2021 2021 2021 2021 2021 2021 2021 
2021 2021 2021 2021 2021 2021 2021 2021 2021 
2021 2021 2021 2021 2021 2021 2021 2021 2021 
2021 2021 2021 2021 2021 2021 2021 2021 2021 
2021 2021 2021 2021 2021 2021 2021 2021 2021 
2021 2021 2021 2021 2021 2021 2021 2021 2021 
2021 2021 2021 2021 2021 2021 2021 2021 2021 
2021 2021 2021 2021 2021 2021 2021 2021 2021 
2021 2021 2021 2021 2021 2021 2021 2021 2021 
2021 2021 2021 2021 2021 2021 2021 2021 2021 
2021 2021 2021 2021 2021 2021 2021 2021 2021 
2021 2021 2021 2021 2021 2021 2021 2021 2021 
2021 2021 2021 2021 2021 2021 2021 2021 2021 
2021 2021 2021 2021 2021 2021 2021 2021 2021 
2021 2021 2021 2021 2021 2021 2021 2021 2021 
2021 2021 2021 2021 2021 2021 2021 2021 2021 
2021 2021 2021 2021 2021 2021 2021 2021 2021 
2021 2021 2021 2021 2021 2021 2021 2021 2021 
2021 2021 2021 2021 2021 2021 2021 2021 2021 
2021 2021 2021 2021 2021 2021 2021 2021 2021 
2021 2021 2021 2021 2021 2021 2021 2021 2021 
2021 2021 2021 2021 2021 2021 2021 2021 2021 
2021 2021 2021 2021 2021 2021 2021 2021 2021 
2021 2021 2021 2021 2021 2021 2021 2021 2021 
2021 2021 2021 2021 2021 2021 2021 2021 2021 
2021 2021 2021 2021 2021 2021 2021 2021 2021 
2021 2021 2021 2021 2021 2021 2021 2021 2021 
2021 2021 2021 2021 2021 2021 2021 2021 2021 
2021 2021 2021 2021 2021 2021 2021 2021 2021 
2021 2021 2021 2021 2021 2021 2021 2021 2021 
2021 2021 2021 2021 2021 2021 2021 2021 2021 
2021 2021 2021 2021 2021 2021 2021 2021 2021 
2021 2021 2021 2021 2021 2021 2021 2021 2021 
2021 2021 2021 2021 2021 2021 2021 2021 2021 
2021 2021 2021 2021 2021 2021 2021 2021 2021 
2021 2021 2021 2021 2021 2021 2021 2021 2021 
2021 2021 2021 2021 2021 2021 2021 2021 2021 
2021 2021 2021 2021 2021 2021 2021 2021 2021 
2021 2021 2021 2021 2021 2021 2021 2021 2021 
2021 2021 2021 2021 2021 2021 2021 2021 2021 
2021 2021 2021 2021 2021 2021 2021 2021 2021 
2021 2021 2021 2021 2021 2021 2021 2021 2021 
2021 2021 2021 2021 2021 2021 2021 2021 2021 
2021 2021 2021 2021 2021 2021 2021 2021 2021 
2021 2021 2021 2021 2021 2021 2021 2021 2021 
2021 2021 2021 2021 2021 2021 2021 2021 2021 
2021 2021 2021 2021 2021 2021 2021 2021 2021 
2021 2021 2021 2021 2021 2021 2021 2021 2021 
2021 2021 2021 2021 2021 2021 2021 2021 2021 
2021 2021 2021 2021 2021 2021 2021 2021 2021 
2021 2021 2021 2021 2021 2021 2021 2021 2021 
2021 2021 2021 2021 2021 2021 2021 2021 2021 
2021 2021 2021 2021 2021 2021 2021 2021 2021 
2021 2021 2021 2021 2021 2021 2021 2021 2021 
2021 2021 2021 2021 2021 2021 2021 2021 2021 
2021 2021 2021 2021 2021 2021 2021 2021 2021 
2021 2021 2021 2021 2021 2021 2021 2021 2021 
2021 2021 2021 2021 2021 2021 2021 2021 2021 
2021 2021 2021 2021 2021 2021 2021 2021 2021 
2021 2021 2021 2021 2021 2021 2021 2021 2021 
2021 2021 2021 2021 2021 2021 2021 2021 2021 
2021 2021 2021 2021 2021 2021 2021 2021 2021 
2021 2021 2021 2021 2021 2021 2021 2021 2021 
2021 2021 2021 2021 2021 2021 2021 2021 2021 
2021 2021 2021 2021 2021 2021 2021 2021 2021 
2021 2021 2021 2021 2021 2021 2021 2021 2021 
2021 2021 2021 2021 2021 2021 2021 2021 2021 
2021 2021 2021 2021 2021 2021 2021 2021 2021 
2021 2021 2021 2021 2021 2021 2021 2021 2021 
2021 2021 2021 2021 2021 2021 2021 2021 2021 
2021 2021 2021 2021 2021 2021 2021 2021 2021 
2021 2021 2021 2021 2021 2021 2021 2021 2021 
2021 2021 2021 2021 2021 2021 2021 2021 2021 
2021 2021 2021 2021 2021 2021 2021 2021 2021 
2021 2021 2021 2021 2021 2021 2021 2021 2021 
2021 2021 2021 2021 2021 2021 2021 2021 2021 
2021 2021 2021 2021 2021 2021 2021 2021 2021 
2021 2021 2021 2021 2021 2021 2021 2021 2021 
2021 2021 2021 2021 2021 2021 2021 2021 2021 
2021 2021 2021 2021 2021 2021 2021 2021 2021 
2021 2021 2021 2021 2021 2021 2021 2021 2021 
2021 2021 2021 2021 2021 2021 2021 2021 2021 
2021 2021 2021 2021 2021 2021 2021 2021 2021 
2021 2021 2021 2021 2021 2021 2021 2021 2021 
2021 2021 2021 2021 2021 2021 2021 2021 2021 
2021 2021 2021 2021 2021 2021 2021 2021 2021 
2021 2021 2021 2021 2021 2021 2021 2021 2021 
2021 2021 2021 2021 2021 2021 2021 2021 2021 
2021 2021 2021 2021 2021 2021 2021 2021 2021 
2021 2021 2021 2021 2021 2021 2021 2021 2021 
2021 2021 2021 2021 2021 2021 2021 2021 2021 
2021 2021 2021 2021 2021 2021 2021 2021 2021 
2021 2021 2021 2021 2021 2021 2021 2021 2021 
2021 2021 2021 2021 2021 2021 2021 2021 2021 
2021 2021 2021 2021 2021 2021 2021 2021 2021 
2021 2021 2021 2021 2021 2021 2021 2021 2021 
2021 2021 2021 2021 2021 2021 2021 2021 2021 
2021 2021 2021 2021 2021 2021 2021 2021 2021 
2021 2021 2021 2021 2021 2021 2021 2021 2021 
2021 2021 2021 2021 2021 2021 2021 2021 2021 
2021 2021 2021 2021 2021 2021 2021 2021 2021 
2021 2021 2021 2021 2021 2021 2021 2021 2021 
2021 2021 2021 2021 2021 2021 2021 2021 2021 
2021 2021 2021 2021 2021 2021 2021 2021 2021 
2021 2021 2021 2021 2021 2021 2021 2021 2021 
2021 2021 2021 2021 2021 2021 2021 2021 2021 
2021 2021 2021 2021 2021 2021 2021 2021 2021 
2021 2021 2021 2021 2021 2021 2021 2021 2021 
2021 2021 2021 2021 2021 2021 2021 2021 2021 
2021 2021 2021 2021 2021 2021 2021 2021 2021 
2021 2021 2021 2021 2021 2021 2021 2021 2021 
2021 2021 2021 2021 2021 2021 2021 2021 2021 
2021 2021 2021 2021 2021 2021 2021 2021 2021 
2021 2021 2021 2021 2021 2021 2021 2021 2021 
2021 2021 2021 2021 2021 2021 2021 2021 2021 
2021 2021 2021 2021 2021 2021 2021 2021 2021 
2021 2021 2021 2021 2021 2021 2021 2021 2021 
2021 2021 2021 2021 2021 2021 2021 2021 2021 
2021 2021 2021 2021 2021 2021 2021 2021 2021 
2021 2021 2021 2021 2021 2021 2021 2021 2021 
2021 2021 2021 2021 2021 2021 2021 2021 2021 
2021 2021 2021 2021 2021 2021 2021 2021 2021 
2021 2021 2021 2021 2021 2021 2021 2021 2021 
2021 2021 2021 2021 2021 2021 2021 2021 2021 
2021 2021 2021 2021 2021 2021 2021 2021 2021 
2021 2021 2021 2021 2021 2021 2021 2021 2021 
2021 2021 2021 2021 2021 2021 2021 2021 2021 
2021 2021 2021 2021 2021 2021 2021 2021 2021 
2021 2021 2021 2021 2021 2021 2021 2021 2021 
2021 2021 2021 2021 2021 2021 2021 2021 2021 
2021 2021 2021 2021 2021 2021 2021 2021 2021 
2021 2021 2021 2021 2021 2021 2021 2021 2021 
2021 2021 2021 2021 2021 2021 2021 2021 2021 
2021 2021 2021 2021 2021 2021 2021 2021 2021 
2021 2021 2021 2021 2021 2021 2021 2021 2021 
2021 2021 2021 2021 2021 2021 2021 2021 2021 
2021 2021 2021 2021 2021 2021 2021 2021 2021 
2021 2021 2021 2021 2021 2021 2021 2021 2021 
2021 2021 2021 2021 2021 2021 2021 2021 2021 
2021 2021 2021 2021 2021 2021 2021 2021 2021 
2021 2021 2021 2021 2021 2021 2021 2021 2021 
2021 2021 2021 2021 2021 2021 2021 2021 2021 
2021 2021 2021 2021 2021 2021 2021 2021 2021 
2021 2021 2021 2021 2021 2021 2021 2021 2021 
2021 2021 2021 2021 2021 2021 2021 2021 2021 
2021 2021 2021 2021 2021 2021 2021 2021 2021 
2021 2021 2021 2021 2021 2021 2021 2021 2021 
2021 2021 2021 2021 2021 2021 2021 2021 2021 
2021 2021 2021 2021 2021 2021 2021 2021 2021 
2021 2021 2021 2021 2021 2021 2021 2021 2021 
2021 2021 2021 2021 2021 2021 2021 2021 2021 
2021 2021 2021 2021 2021 2021 2021 2021 2021 
2021 2021 2021 2021 2021 2021 2021 2021 2021 
2021 2021 2021 2021 2021 2021 2021 2021 2021 
2021 2021 2021 2021 2021 2021 2021 2021 2021 
2021 2021 2021 2021 2021 2021 2021 2021 2021 
2021 2021 2021 2021 2021 2021 2021 2021 2021 
2021 2021 2021 2021 2021 2021 2021 2021 2021 
2021 2021 2021 2021 2021 2021 2021 2021 2021 
2021 2021 2021 2021 2021 2021 2021 2021 2021 
2021 2021 2021 2021 2021 2021 2021 2021 2021 
2021 2021 2021 2021 2021 2021 2021 2021 2021 
2021 2021 2021 2021 2021 2021 2021 2021 2021 
2021 2021 2021 2021 2021 2021 2021 2021 2021 
2021 2021 2021 2021 2021 2021 2021 2021 2021 
2021 2021 2021 2021 2021 2021 2021 2021 2021 
2021 2021 2021 2021 2021 2021 2021 2021 2021 
2021 2021 2021 2021 2021 2021 2021 2021 2021 
2021 2021 2021 2021 2021 2021 2021 2021 2021 
2021 2021 2021 2021 2021 2021 2021 2021 2021 
2021 2021 2021 2021 2021 2021 2021 2021 2021 
2021 2021 2021 2021 2021 2021 2021 2021 2021 
2021 2021 2021 2021 2021 2021 2021 2021 2021 
2021 2021 2021 2021 2021 2021 2021 2021 2021 
2021 2021 2021 2021 2021 2021 2021 2021 2021 
2021 2021 2021 2021 2021 2021 2021 2021 2021 
2021 2021 2021 2021 2021 2021 2021 2021 2021 
2021 2021 2021 2021 2021 2021 2021 2021 2021 
2021 2021 2021 2021 2021 2021 2021 2021 2021 
2021 2021 2021 2021 2021 2021 2021 2021 2021 
2021 2021 2021 2021 2021 2021 2021 2021 2021 
2021 2021 2021 2021 2021 2021 2021 2021 2021 
2021 2021 2021 2021 2021 2021 2021 2021 2021 
2021 2021 2021 2021 2021 2021 2021 2021 2021 
2021 2021 2021 2021 2021 2021 2021 2021 2021 
2021 2021 2021 2021 2021 2021 2021 2021 2021 
2021 2021 2021 2021 2021 2021 2021 2021 2021 
2021 2021 2021 2021 2021 2021 2021 2021 2021 
2021 2021 2021 2021 2021 2021 2021 2021 2021 
2021 2021 2021 2021 2021 2021 2021 2021 2021 
2021 2021 2021 2021 2021 2021 2021 2021 2021 
2021 2021 2021 2021 2021 2021 2021 2021 2021 
2021 2021 2021 2021 2021 2021 2021 2021 2021 
2021 2021 2021 2021 2021 2021 2021 2021 2021 
2021 2021 2021 2021 2021 2021 2021 2021 2021 
2021 2021 2021 2021 2021 2021 2021 2021 2021 
2021 2021 2021 2021 2021 2021 2021 2021 2021 
2021 2021 2021 2021 2021 2021 2021 2021 2021 
2021 2021 2021 2021 2021 2021 2021 2021 2021 
2021 2021 2021 2021 2021 2021 2021 2021 2021 
2021 2021 2021 2021 2021 2021 2021 2021 2021 
2021 2021 2021 2021 2021 2021 2021 2021 2021 
2021 2021 2021 2021 2021 2021 2021 2021 2021 
2021 2021 2021 2021 2021 2021 2021 2021 2021 
2021 2021 2021 2021 2021 2021 2021 2021 2021 
2021 2021 2021 2021 2021 2021 2021 2021 2021 
2021 2021 2021 2021 2021 2021 2021 2021 2021 
2021 2021 2021 2021 2021 2021 2021 2021 2021 
2021 2021 2021 2021 2021 2021 2021 2021 2021 
2021 2021 2021 2021 2021 2021 2021 2021 2021 
2021 2021 2021 2021 2021 2021 2021 2021 2021 
2021 2021 2021 2021 2021 2021 2021 2021 2021 
2021 2021 2021 2021 2021 2021 2021 2021 2021 
2021 2021 2021 2021 2021 2021 2021 2021 2021 
2021 2021 2021 2021 2021 2021 2021 2021 2021 
2021 2021 2021 2021 2021 2021 2021 2021 2021 
2021 2021 2021 2021 2021 2021 2021 2021 2021 
2021 2021 2021 2021 2021 2021 2021 2021 2021 
2021 2021 2021 2021 2021 2021 2021 2021 2021 
2021 2021 2021 2021 2021 2021 2021 2021 2021 
2021 2021 2021 2021 2021 2021 2021 2021 2021 
2021 2021 2021 2021 2021 2021 2021 2021 2021 
2021 2021 2021 2021 2021 2021 2021 2021 2021 
2021 2021 2021 2021 2021 2021 2021 2021 2021 
2021 2021 2021 2021 2021 2021 2021 2021 2021 
2021 2021 2021 2021 2021 2021 2021 2021 2021 
2021 2021 2021 2021 2021 2021 2021 2021 2021 
2021 2021 2021 2021 2021 2021 2021 2021 2021 
2021 2021 2021 2021 2021 2021 2021 2021 2021 