# vtk DataFile Version 4.2
vtk output
ASCII
DATASET POLYDATA
POINTS 17200 float
59.0995 26.8627 25.2809 59.388 26.4734 25.867 59.8711 26.6055 25.3649 
58.2499 26.7842 25.2888 58.5761 26.5299 25.9509 57.8802 26.4691 25.6029 
59.9666 26.87 24.5643 60.4899 26.4625 24.9383 60.8034 26.5334 24.1718 
59.2866 27.0464 24.5293 58.6081 26.871 24.455 57.8199 26.5209 24.8173 
60.3102 26.9236 23.3779 61.0216 26.6171 23.4219 59.3345 26.9276 23.6322 
58.6277 26.6103 23.5755 58.1062 26.4621 24.0589 60.9552 26.8896 22.5349 
61.3436 26.5363 23.004 61.7213 26.5022 22.2978 60.1205 27.0704 22.3013 
59.4573 26.9156 22.48 58.791 26.551 22.7484 61.3436 26.9604 21.3401 
62.0369 26.6649 21.3711 60.297 27.0863 21.4667 59.4229 26.9441 21.4565 
58.7811 26.5494 21.7269 62.1053 26.7869 20.7162 62.4434 26.4053 21.0432 
62.6293 26.2004 20.3396 61.499 26.8981 20.4884 60.5819 26.9447 20.5956 
59.5947 26.8693 20.6006 58.7395 26.3494 20.5604 62.0043 26.5336 20.0372 
61.048 26.5666 19.9796 60.0197 26.551 19.9728 59.2443 26.3775 19.9612 
62.3711 26.7876 16.1807 62.4828 26.4836 16.7727 62.8862 26.6381 16.3579 
61.9707 26.4609 16.5949 62.9679 26.8011 15.6085 63.3729 26.3987 16.1 
63.5841 26.2991 15.6199 62.302 26.8732 15.3875 61.7987 26.5404 15.7896 
63.3791 26.4266 14.9332 63.0992 26.6172 14.3469 62.4063 26.8562 14.4233 
61.7597 26.5402 14.8282 62.9959 26.8675 13.5718 63.5025 26.4728 13.9274 
63.7814 26.5384 13.1874 62.1454 27.0472 13.3359 61.4942 26.5699 14.0581 
61.253 26.8525 13.357 60.8732 26.4235 13.6101 63.2168 26.9104 12.5191 
63.8899 26.548 12.2337 62.3318 27.0632 12.5308 61.3029 27.056 12.4694 
60.3539 26.5837 13.1314 60.2841 26.8814 12.5661 59.5338 26.7096 12.1966 
59.6017 26.5086 12.9215 59.0143 26.4063 12.648 63.2386 26.9011 11.5164 
63.8668 26.3986 11.2187 62.3703 27.0449 11.5298 61.3483 27.0394 11.4613 
60.2901 26.8768 11.5455 59.6073 26.5356 11.5218 59.1128 26.4076 12.0424 
58.2693 26.497 11.8274 58.6794 26.4385 11.2884 58.186 26.6735 11.3143 
57.9358 26.4524 11.6286 63.2145 26.9072 10.5349 63.6887 26.5221 10.3582 
62.3475 27.044 10.5232 61.3311 27.0276 10.4525 60.2482 26.8697 10.3787 
59.7392 26.4732 10.7782 58.3824 26.779 10.3621 58.9735 26.5632 10.3717 
57.7781 26.5187 10.7849 63.191 26.8321 9.60906 63.6758 26.1918 9.46908 
62.3227 27.0458 9.51502 61.2875 27.0497 9.46235 60.2443 27.0291 9.42492 
59.4773 26.5504 10.1796 59.1321 26.9159 9.54202 58.2571 26.8861 9.29372 
57.7732 26.545 9.72021 63.1991 26.6086 8.92298 62.9007 26.5634 8.14018 
62.3619 26.9501 8.514 61.2884 27.0629 8.44005 60.2651 27.045 8.42121 
59.2603 27.0404 8.42343 58.3788 26.9227 8.4329 57.7546 26.5508 8.68672 
62.1719 26.8567 7.49217 62.7165 26.5392 7.52666 61.4404 27.0556 7.59789 
60.5424 26.9468 7.36395 59.5009 26.8998 7.53363 58.5697 26.8441 7.5683 
57.8217 26.5401 7.74095 62.4266 26.4391 6.93712 61.9013 26.3667 6.34658 
61.401 26.821 6.75812 60.6803 26.6237 6.57203 59.9369 26.5498 6.82655 
58.9806 26.5197 6.93432 58.1527 26.4625 7.08393 61.1494 26.2037 6.16087 
59.2069 25.8294 28.2192 59.522 25.5224 28.7762 59.9606 25.6342 28.413 
58.7525 25.2879 28.3583 60.0001 25.8554 27.5801 60.4122 25.3799 28.1175 
60.6511 25.3913 27.3771 59.1073 26.0557 27.4062 58.1909 25.5261 28.0661 
58.1431 25.9624 27.5425 57.2515 25.8206 27.2934 57.4776 25.5916 27.8188 
56.9705 25.3463 27.5091 60.4503 25.8914 26.4973 60.9836 25.4612 26.5024 
59.4263 26.1644 26.5393 58.2129 26.1837 26.4759 57.359 25.9271 26.5187 
56.8519 25.4018 26.7774 61.0796 25.826 25.6744 61.3951 25.355 26.0256 
61.592 25.365 25.3935 60.2946 26.2055 25.6323 57.3543 26.0527 25.4008 
56.7294 25.3797 25.768 61.1584 26.0214 24.7621 61.6934 25.3821 24.462 
57.4118 26.0367 24.2105 56.7436 25.5547 24.7206 61.4993 26.1285 23.5211 
61.9689 25.449 23.5246 58.0543 26.1925 23.2792 57.3009 25.8386 23.3182 
56.7646 25.5343 23.7158 62.1458 25.8927 22.6561 62.3868 25.3481 23.0206 
62.6138 25.3994 22.3888 58.2911 26.2089 22.3119 57.6227 25.8337 22.398 
56.7836 25.3043 22.5886 62.3496 26.1346 21.7705 62.7315 25.5915 21.3792 
58.1699 26.0327 21.3525 57.6823 25.4255 21.3927 57.2487 25.329 21.9136 
62.9709 25.4178 20.4467 58.2517 25.9304 20.543 57.9785 25.3908 20.522 
62.3485 26.0893 19.3054 63.0046 25.7247 19.5451 61.3325 26.1701 19.367 
60.4491 26.191 19.4789 59.5908 25.963 19.3296 58.7363 25.5067 19.4578 
58.2655 25.5107 19.9534 63.0069 25.8391 18.5493 63.4096 25.3703 19.0651 
63.6393 25.362 18.3752 62.1539 26.0138 18.3409 61.3247 26.0005 18.4968 
60.3111 25.8876 18.6305 59.6019 25.5748 18.586 59.1783 25.3723 18.904 
63.2967 25.8297 17.6844 63.84 25.4102 17.3483 62.345 26.1231 17.3877 
61.2808 26.0171 17.4733 60.4067 25.8468 17.496 59.7608 25.4041 17.6014 
63.1799 26.1087 16.8299 63.8515 25.7112 16.1923 61.287 26.1437 16.3692 
60.4264 25.8552 16.4416 59.944 25.5084 16.6157 63.9776 25.7782 15.3205 
61.1509 26.138 15.1842 60.4422 25.8063 15.4103 59.9511 25.3291 15.7076 
64.0751 25.8845 14.5986 64.4207 25.3387 15.0361 64.6124 25.3414 14.4127 
63.5844 26.2747 14.3545 61.039 26.19 14.2464 60.2334 25.8409 14.3788 
59.7814 25.2539 14.7953 58.1622 25.7898 14.147 58.581 25.2367 14.6971 
58.8903 25.5736 14.2989 57.7838 25.344 14.6877 64.1702 26.0275 13.7746 
64.7026 25.3821 13.5019 60.2018 26.1899 13.5888 59.4626 25.5451 14.2324 
59.0998 26.0156 13.5811 58.1011 26.0374 13.3337 57.2095 25.4162 14.1475 
57.4151 25.855 13.4536 56.8068 25.41 13.4925 64.373 26.0574 12.7622 
64.7016 25.3721 12.506 58.3859 26.2134 12.283 57.4408 25.9068 12.5324 
56.8223 25.526 12.7478 64.3592 25.9661 11.8189 64.6275 25.164 11.4544 
59.1942 26.2524 11.4108 57.4215 26.0098 11.419 56.8136 25.4908 11.7681 
64.2758 25.7091 11.0589 64.0223 25.7618 10.3245 59.2512 26.2897 10.6939 
57.2969 25.9981 10.2367 56.8187 25.4606 10.7447 63.9667 25.3155 9.31076 
57.2947 25.9874 9.20119 56.8288 25.4335 9.73466 63.4296 26.2069 8.59721 
63.7176 25.6086 8.5229 57.2774 25.9954 8.18439 56.8116 25.4322 8.73403 
54.2244 25.6813 8.43562 54.1371 25.3415 8.74147 54.5235 25.4937 8.32345 
53.7876 25.308 8.24207 63.2265 26.0445 7.70883 63.6677 25.1543 7.44185 
57.4381 26.0019 7.16246 56.7683 25.469 7.71501 54.1773 25.4552 8.03986 
63.0947 25.7154 6.89805 62.5054 25.9772 6.47799 62.8555 25.5647 6.45386 
60.3639 26.2111 6.35712 59.5356 26.0445 6.43429 58.3606 26.0133 6.52561 
57.4859 25.7639 6.44285 56.8316 25.4987 6.76942 54.077 25.906 6.5643 
54.0253 25.4671 6.81935 54.5286 25.416 6.21734 53.5401 25.8709 6.31183 
53.5231 25.6456 6.84701 53.0603 25.3798 6.63681 62.2208 25.5323 6.00224 
61.0699 25.3519 5.80403 60.2976 25.6587 6.07052 59.2111 25.4294 5.95395 
58.0071 25.5185 5.9432 57.1739 25.4432 6.11194 54.2565 25.856 5.80249 
54.6377 25.3047 5.2339 53.829 25.4271 5.58247 53.2564 25.3025 6.22843 
54.258 25.4619 4.98172 59.23 24.7564 31.2998 59.1206 24.3187 31.9904 
59.7411 24.5351 31.3468 58.8051 24.3989 31.554 59.2652 24.8955 30.3064 
60.0323 24.642 30.4176 58.7451 24.5838 30.8167 60.0576 24.8508 29.6789 
60.442 24.3575 30.0683 60.6255 24.3729 29.4094 59.2405 25.1999 29.2125 
58.4513 24.6372 30.0462 58.4141 24.8589 29.3951 57.9464 24.2579 29.6802 
60.1786 25.1242 28.8577 60.8345 24.5773 28.3244 58.4293 24.9918 28.7428 
57.807 24.3398 28.8369 61.0311 24.792 27.2572 58.1218 24.957 27.5298 
58.7475 24.5262 27.2756 58.4516 24.4063 28.107 57.3292 24.776 27.9253 
57.6444 24.4028 27.5484 56.7894 24.5497 27.4529 61.2719 24.9466 26.6022 
61.3761 24.3537 27.0685 61.6283 24.5362 26.3447 58.3465 24.7277 26.7019 
58.6177 24.4775 26.5245 57.9207 24.309 26.6501 56.6062 24.4231 26.5219 
61.8019 24.5094 25.4173 58.3979 24.2846 25.9903 56.3141 24.6089 25.8035 
56.2449 24.9608 25.1432 56.01 24.274 25.4772 61.9807 24.6137 24.4041 
56.2463 25.0576 24.2096 55.8982 24.3506 24.7463 62.2616 24.9362 23.6088 
62.3615 24.3424 24.05 62.6364 24.5552 23.3398 56.2622 25.0354 23.2105 
55.7711 24.3612 23.7531 62.8171 24.5397 22.4367 56.2506 24.9181 22.5652 
55.8384 24.5352 22.7802 62.9942 24.6359 21.4022 57.3734 24.9149 21.3236 
56.8615 24.7684 21.6846 56.2158 24.6078 22.1202 63.2261 24.8477 20.5454 
63.3455 24.3326 21.0455 63.5898 24.3838 20.3915 57.6448 24.5964 20.5159 
57.1704 24.4323 21.0475 63.3321 25.0976 19.7956 63.8322 24.5826 19.3129 
58.2446 24.9987 19.4358 57.9667 24.5634 19.5658 64.0473 24.7897 18.2439 
59.276 25.0609 18.1681 58.7688 24.6108 18.4656 58.2749 24.4926 18.9446 
64.2746 24.8465 17.5225 64.422 24.3687 18.0488 64.6189 24.3483 17.4018 
59.3985 24.8247 17.3804 59.0441 24.3316 17.5592 64.3299 24.9961 16.7129 
64.6757 24.3581 16.491 59.6421 24.8146 16.4835 59.2838 24.272 16.8634 
64.3699 25.094 15.7766 64.7121 24.5298 15.4162 59.623 24.5764 15.4798 
57.3849 24.8186 15.1761 57.5314 24.2026 15.7099 57.7989 24.5055 15.5043 
56.9879 24.2519 15.464 64.8227 24.4979 14.4464 59.195 24.7133 14.9557 
59.1973 25.2027 14.5352 58.3121 24.6654 15.1775 57.247 25.1943 14.6368 
56.7672 24.5184 14.7582 64.8225 24.5138 13.4532 56.3138 24.9464 13.1188 
56.3101 24.5283 13.9749 55.8246 24.3636 13.4777 64.7958 24.4814 12.4578 
56.1693 24.996 12.1831 55.7581 24.4999 12.804 54.1453 24.8079 12.1539 
54.2206 24.2191 12.8856 54.9123 24.5797 12.3261 53.6344 24.37 12.6061 
64.784 24.3263 11.6139 60.229 24.7544 11.3209 60.704 24.5271 11.3115 
60.3198 24.5597 11.8434 59.9753 24.4926 11.6549 56.183 25.098 11.1931 
55.5189 24.5958 12.2346 55.182 24.9199 11.5906 54.1108 25.0664 11.3251 
53.3575 24.62 12.1493 53.3571 24.8541 11.4623 52.862 24.2453 11.7133 
64.3927 25.2083 10.5852 64.6743 24.4953 10.5815 60.2913 24.8122 10.4495 
60.8106 24.627 10.1085 59.8152 24.5644 10.7904 56.2256 25.0716 10.2117 
55.3444 24.9742 10.4893 54.4583 25.0364 10.6778 53.5755 24.9027 10.5638 
52.8422 24.2457 10.6238 64.3071 24.9547 9.84236 64.6116 24.1654 9.40611 
60.3965 24.7543 9.59986 60.7263 24.5912 9.40765 60.0352 24.4389 9.75597 
56.2073 25.0714 9.23304 55.4935 24.9588 9.64023 54.2467 24.9166 9.63783 
53.2396 24.4171 9.81539 53.4898 24.5145 9.44828 64.2313 24.6495 9.09296 
63.9937 24.5662 8.28574 60.6275 24.276 9.18241 56.1537 25.0919 8.21844 
55.1534 25.1015 8.62178 53.3887 24.9247 8.5183 53.4695 24.7115 9.03905 
[...]
CELL_DATA 34616
SCALARS scalars float
LOOKUP_TABLE default
2022 2022 2022 2022 2022 2022 2022 2022 2022 
2022 2022 2022 2022 2022 2022 2022 2022 2022 
2022 2022 2022 2022 2022 2022 2022 2022 2022 
2022 2022 2022 2022 2022 2022 2022 2022 2022 
2022 2022 2022 2022 2022 2022 2022 2022 2022 
2022 2022 2022 2022 2022 2022 2022 2022 2022 
2022 2022 2022 2022 2022 2022 2022 2022 2022 
2022 2022 2022 2022 2022 2022 2022 2022 2022 
2022 2022 2022 2022 2022 2022 2022 2022 2022 
2022 2022 2022 2022 2022 2022 2022 2022 2022 
2022 2022 2022 2022 2022 2022 2022 2022 2022 
2022 2022 2022 2022 2022 2022 2022 2022 2022 
2022 2022 2022 2022 2022 2022 2022 2022 2022 
2022 2022 2022 2022 2022 2022 2022 2022 2022 
2022 2022 2022 2022 2022 2022 2022 2022 2022 
2022 2022 2022 2022 2022 2022 2022 2022 2022 
2022 2022 2022 2022 2022 2022 2022 2022 2022 
2022 2022 2022 2022 2022 2022 2022 2022 2022 
2022 2022 2022 2022 2022 2022 2022 2022 2022 
2022 2022 2022 2022 2022 2022 2022 2022 2022 
2022 2022 2022 2022 2022 2022 2022 2022 2022 
2022 2022 2022 2022 2022 2022 2022 2022 2022 
2022 2022 2022 2022 2022 2022 2022 2022 2022 
2022 2022 2022 2022 2022 2022 2022 2022 2022 
2022 2022 2022 2022 2022 2022 2022 2022 2022 
2022 2022 2022 2022 2022 2022 2022 2022 2022 
2022 2022 2022 2022 2022 2022 2022 2022 2022 
2022 2022 2022 2022 2022 2022 2022 2022 2022 
2022 2022 2022 2022 2022 2022 2022 2022 2022 
2022 2022 2022 2022 2022 2022 2022 2022 2022 
2022 2022 2022 2022 2022 2022 2022 2022 2022 
2022 2022 2022 2022 2022 2022 2022 2022 2022 
2022 2022 2022 2022 2022 2022 2022 2022 2022 
2022 2022 2022 2022 2022 2022 2022 2022 2022 
2022 2022 2022 2022 2022 2022 2022 2022 2022 
2022 2022 2022 2022 2022 2022 2022 2022 2022 
2022 2022 2022 2022 2022 2022 2022 2022 2022 
2022 2022 2022 2022 2022 2022 2022 2022 2022 
2022 2022 2022 2022 2022 2022 2022 2022 2022 
2022 2022 2022 2022 2022 2022 2022 2022 2022 
2022 2022 2022 2022 2022 2022 2022 2022 2022 
2022 2022 2022 2022 2022 2022 2022 2022 2022 
2022 2022 2022 2022 2022 2022 2022 2022 2022 
2022 2022 2022 2022 2022 2022 2022 2022 2022 
2022 2022 2022 2022 2022 2022 2022 2022 2022 
2022 2022 2022 2022 2022 2022 2022 2022 2022 
2022 2022 2022 2022 2022 2022 2022 2022 2022 
2022 2022 2022 2022 2022 2022 2022 2022 2022 
2022 2022 2022 2022 2022 2022 2022 2022 2022 
2022 2022 2022 2022 2022 2022 2022 2022 2022 
2022 2022 2022 2022 2022 2022 2022 2022 2022 
2022 2022 2022 2022 2022 2022 2022 2022 2022 
2022 2022 2022 2022 2022 2022 2022 2022 2022 
2022 2022 2022 2022 2022 2022 2022 2022 2022 
2022 2022 2022 2022 2022 2022 2022 2022 2022 
2022 2022 2022 2022 2022 2022 2022 2022 2022 
2022 2022 2022 2022 2022 2022 2022 2022 2022 
2022 2022 2022 2022 2022 2022 2022 2022 2022 
2022 2022 2022 2022 2022 2022 2022 2022 2022 
2022 2022 2022 2022 2022 2022 2022 2022 2022 
2022 2022 2022 2022 2022 2022 2022 2022 2022 
2022 2022 2022 2022 2022 2022 2022 2022 2022 
2022 2022 2022 2022 2022 2022 2022 2022 2022 
2022 2022 2022 2022 2022 2022 2022 2022 2022 
2022 2022 2022 2022 2022 2022 2022 2022 2022 
2022 2022 2022 2022 2022 2022 2022 2022 2022 
2022 2022 2022 2022 2022 2022 2022 2022 2022 
2022 2022 2022 2022 2022 2022 2022 2022 2022 
2022 2022 2022 2022 2022 2022 2022 2022 2022 
2022 2022 2022 2022 2022 2022 2022 2022 2022 
2022 2022 2022 2022 2022 2022 2022 2022 2022 
2022 2022 2022 2022 2022 2022 2022 2022 2022 
2022 2022 2022 2022 2022 2022 2022 2022 2022 
2022 2022 2022 2022 2022 2022 2022 2022 2022 
2022 2022 2022 2022 2022 2022 2022 2022 2022 
2022 2022 2022 2022 2022 2022 2022 2022 2022 
2022 2022 2022 2022 2022 2022 2022 2022 2022 
2022 2022 2022 2022 2022 2022 2022 2022 2022 
2022 2022 2022 2022 2022 2022 2022 2022 2022 
2022 2022 2022 2022 2022 2022 2022 2022 2022 
2022 2022 2022 2022 2022 2022 2022 2022 2022 
2022 2022 2022 2022 2022 2022 2022 2022 2022 
2022 2022 2022 2022 2022 2022 2022 2022 2022 
2022 2022 2022 2022 2022 2022 2022 2022 2022 
2022 2022 2022 2022 2022 2022 2022 2022 2022 
2022 2022 2022 2022 2022 2022 2022 2022 2022 
2022 2022 2022 2022 2022 2022 2022 2022 2022 
2022 2022 2022 2022 2022 2022 2022 2022 2022 
2022 2022 2022 2022 2022 2022 2022 2022 2022 
2022 2022 2022 2022 2022 2022 2022 2022 2022 
2022 2022 2022 2022 2022 2022 2022 2022 2022 
2022 2022 2022 2022 2022 2022 2022 2022 2022 
2022 2022 2022 2022 2022 2022 2022 2022 2022 
2022 2022 2022 2022 2022 2022 2022 2022 2022 
2022 2022 2022 2022 2022 2022 2022 2022 2022 
2022 2022 2022 2022 2022 2022 2022 2022 2022 
2022 2022 2022 2022 2022 2022 2022 2022 2022 
2022 2022 2022 2022 2022 2022 2022 2022 2022 
2022 2022 2022 2022 2022 2022 2022 2022 2022 
2022 2022 2022 2022 2022 2022 2022 2022 2022 
2022 2022 2022 2022 2022 2022 2022 2022 2022 
2022 2022 2022 2022 2022 2022 2022 2022 2022 
2022 2022 2022 2022 2022 2022 2022 2022 2022 
2022 2022 2022 2022 2022 2022 2022 2022 2022 
2022 2022 2022 2022 2022 2022 2022 2022 2022 
2022 2022 2022 2022 2022 2022 2022 2022 2022 
2022 2022 2022 2022 2022 2022 2022 2022 2022 
2022 2022 2022 2022 2022 2022 2022 2022 2022 
2022 2022 2022 2022 2022 2022 2022 2022 2022 
2022 2022 2022 2022 2022 2022 2022 2022 2022 
2022 2022 2022 2022 2022 2022 2022 2022 2022 
2022 2022 2022 2022 2022 2022 2022 2022 2022 
2022 2022 2022 2022 2022 2022 2022 2022 2022 
2022 2022 2022 2022 2022 2022 2022 2022 2022 
2022 2022 2022 2022 2022 2022 2022 2022 2022 
2022 2022 2022 2022 2022 2022 2022 2022 2022 
2022 2022 2022 2022 2022 2022 2022 2022 2022 
2022 2022 2022 2022 2022 2022 2022 2022 2022 
2022 2022 2022 2022 2022 2022 2022 2022 2022 
2022 2022 2022 2022 2022 2022 2022 2022 2022 
2022 2022 2022 2022 2022 2022 2022 2022 2022 
2022 2022 2022 2022 2022 2022 2022 2022 2022 
2022 2022 2022 2022 2022 2022 2022 2022 2022 
2022 2022 2022 2022 2022 2022 2022 2022 2022 
2022 2022 2022 2022 2022 2022 2022 2022 2022 
2022 2022 2022 2022 2022 2022 2022 2022 2022 
2022 2022 2022 2022 2022 2022 2022 2022 2022 
2022 2022 2022 2022 2022 2022 2022 2022 2022 
2022 2022 2022 2022 2022 2022 2022 2022 2022 
2022 2022 2022 2022 2022 2022 2022 2022 2022 
2022 2022 2022 2022 2022 2022 2022 2022 2022 
2022 2022 2022 2022 2022 2022 2022 2022 2022 
2022 2022 2022 2022 2022 2022 2022 2022 2022 
2022 2022 2022 2022 2022 2022 2022 2022 2022 
2022 2022 2022 2022 2022 2022 2022 2022 2022 
2022 2022 2022 2022 2022 2022 2022 2022 2022 
2022 2022 2022 2022 2022 2022 2022 2022 2022 
2022 2022 2022 2022 2022 2022 2022 2022 2022 
2022 2022 2022 2022 2022 2022 2022 2022 2022 
2022 2022 2022 2022 2022 2022 2022 2022 2022 
2022 2022 2022 2022 2022 2022 2022 2022 2022 
2022 2022 2022 2022 2022 2022 2022 2022 2022 
2022 2022 2022 2022 2022 2022 2022 2022 2022 
2022 2022 2022 2022 2022 2022 2022 2022 2022 
2022 2022 2022 2022 2022 2022 2022 2022 2022 
2022 2022 2022 2022 2022 2022 2022 2022 2022 
2022 2022 2022 2022 2022 2022 2022 2022 2022 
2022 2022 2022 2022 2022 2022 2022 2022 2022 
2022 2022 2022 2022 2022 2022 2022 2022 2022 
2022 2022 2022 2022 2022 2022 2022 2022 2022 
2022 2022 2022 2022 2022 2022 2022 2022 2022 
2022 2022 2022 2022 2022 2022 2022 2022 2022 
2022 2022 2022 2022 2022 2022 2022 2022 2022 
2022 2022 2022 2022 2022 2022 2022 2022 2022 
2022 2022 2022 2022 2022 2022 2022 2022 2022 
2022 2022 2022 2022 2022 2022 2022 2022 2022 
2022 2022 2022 2022 2022 2022 2022 2022 2022 
2022 2022 2022 2022 2022 2022 2022 2022 2022 
2022 2022 2022 2022 2022 2022 2022 2022 2022 
2022 2022 2022 2022 2022 2022 2022 2022 2022 
2022 2022 2022 2022 2022 2022 2022 2022 2022 
2022 2022 2022 2022 2022 2022 2022 2022 2022 
2022 2022 2022 2022 2022 2022 2022 2022 2022 
2022 2022 2022 2022 2022 2022 2022 2022 2022 
2022 2022 2022 2022 2022 2022 2022 2022 2022 
2022 2022 2022 2022 2022 2022 2022 2022 2022 
2022 2022 2022 2022 2022 2022 2022 2022 2022 
2022 2022 2022 2022 2022 2022 2022 2022 2022 
2022 2022 2022 2022 2022 2022 2022 2022 2022 
2022 2022 2022 2022 2022 2022 2022 2022 2022 
2022 2022 2022 2022 2022 2022 2022 2022 2022 
2022 2022 2022 2022 2022 2022 2022 2022 2022 
2022 2022 2022 2022 2022 2022 2022 2022 2022 
2022 2022 2022 2022 2022 2022 2022 2022 2022 
2022 2022 2022 2022 2022 2022 2022 2022 2022 
2022 2022 2022 2022 2022 2022 2022 2022 2022 
2022 2022 2022 2022 2022 2022 2022 2022 2022 
2022 2022 2022 2022 2022 2022 2022 2022 2022 
2022 2022 2022 2022 2022 2022 2022 2022 2022 
2022 2022 2022 2022 2022 2022 2022 2022 2022 
2022 2022 2022 2022 2022 2022 2022 2022 2022 
2022 2022 2022 2022 2022 2022 2022 2022 2022 
2022 2022 2022 2022 2022 2022 2022 2022 2022 
2022 2022 2022 2022 2022 2022 2022 2022 2022 
2022 2022 2022 2022 2022 2022 2022 2022 2022 
2022 2022 2022 2022 2022 2022 2022 2022 2022 
2022 2022 2022 2022 2022 2022 2022 2022 2022 
2022 2022 2022 2022 2022 2022 2022 2022 2022 
2022 2022 2022 2022 2022 2022 2022 2022 2022 
2022 2022 2022 2022 2022 2022 2022 2022 2022 
2022 2022 2022 2022 2022 2022 2022 2022 2022 
2022 2022 2022 2022 2022 2022 2022 2022 2022 
2022 2022 2022 2022 2022 2022 2022 2022 2022 
2022 2022 2022 2022 2022 2022 2022 2022 2022 
2022 2022 2022 2022 2022 2022 2022 2022 2022 
2022 2022 2022 2022 2022 2022 2022 2022 2022 
2022 2022 2022 2022 2022 2022 2022 2022 2022 
2022 2022 2022 2022 2022 2022 2022 2022 2022 
2022 2022 2022 2022 2022 2022 2022 2022 2022 
2022 2022 2022 2022 2022 2022 2022 2022 2022 
2022 2022 2022 2022 2022 2022 2022 2022 2022 
2022 2022 2022 2022 2022 2022 2022 2022 2022 
2022 2022 2022 2022 2022 2022 2022 2022 2022 
2022 2022 2022 2022 2022 2022 2022 2022 2022 
2022 2022 2022 2022 2022 2022 2022 2022 2022 
2022 2022 2022 2022 2022 2022 2022 2022 2022 
2022 2022 2022 2022 2022 2022 2022 2022 2022 
2022 2022 2022 2022 2022 2022 2022 2022 2022 
2022 2022 2022 2022 2022 2022 2022 2022 2022 
2022 2022 2022 2022 2022 2022 2022 2022 2022 
2022 2022 2022 2022 2022 2022 2022 2022 2022 
2022 2022 2022 2022 2022 2022 2022 2022 2022 
2022 2022 2022 2022 2022 2022 2022 2022 2022 
2022 2022 2022 2022 2022 2022 2022 2022 2022 
2022 2022 2022 2022 2022 2022 2022 2022 2022 
2022 2022 2022 2022 2022 2022 2022 2022 2022 
2022 2022 2022 2022 2022 2022 2022 2022 2022 
2022 2022 2022 2022 2022 2022 2022 2022 2022 
2022 2022 2022 2022 2022 2022 2022 2022 2022 
2022 2022 2022 2022 2022 2022 2022 2022 2022 
2022 2022 2022 2022 2022 2022 2022 2022 2022 
2022 2022 2022 2022 2022 2022 2022 2022 2022 
2022 2022 2022 2022 2022 2022 2022 2022 2022 
2022 2022 2022 2022 2022 2022 2022 2022 2022 
2022 2022 2022 2022 2022 2022 2022 2022 2022 
2022 2022 2022 2022 2022 2022 2022 2022 2022 
2022 2022 2022 2022 2022 2022 2022 2022 2022 
2022 2022 2022 2022 2022 2022 2022 2022 2022 
2022 2022 2022 2022 2022 2022 2022 2022 2022 
2022 2022 2022 2022 2022 2022 2022 2022 2022 
2022 2022 2022 2022 2022 2022 2022 2022 2022 
2022 2022 2022 2022 2022 2022 2022 2022 2022 
2022 2022 2022 2022 2022 2022 2022 2022 2022 
2022 2022 2022 2022 2022 2022 2022 2022 2022 
2022 2022 2022 2022 2022 2022 2022 2022 2022 
2022 2022 2022 2022 2022 2022 2022 2022 2022 
2022 2022 2022 2022 2022 2022 2022 2022 2022 
2022 2022 2022 2022 2022 2022 2022 2022 2022 
2022 2022 2022 2022 2022 2022 2022 2022 2022 
2022 2022 2022 2022 2022 2022 2022 2022 2022 
2022 2022 2022 2022 2022 2022 2022 2022 2022 
2022 2022 2022 2022 2022 2022 2022 2022 2022 
2022 2022 2022 2022 2022 2022 2022 2022 2022 
2022 2022 2022 2022 2022 2022 2022 2022 2022 
2022 2022 2022 2022 2022 2022 2022 2022 2022 
2022 2022 2022 2022 2022 2022 2022 2022 2022 
2022 2022 2022 2022 2022 2022 2022 2022 2022 
2022 2022 2022 2022 2022 2022 2022 2022 2022 
2022 2022 2022 2022 2022 2022 2022 2022 2022 
2022 2022 2022 2022 2022 2022 2022 2022 2022 
2022 2022 2022 2022 2022 2022 2022 2022 2022 
2022 2022 2022 2022 2022 2022 2022 2022 2022 
2022 2022 2022 2022 2022 2022 2022 2022 2022 
2022 2022 2022 2022 2022 2022 2022 2022 2022 
2022 2022 2022 2022 2022 2022 2022 2022 2022 
2022 2022 2022 2022 2022 2022 2022 2022 2022 
2022 2022 2022 2022 2022 2022 2022 2022 2022 
2022 2022 2022 2022 2022 2022 2022 2022 2022 
2022 2022 2022 2022 2022 2022 2022 2022 2022 
2022 2022 2022 2022 2022 2022 2022 2022 2022 
2022 2022 2022 2022 2022 2022 2022 2022 2022 
2022 2022 2022 2022 2022 2022 2022 2022 2022 
2022 2022 2022 2022 2022 2022 2022 2022 2022 
2022 2022 2022 2022 2022 2022 2022 2022 2022 
2022 2022 2022 2022 2022 2022 2022 2022 2022 
2022 2022 2022 2022 2022 2022 2022 2022 2022 
2022 2022 2022 2022 2022 2022 2022 2022 2022 
2022 2022 2022 2022 2022 2022 2022 2022 2022 
2022 2022 2022 2022 2022 2022 2022 2022 2022 
2022 2022 2022 2022 2022 2022 2022 2022 2022 
2022 2022 2022 2022 2022 2022 2022 2022 2022 
2022 2022 2022 2022 2022 2022 2022 2022 2022 
2022 2022 2022 2022 2022 2022 2022 2022 2022 
2022 2022 2022 2022 2022 2022 2022 2022 2022 
2022 2022 2022 2022 2022 2022 2022 2022 2022 
2022 2022 2022 2022 2022 2022 2022 2022 2022 
2022 2022 2022 2022 2022 2022 2022 2022 2022 
2022 2022 2022 2022 2022 2022 2022 2022 2022 
2022 2022 2022 2022 2022 2022 2022 2022 2022 
2022 2022 2022 2022 2022 2022 2022 2022 2022 
2022 2022 2022 2022 2022 2022 2022 2022 2022 
2022 2022 2022 2022 2022 2022 2022 2022 2022 
2022 2022 2022 2022 2022 2022 2022 2022 2022 
2022 2022 2022 2022 2022 2022 2022 2022 2022 
2022 2022 2022 2022 2022 2022 2022 2022 2022 
2022 2022 2022 2022 2022 2022 2022 2022 2022 
2022 2022 2022 2022 2022 2022 2022 2022 2022 
2022 2022 2022 2022 2022 2022 2022 2022 2022 
2022 2022 2022 2022 2022 2022 2022 2022 2022 
2022 2022 2022 2022 2022 2022 2022 2022 2022 
2022 2022 2022 2022 2022 2022 2022 2022 2022 
2022 2022 2022 2022 2022 2022 2022 2022 2022 
2022 2022 2022 2022 2022 2022 2022 2022 2022 
2022 2022 2022 2022 2022 2022 2022 2022 2022 
2022 2022 2022 2022 2022 2022 2022 2022 2022 
2022 2022 2022 2022 2022 2022 2022 2022 2022 
2022 2022 2022 2022 2022 2022 2022 2022 2022 
2022 2022 2022 2022 2022 2022 2022 2022 2022 
2022 2022 2022 2022 2022 2022 2022 2022 2022 
2022 2022 2022 2022 2022 2022 2022 2022 2022 
2022 2022 2022 2022 2022 2022 2022 2022 2022 
2022 2022 2022 2022 2022 2022 2022 2022 2022 
2022 2022 2022 2022 2022 2022 2022 2022 2022 
2022 2022 2022 2022 2022 2022 2022 2022 2022 
2022 2022 2022 2022 2022 2022 2022 2022 2022 
2022 2022 2022 2022 2022 2022 2022 2022 2022 
2022 2022 2022 2022 2022 2022 2022 2022 2022 
2022 2022 2022 2022 2022 2022 2022 2022 2022 
2022 2022 2022 2022 2022 2022 2022 2022 2022 
2022 2022 2022 2022 2022 2022 2022 2022 2022 
2022 2022 2022 2022 2022 2022 2022 2022 2022 
2022 2022 2022 2022 2022 2022 2022 2022 2022 
2022 2022 2022 2022 2022 2022 2022 2022 2022 
2022 2022 2022 2022 2022 2022 2022 2022 2022 
2022 2022 2022 2022 2022 2022 2022 2022 2022 
2022 2022 2022 2022 2022 2022 2022 2022 2022 
2022 2022 2022 2022 2022 2022 2022 2022 2022 
2022 2022 2022 2022 2022 2022 2022 2022 2022 
2022 2022 2022 2022 2022 2022 2022 2022 2022 
2022 2022 2022 2022 2022 2022 2022 2022 2022 
2022 2022 2022 2022 2022 2022 2022 2022 2022 
2022 2022 2022 2022 2022 2022 2022 2022 2022 
2022 2022 2022 2022 2022 2022 2022 2022 2022 
2022 2022 2022 2022 2022 2022 2022 2022 2022 
2022 2022 2022 2022 2022 2022 2022 2022 2022 
2022 2022 2022 2022 2022 2022 2022 2022 2022 
2022 2022 2022 2022 2022 2022 2022 2022 2022 
2022 2022 2022 2022 2022 2022 2022 2022 2022 
2022 2022 2022 2022 2022 2022 2022 2022 2022 
2022 2022 2022 2022 2022 2022 2022 2022 2022 
2022 2022 2022 2022 2022 2022 2022 2022 2022 
2022 2022 2022 2022 2022 2022 2022 2022 2022 
2022 2022 2022 2022 2022 2022 2022 2022 2022 
2022 2022 2022 2022 2022 2022 2022 2022 2022 
2022 2022 2022 2022 2022 2022 2022 2022 2022 
2022 2022 2022 2022 2022 2022 2022 2022 2022 
2022 2022 2022 2022 2022 2022 2022 2022 2022 
2022 2022 2022 2022 2022 2022 2022 2022 2022 
2022 2022 2022 2022 2022 2022 2022 2022 2022 
2022 2022 2022 2022 2022 2022 2022 2022 2022 
2022 2022 2022 2022 2022 2022 2022 2022 2022 
2022 2022 2022 2022 2022 2022 2022 2022 2022 
2022 2022 2022 2022 2022 2022 2022 2022 2022 
2022 2022 2022 2022 2022 2022 2022 2022 2022 
2022 2022 2022 2022 2022 2022 2022 2022 2022 
2022 2022 2022 2022 2022 2022 2022 2022 2022 
2022 2022 2022 2022 2022 2022 2022 2022 2022 
2022 2022 2022 2022 2022 2022 2022 2022 2022 
2022 2022 2022 2022 2022 2022 2022 2022 2022 
2022 2022 2022 2022 2022 2022 2022 2022 2022 
2022 2022 2022 2022 2022 2022 2022 2022 2022 
2022 2022 2022 2022 2022 2022 2022 2022 2022 
2022 2022 2022 2022 2022 2022 2022 2022 2022 
2022 2022 2022 2022 2022 2022 2022 2022 2022 
2022 2022 2022 2022 2022 2022 2022 2022 2022 
2022 2022 2022 2022 2022 2022 2022 2022 2022 
2022 2022 2022 2022 2022 2022 2022 2022 2022 
2022 2022 2022 2022 2022 2022 2022 2022 2022 
2022 2022 2022 2022 2022 2022 2022 2022 2022 
2022 2022 2022 2022 2022 2022 2022 2022 2022 
2022 2022 2022 2022 2022 2022 2022 2022 2022 
2022 2022 2022 2022 2022 2022 2022 2022 2022 
2022 2022 2022 2022 2022 2022 2022 2022 2022 
2022 2022 2022 2022 2022 2022 2022 2022 2022 
2022 2022 2022 2022 2022 2022 2022 2022 2022 
2022 2022 2022 2022 2022 2022 2022 2022 2022 
2022 2022 2022 2022 2022 2022 2022 2022 2022 
2022 2022 2022 2022 2022 2022 2022 2022 2022 
2022 2022 2022 2022 2022 2022 2022 2022 2022 
2022 2022 2022 2022 2022 2022 2022 2022 2022 
2022 2022 2022 2022 2022 2022 2022 2022 2022 
2022 2022 2022 2022 2022 2022 2022 2022 2022 
2022 2022 2022 2022 2022 2022 2022 2022 2022 
2022 2022 2022 2022 2022 2022 2022 2022 2022 
2022 2022 2022 2022 2022 2022 2022 2022 2022 
2022 2022 2022 2022 2022 2022 2022 2022 2022 
2022 2022 2022 2022 2022 2022 2022 2022 2022 
2022 2022 2022 2022 2022 2022 2022 2022 2022 
2022 2022 2022 2022 2022 2022 2022 2022 2022 
2022 2022 2022 2022 2022 2022 2022 2022 2022 
2022 2022 2022 2022 2022 2022 2022 2022 2022 
2022 2022 2022 2022 2022 2022 2022 2022 2022 
2022 2022 2022 2022 2022 2022 2022 2022 2022 
2022 2022 2022 2022 2022 2022 2022 2022 2022 
2022 2022 2022 2022 2022 2022 2022 2022 2022 
2022 2022 2022 2022 2022 2022 2022 2022 2022 
2022 2022 2022 2022 2022 2022 2022 2022 2022 
2022 2022 2022 2022 2022 2022 2022 2022 2022 
2022 2022 2022 2022 2022 2022 2022 2022 2022 
2022 2022 2022 2022 2022 2022 2022 2022 2022 
2022 2022 2022 2022 2022 2022 2022 2022 2022 
2022 2022 2022 2022 2022 2022 2022 2022 2022 
2022 2022 2022 2022 2022 2022 2022 2022 2022 
2022 2022 2022 2022 2022 2022 2022 2022 2022 
2022 2022 2022 2022 2022 2022 2022 2022 2022 
2022 2022 2022 2022 2022 2022 2022 2022 2022 
2022 2022 2022 2022 2022 2022 2022 2022 2022 
2022 2022 2022 2022 2022 2022 2022 2022 2022 
2022 2022 2022 2022 2022 2022 2022 2022 2022 
2022 2022 2022 2022 2022 2022 2022 2022 2022 
2022 2022 2022 2022 2022 2022 2022 2022 2022 
2022 2022 2022 2022 2022 2022 2022 2022 2022 
2022 2022 2022 2022 2022 2022 2022 2022 2022 
2022 2022 2022 2022 2022 2022 2022 2022 2022 
2022 2022 2022 2022 2022 2022 2022 2022 2022 
2022 2022 2022 2022 2022 2022 2022 2022 2022 
2022 2022 2022 2022 2022 2022 2022 2022 2022 
2022 2022 2022 2022 2022 2022 2022 2022 2022 
2022 2022 2022 2022 2022 2022 2022 2022 2022 
2022 2022 2022 2022 2022 2022 2022 2022 2022 
2022 2022 2022 2022 2022 2022 2022 2022 2022 
2022 2022 2022 2022 2022 2022 2022 2022 2022 
2022 2022 2022 2022 2022 2022 2022 2022 2022 
2022 2022 2022 2022 2022 2022 2022 2022 2022 
2022 2022 2022 2022 2022 2022 2022 2022 2022 
2022 2022 2022 2022 2022 2022 2022 2022 2022 
2022 2022 2022 2022 2022 2022 2022 2022 2022 
2022 2022 2022 2022 2022 2022 2022 2022 2022 
2022 2022 2022 2022 2022 2022 2022 2022 2022 
2022 2022 2022 2022 2022 2022 2022 2022 2022 
2022 2022 2022 2022 2022 2022 2022 2022 2022 
2022 2022 2022 2022 2022 2022 2022 2022 2022 
2022 2022 2022 2022 2022 2022 2022 2022 2022 
2022 2022 2022 2022 2022 2022 2022 2022 2022 
2022 2022 2022 2022 2022 2022 2022 2022 2022 
2022 2022 2022 2022 2022 2022 2022 2022 2022 
2022 2022 2022 2022 2022 2022 2022 2022 2022 
2022 2022 2022 2022 2022 2022 2022 2022 2022 
2022 2022 2022 2022 2022 2022 2022 2022 2022 
2022 2022 2022 2022 2022 2022 2022 2022 2022 
2022 2022 2022 2022 2022 2022 2022 2022 2022 
2022 2022 2022 2022 2022 2022 2022 2022 2022 
2022 2022 2022 2022 2022 2022 2022 2022 2022 