# vtk DataFile Version 4.2
vtk output
ASCII
DATASET POLYDATA
POINTS 5082 float
0.0595093 -3.45686 7.10432 0.139407 -2.9764 6.7528 0.392816 -3.32877 6.89646 
-0.16636 -3.25748 6.85609 0.206973 -3.7673 7.13391 0.445148 -3.8413 6.85693 
-0.303708 -3.56473 6.99379 -0.186996 -3.86783 7.099 -0.547641 -3.81559 6.88639 
-2.24489 -3.90055 7.03858 -2.13971 -3.73148 6.93433 -2.08813 -3.99924 6.94861 
-2.3845 -3.82698 6.75156 0.00357971 -4.16232 6.95808 -0.452133 -4.12484 6.88311 
-2.28007 -4.14547 6.87569 0.231638 -2.64562 6.51623 0.256512 -2.39608 6.24605 
0.42084 -2.73651 6.38194 0.010025 -2.61817 6.37361 0.65029 -3.40444 6.26725 
-0.608038 -3.40557 6.65891 -0.301639 -2.97557 6.49106 -1.18771 -3.3722 6.52781 
-0.835236 -2.99177 6.3173 -1.72587 -3.26473 6.53026 -1.45525 -2.97298 6.30036 
-2.14417 -3.43605 6.64606 -2.16086 -2.96666 6.21494 -2.51708 -3.43363 6.25995 
0.733813 -3.91478 6.56522 0.857474 -3.68295 6.33519 0.99689 -4.06727 6.30457 
-0.96102 -4.00054 6.67795 -1.72361 -3.80638 6.7218 -2.53378 -3.88572 6.34621 
0.777731 -4.50901 6.5662 1.07231 -4.59175 6.33363 0.244427 -4.46584 6.72442 
-0.490054 -4.53282 6.70032 -1.11096 -4.61603 6.60971 -1.52017 -4.40052 6.63892 
-2.03235 -4.49995 6.63295 -2.49811 -4.31266 6.35583 0.77916 -5.07829 6.5124 
1.00314 -4.9526 6.1539 0.242349 -5.11904 6.64948 -0.28656 -5.03137 6.6401 
-0.864514 -5.14482 6.54712 -1.52964 -4.97373 6.51971 -1.93203 -5.13495 6.26114 
-2.35383 -4.8197 6.12873 0.671896 -5.34976 6.21723 0.35972 -5.68217 6.26599 
0.24549 -5.66717 6.54826 -0.385547 -5.65496 6.56364 -0.833102 -5.66745 6.37821 
-1.24482 -5.4459 6.33223 -1.65561 -5.41373 6.24193 0.0973114 -5.99306 6.4149 
-0.117297 -6.30123 6.26992 -0.288721 -6.30027 6.5252 -0.704663 -6.24722 6.27221 
-0.357111 -6.81614 6.4881 -0.214417 -6.98159 6.18792 -0.571426 -6.88507 6.28272 
-0.439993 -7.20414 6.28712 0.0156189 -2.16753 5.97914 0.199924 -1.76185 5.62685 
0.416217 -2.14759 5.7739 -0.503842 -2.24854 5.89664 -0.32309 -1.77718 5.60271 
-0.72106 -2.04842 5.63667 0.643478 -2.83254 5.67267 -0.418826 -2.60946 6.14797 
-0.93847 -2.3038 5.76965 -1.04593 -2.62156 6.02216 -1.76575 -2.68261 6.0157 
-1.53813 -2.39492 5.66363 -2.17943 -2.66862 5.95387 -2.17465 -2.50419 5.64224 
-2.53084 -2.66669 5.72594 0.774399 -3.19832 5.87367 0.81839 -3.11572 5.73204 
0.850644 -3.26777 5.73612 -2.76693 -3.37302 5.85335 -2.70419 -3.0013 5.86425 
-2.95941 -3.16873 5.65106 0.84548 -3.87114 6.01026 0.658566 -3.43647 5.66454 
0.486291 -3.86609 5.58004 -2.68576 -3.85205 5.92871 -2.91295 -3.53969 5.65073 
0.777182 -4.22184 5.58976 1.01789 -4.42635 5.89654 -2.79107 -4.28751 5.83413 
-2.73722 -4.59129 5.96053 -3.00867 -4.44804 5.54561 0.774811 -4.80557 5.61826 
0.839612 -5.11736 5.96992 0.52132 -5.128 5.69294 -1.91894 -5.1158 5.7227 
-2.37503 -4.88489 5.62966 -2.76297 -4.73941 5.65672 0.31322 -5.45535 5.87225 
0.145844 -5.81367 6.10574 -0.0188324 -5.66429 5.64641 -1.10267 -5.89834 6.14366 
-1.55844 -5.79467 6.03177 -1.81669 -5.73499 5.7446 -0.120016 -6.31191 5.75032 
-1.01347 -6.33423 5.96892 -1.42889 -6.22196 5.88524 -1.82148 -6.25781 5.63454 
-0.10849 -6.84783 5.68131 -0.831967 -6.79629 5.89023 -1.23311 -6.64561 5.71535 
-1.65797 -6.58523 5.6117 -0.35528 -7.47006 6.0275 -0.178308 -7.52357 5.64557 
-0.704224 -7.46391 5.72499 -0.41759 -7.81844 5.65778 0.0304779 -1.47239 5.38804 
0.249161 -1.28433 5.09721 0.486713 -1.66956 5.24394 -0.329077 -1.46398 5.37967 
-0.345905 -1.18846 5.02623 -0.686362 -1.49306 5.12984 0.643277 -2.21212 5.29059 
-1.1813 -2.10653 5.4702 -0.98584 -1.79902 5.2033 -1.65357 -2.15709 5.31937 
-1.55811 -1.93096 5.04265 -1.96128 -2.07523 4.9979 0.744818 -2.61169 5.2769 
0.842184 -2.35488 5.02907 0.925653 -2.67618 4.92558 -2.16512 -2.30193 5.1821 
-3.03362 -2.76811 5.45809 -2.7847 -2.44466 5.14712 -3.5527 -2.82955 5.31059 
-3.41785 -2.49205 5.0113 -3.80565 -2.61275 5.03599 0.738474 -2.91158 5.1692 
0.756335 -3.20198 5.58169 0.58255 -3.29681 5.10845 -3.26137 -3.31954 5.47765 
-3.94328 -2.91334 5.17948 -3.82252 -3.36216 5.29674 -4.21413 -3.21187 4.93465 
0.292374 -3.72385 5.17312 0.163074 -3.88623 5.26989 0.0423523 -4.05753 4.9315 
-3.04015 -3.95189 5.51127 -3.47462 -3.76954 5.3329 -3.79051 -3.84401 5.17416 
-4.08442 -3.67187 5.04988 0.828717 -4.50136 5.48914 0.180634 -4.11414 5.17668 
0.481265 -4.41949 5.27419 -1.69003 -4.66954 5.31931 -1.39249 -4.54911 5.08222 
-1.6365 -4.18369 4.93496 -1.92685 -4.45966 5.01852 -3.37191 -4.22267 5.00039 
-3.01731 -4.58383 5.23165 0.283264 -4.83031 5.22049 0.1487 -5.18644 5.42249 
-0.0548035 -5.05046 4.993 -1.53128 -5.03329 5.41809 -1.34405 -5.12044 5.07164 
-2.12905 -4.75514 5.27564 -2.63533 -4.72112 5.19656 -0.140918 -5.682 5.09405 
-1.59278 -5.53653 5.4116 -1.41246 -5.6712 4.91775 -0.116336 -6.30429 5.14084 
-1.67276 -5.95622 5.17835 -1.87485 -6.2639 5.12655 -0.0922668 -6.92646 5.15339 
-1.10312 -7.11328 5.53889 -1.57248 -6.99408 5.40999 -1.90075 -6.75303 5.1447 
-0.0909576 -7.44593 5.05963 -1.07557 -7.46459 5.40217 -1.42718 -7.44117 5.28377 
-1.83241 -7.45937 4.97468 -0.335138 -8.06964 5.38281 -0.189725 -8.02508 5.04266 
-0.661469 -8.16403 5.16333 -1.15115 -7.83261 5.18348 -1.55982 -7.74988 5.10272 
-0.379239 -8.29198 5.09249 0.701413 -0.877405 4.69728 0.842578 -0.58537 4.45091 
1.02181 -0.923859 4.43857 0.153928 -0.955774 4.84465 0.368802 -0.583044 4.55708 
-0.354758 -0.896429 4.78705 -0.355884 -0.598114 4.43896 -0.717508 -0.893921 4.52039 
0.717975 -1.31576 4.82654 1.04747 -1.4838 4.44259 -1.1006 -1.54585 4.76652 
-1.01437 -1.20233 4.49683 -1.37487 -1.45341 4.39853 0.826492 -1.89792 4.88173 
1.04767 -2.1599 4.55699 -1.49424 -1.69194 4.65726 -2.3122 -2.14971 4.74547 
-2.14057 -1.81349 4.45467 -2.58593 -2.07816 4.39018 1.15984 -2.64716 4.40568 
-2.71341 -2.28002 4.6543 -3.36926 -2.32879 4.48071 -4.10188 -2.75144 4.88073 
-3.97581 -2.47863 4.54308 -4.36353 -2.78698 4.51725 0.85936 -3.01503 4.58459 
0.579868 -3.3351 4.40111 -4.4563 -3.22072 4.52599 0.355829 -3.85396 4.45656 
0.143033 -3.89965 4.82377 -1.56875 -3.86548 4.72135 -1.33569 -3.95566 4.6205 
-1.56709 -3.65934 4.39655 -1.87206 -3.87356 4.52997 -3.95889 -3.99088 4.89047 
-4.30865 -3.7331 4.63755 0.0758881 -4.48015 4.92956 0.101889 -4.15004 4.59206 
-0.0268524 -4.62067 4.47249 -1.2512 -4.50249 4.5667 -2.11507 -4.19033 4.6667 
-2.38639 -4.50933 4.84796 -2.81286 -4.22679 4.49488 -2.87121 -4.5 4.8824 
-3.48582 -4.24072 4.39953 -4.05273 -4.15721 4.4405 -0.147739 -5.18859 4.5565 
-1.26422 -5.12318 4.49978 -0.143719 -5.69743 4.49377 -1.36844 -5.64316 4.33358 
-0.116931 -6.3098 4.51448 -1.62541 -6.05934 4.65845 -1.86202 -6.42328 4.52742 
-0.0926971 -6.92243 4.5374 -1.86412 -6.98945 4.52768 -0.0906006 -7.54001 4.53201 
-1.87793 -7.53025 4.50109 -0.145129 -8.19924 4.36889 -1.06556 -8.21285 4.9384 
-1.56745 -8.11794 4.82862 -2.18196 -7.81886 4.47242 -2.23001 -8.08654 4.69082 
-2.70922 -8.1085 4.65461 -2.80005 -7.90053 4.47506 -3.17678 -8.14244 4.36772 
-0.435141 -8.47781 4.73209 -0.941483 -8.556 4.71606 -0.623099 -8.82211 4.42028 
-1.34657 -8.63555 4.56841 -1.82032 -8.45818 4.56636 -2.3818 -8.39077 4.55511 
-2.84423 -8.37808 4.4699 -1.0517 -8.92688 4.29326 0.639349 -0.28103 4.20542 
0.840207 -0.106165 3.76874 1.02144 -0.441431 4.03776 0.0476807 -0.280627 4.255 
0.368051 0.0294067 3.83568 -0.376657 -0.297217 4.19271 -0.374725 0.00457764 3.8294 
-0.728229 -0.307507 3.91577 1.136 -0.891907 3.91393 -1.02619 -0.901593 4.1979 
-1.01944 -0.606995 3.89745 -1.31392 -0.901556 3.88956 1.12364 -1.52503 3.92777 
-1.80431 -1.49839 4.21935 -1.54552 -1.20206 4.0271 -2.15493 -1.50297 4.10137 
-2.0368 -1.24299 3.86573 -2.42534 -1.45632 3.91665 1.19822 -2.21497 3.89295 
-3.03031 -2.12272 4.20238 -2.73617 -1.80891 4.03669 -3.49359 -2.16361 4.04312 
-3.23067 -1.86196 3.86261 -3.68854 -2.01736 3.80824 1.40088 -2.63244 4.06483 
1.40476 -2.57259 3.8077 1.49791 -2.72728 3.89747 -3.92994 -2.27816 4.03075 
-4.64947 -2.92007 4.16866 -4.44452 -2.44239 4.00899 -4.81318 -2.58481 3.75366 
1.22092 -2.87637 3.98719 0.800327 -3.1214 4.00606 0.567068 -3.40341 3.88789 
-1.13278 -3.45994 4.10778 -0.816614 -3.24089 3.71878 -1.01007 -2.97426 3.72385 
-1.33669 -3.23061 3.82989 -4.63408 -3.48225 4.24068 -4.9385 -3.14874 3.81338 
0.486438 -3.83383 3.78934 -0.951443 -3.53099 3.85176 -1.15506 -3.89174 3.97101 
-1.54897 -3.44724 4.01853 -2.12306 -3.59561 3.94196 -2.39094 -3.91121 4.24734 
-2.77067 -3.72951 3.808 -2.85244 -3.95966 4.08824 -3.15631 -3.86768 3.79963 
-4.52742 -3.94458 4.23082 -4.88392 -3.75936 3.93883 0.200748 -4.41194 4.24228 
0.38378 -4.38519 3.78856 -1.26508 -4.48547 3.91495 -3.28434 -4.10073 4.06085 
-3.94601 -4.17176 3.91776 -4.6555 -4.15267 3.85981 0.142978 -4.73296 3.94036 
-0.0605438 -5.11534 3.95188 -1.3532 -5.06798 3.85454 -0.126041 -5.69833 3.87777 
-1.44963 -5.5751 3.88298 -0.118854 -6.30558 3.90311 -1.61526 -5.98933 4.10173 
-1.80851 -6.32102 3.91549 -0.101962 -6.91541 3.92903 -1.65357 -6.87404 4.14101 
-1.42454 -7.06893 3.94887 -1.60583 -6.66476 3.73919 -0.0900513 -7.53349 3.93005 
-1.60972 -7.33577 4.20927 -1.38598 -7.47116 3.74505 -0.0727112 -8.05672 3.82964 
-1.79416 -7.74046 3.95597 -2.31136 -7.82193 3.81761 -2.84242 -7.79862 3.95829 
-3.49897 -8.10279 4.1177 -3.31954 -7.90891 4.07123 -3.63068 -8.12827 3.73727 
-0.325122 -8.70944 4.27938 -0.1577 -8.62623 3.81395 -1.63813 -8.8523 4.30427 
-2.11436 -8.73728 4.34805 -2.61324 -8.82025 4.2079 -3.12516 -8.60618 4.10642 
-3.50019 -8.40566 3.94801 -0.557382 -8.9759 3.94956 -0.980969 -9.05193 3.89851 
-1.58892 -8.98352 3.79601 -2.07131 -9.30101 3.82822 -2.11903 -9.14828 4.08328 
-2.45458 -9.26656 3.95898 -2.85487 -9.04228 3.72296 -2.2203 -9.42048 3.92567 
0.0114349 0.308972 3.60283 0.320929 0.504904 3.16473 0.478729 0.291559 3.43596 
-0.382846 0.312881 3.58514 -0.328033 0.626514 3.16388 -0.724072 0.298764 3.31924 
0.806442 0.123825 3.35235 1.07524 -0.268048 3.36133 -1.04096 -0.318311 3.58424 
-1.02777 -0.0138794 3.28207 -1.31914 -0.308917 3.27191 1.12762 -0.87496 3.29189 
-1.79288 -0.90498 3.60481 -1.5343 -0.596045 3.41553 -2.38296 -0.993393 3.55581 
[...]
CELL_DATA 10168
SCALARS scalars float
LOOKUP_TABLE default
1023 1023 1023 1023 1023 1023 1023 1023 1023 
1023 1023 1023 1023 1023 1023 1023 1023 1023 
1023 1023 1023 1023 1023 1023 1023 1023 1023 
1023 1023 1023 1023 1023 1023 1023 1023 1023 
1023 1023 1023 1023 1023 1023 1023 1023 1023 
1023 1023 1023 1023 1023 1023 1023 1023 1023 
1023 1023 1023 1023 1023 1023 1023 1023 1023 
1023 1023 1023 1023 1023 1023 1023 1023 1023 
1023 1023 1023 1023 1023 1023 1023 1023 1023 
1023 1023 1023 1023 1023 1023 1023 1023 1023 
1023 1023 1023 1023 1023 1023 1023 1023 1023 
1023 1023 1023 1023 1023 1023 1023 1023 1023 
1023 1023 1023 1023 1023 1023 1023 1023 1023 
1023 1023 1023 1023 1023 1023 1023 1023 1023 
1023 1023 1023 1023 1023 1023 1023 1023 1023 
1023 1023 1023 1023 1023 1023 1023 1023 1023 
1023 1023 1023 1023 1023 1023 1023 1023 1023 
1023 1023 1023 1023 1023 1023 1023 1023 1023 
1023 1023 1023 1023 1023 1023 1023 1023 1023 
1023 1023 1023 1023 1023 1023 1023 1023 1023 
1023 1023 1023 1023 1023 1023 1023 1023 1023 
1023 1023 1023 1023 1023 1023 1023 1023 1023 
1023 1023 1023 1023 1023 1023 1023 1023 1023 
1023 1023 1023 1023 1023 1023 1023 1023 1023 
1023 1023 1023 1023 1023 1023 1023 1023 1023 
1023 1023 1023 1023 1023 1023 1023 1023 1023 
1023 1023 1023 1023 1023 1023 1023 1023 1023 
1023 1023 1023 1023 1023 1023 1023 1023 1023 
1023 1023 1023 1023 1023 1023 1023 1023 1023 
1023 1023 1023 1023 1023 1023 1023 1023 1023 
1023 1023 1023 1023 1023 1023 1023 1023 1023 
1023 1023 1023 1023 1023 1023 1023 1023 1023 
1023 1023 1023 1023 1023 1023 1023 1023 1023 
1023 1023 1023 1023 1023 1023 1023 1023 1023 
1023 1023 1023 1023 1023 1023 1023 1023 1023 
1023 1023 1023 1023 1023 1023 1023 1023 1023 
1023 1023 1023 1023 1023 1023 1023 1023 1023 
1023 1023 1023 1023 1023 1023 1023 1023 1023 
1023 1023 1023 1023 1023 1023 1023 1023 1023 
1023 1023 1023 1023 1023 1023 1023 1023 1023 
1023 1023 1023 1023 1023 1023 1023 1023 1023 
1023 1023 1023 1023 1023 1023 1023 1023 1023 
1023 1023 1023 1023 1023 1023 1023 1023 1023 
1023 1023 1023 1023 1023 1023 1023 1023 1023 
1023 1023 1023 1023 1023 1023 1023 1023 1023 
1023 1023 1023 1023 1023 1023 1023 1023 1023 
1023 1023 1023 1023 1023 1023 1023 1023 1023 
1023 1023 1023 1023 1023 1023 1023 1023 1023 
1023 1023 1023 1023 1023 1023 1023 1023 1023 
1023 1023 1023 1023 1023 1023 1023 1023 1023 
1023 1023 1023 1023 1023 1023 1023 1023 1023 
1023 1023 1023 1023 1023 1023 1023 1023 1023 
1023 1023 1023 1023 1023 1023 1023 1023 1023 
1023 1023 1023 1023 1023 1023 1023 1023 1023 
1023 1023 1023 1023 1023 1023 1023 1023 1023 
1023 1023 1023 1023 1023 1023 1023 1023 1023 
1023 1023 1023 1023 1023 1023 1023 1023 1023 
1023 1023 1023 1023 1023 1023 1023 1023 1023 
1023 1023 1023 1023 1023 1023 1023 1023 1023 
1023 1023 1023 1023 1023 1023 1023 1023 1023 
1023 1023 1023 1023 1023 1023 1023 1023 1023 
1023 1023 1023 1023 1023 1023 1023 1023 1023 
1023 1023 1023 1023 1023 1023 1023 1023 1023 
1023 1023 1023 1023 1023 1023 1023 1023 1023 
1023 1023 1023 1023 1023 1023 1023 1023 1023 
1023 1023 1023 1023 1023 1023 1023 1023 1023 
1023 1023 1023 1023 1023 1023 1023 1023 1023 
1023 1023 1023 1023 1023 1023 1023 1023 1023 
1023 1023 1023 1023 1023 1023 1023 1023 1023 
1023 1023 1023 1023 1023 1023 1023 1023 1023 
1023 1023 1023 1023 1023 1023 1023 1023 1023 
1023 1023 1023 1023 1023 1023 1023 1023 1023 
1023 1023 1023 1023 1023 1023 1023 1023 1023 
1023 1023 1023 1023 1023 1023 1023 1023 1023 
1023 1023 1023 1023 1023 1023 1023 1023 1023 
1023 1023 1023 1023 1023 1023 1023 1023 1023 
1023 1023 1023 1023 1023 1023 1023 1023 1023 
1023 1023 1023 1023 1023 1023 1023 1023 1023 
1023 1023 1023 1023 1023 1023 1023 1023 1023 
1023 1023 1023 1023 1023 1023 1023 1023 1023 
1023 1023 1023 1023 1023 1023 1023 1023 1023 
1023 1023 1023 1023 1023 1023 1023 1023 1023 
1023 1023 1023 1023 1023 1023 1023 1023 1023 
1023 1023 1023 1023 1023 1023 1023 1023 1023 
1023 1023 1023 1023 1023 1023 1023 1023 1023 
1023 1023 1023 1023 1023 1023 1023 1023 1023 
1023 1023 1023 1023 1023 1023 1023 1023 1023 
1023 1023 1023 1023 1023 1023 1023 1023 1023 
1023 1023 1023 1023 1023 1023 1023 1023 1023 
1023 1023 1023 1023 1023 1023 1023 1023 1023 
1023 1023 1023 1023 1023 1023 1023 1023 1023 
1023 1023 1023 1023 1023 1023 1023 1023 1023 
1023 1023 1023 1023 1023 1023 1023 1023 1023 
1023 1023 1023 1023 1023 1023 1023 1023 1023 
1023 1023 1023 1023 1023 1023 1023 1023 1023 
1023 1023 1023 1023 1023 1023 1023 1023 1023 
1023 1023 1023 1023 1023 1023 1023 1023 1023 
1023 1023 1023 1023 1023 1023 1023 1023 1023 
1023 1023 1023 1023 1023 1023 1023 1023 1023 
1023 1023 1023 1023 1023 1023 1023 1023 1023 
1023 1023 1023 1023 1023 1023 1023 1023 1023 
1023 1023 1023 1023 1023 1023 1023 1023 1023 
1023 1023 1023 1023 1023 1023 1023 1023 1023 
1023 1023 1023 1023 1023 1023 1023 1023 1023 
1023 1023 1023 1023 1023 1023 1023 1023 1023 
1023 1023 1023 1023 1023 1023 1023 1023 1023 
1023 1023 1023 1023 1023 1023 1023 1023 1023 
1023 1023 1023 1023 1023 1023 1023 1023 1023 
1023 1023 1023 1023 1023 1023 1023 1023 1023 
1023 1023 1023 1023 1023 1023 1023 1023 1023 
1023 1023 1023 1023 1023 1023 1023 1023 1023 
1023 1023 1023 1023 1023 1023 1023 1023 1023 
1023 1023 1023 1023 1023 1023 1023 1023 1023 
1023 1023 1023 1023 1023 1023 1023 1023 1023 
1023 1023 1023 1023 1023 1023 1023 1023 1023 
1023 1023 1023 1023 1023 1023 1023 1023 1023 
1023 1023 1023 1023 1023 1023 1023 1023 1023 
1023 1023 1023 1023 1023 1023 1023 1023 1023 
1023 1023 1023 1023 1023 1023 1023 1023 1023 
1023 1023 1023 1023 1023 1023 1023 1023 1023 
1023 1023 1023 1023 1023 1023 1023 1023 1023 
1023 1023 1023 1023 1023 1023 1023 1023 1023 
1023 1023 1023 1023 1023 1023 1023 1023 1023 
1023 1023 1023 1023 1023 1023 1023 1023 1023 
1023 1023 1023 1023 1023 1023 1023 1023 1023 
1023 1023 1023 1023 1023 1023 1023 1023 1023 
1023 1023 1023 1023 1023 1023 1023 1023 1023 
1023 1023 1023 1023 1023 1023 1023 1023 1023 
1023 1023 1023 1023 1023 1023 1023 1023 1023 
1023 1023 1023 1023 1023 1023 1023 1023 1023 
1023 1023 1023 1023 1023 1023 1023 1023 1023 
1023 1023 1023 1023 1023 1023 1023 1023 1023 
1023 1023 1023 1023 1023 1023 1023 1023 1023 
1023 1023 1023 1023 1023 1023 1023 1023 1023 
1023 1023 1023 1023 1023 1023 1023 1023 1023 
1023 1023 1023 1023 1023 1023 1023 1023 1023 
1023 1023 1023 1023 1023 1023 1023 1023 1023 
1023 1023 1023 1023 1023 1023 1023 1023 1023 
1023 1023 1023 1023 1023 1023 1023 1023 1023 
1023 1023 1023 1023 1023 1023 1023 1023 1023 
1023 1023 1023 1023 1023 1023 1023 1023 1023 
1023 1023 1023 1023 1023 1023 1023 1023 1023 
1023 1023 1023 1023 1023 1023 1023 1023 1023 
1023 1023 1023 1023 1023 1023 1023 1023 1023 
1023 1023 1023 1023 1023 1023 1023 1023 1023 
1023 1023 1023 1023 1023 1023 1023 1023 1023 
1023 1023 1023 1023 1023 1023 1023 1023 1023 
1023 1023 1023 1023 1023 1023 1023 1023 1023 
1023 1023 1023 1023 1023 1023 1023 1023 1023 
1023 1023 1023 1023 1023 1023 1023 1023 1023 
1023 1023 1023 1023 1023 1023 1023 1023 1023 
1023 1023 1023 1023 1023 1023 1023 1023 1023 
1023 1023 1023 1023 1023 1023 1023 1023 1023 
1023 1023 1023 1023 1023 1023 1023 1023 1023 
1023 1023 1023 1023 1023 1023 1023 1023 1023 
1023 1023 1023 1023 1023 1023 1023 1023 1023 
1023 1023 1023 1023 1023 1023 1023 1023 1023 
1023 1023 1023 1023 1023 1023 1023 1023 1023 
1023 1023 1023 1023 1023 1023 1023 1023 1023 
1023 1023 1023 1023 1023 1023 1023 1023 1023 
1023 1023 1023 1023 1023 1023 1023 1023 1023 
1023 1023 1023 1023 1023 1023 1023 1023 1023 
1023 1023 1023 1023 1023 1023 1023 1023 1023 
1023 1023 1023 1023 1023 1023 1023 1023 1023 
1023 1023 1023 1023 1023 1023 1023 1023 1023 
1023 1023 1023 1023 1023 1023 1023 1023 1023 
1023 1023 1023 1023 1023 1023 1023 1023 1023 
1023 1023 1023 1023 1023 1023 1023 1023 1023 
1023 1023 1023 1023 1023 1023 1023 1023 1023 
1023 1023 1023 1023 1023 1023 1023 1023 1023 
1023 1023 1023 1023 1023 1023 1023 1023 1023 
1023 1023 1023 1023 1023 1023 1023 1023 1023 
1023 1023 1023 1023 1023 1023 1023 1023 1023 
1023 1023 1023 1023 1023 1023 1023 1023 1023 
1023 1023 1023 1023 1023 1023 1023 1023 1023 
1023 1023 1023 1023 1023 1023 1023 1023 1023 
1023 1023 1023 1023 1023 1023 1023 1023 1023 
1023 1023 1023 1023 1023 1023 1023 1023 1023 
1023 1023 1023 1023 1023 1023 1023 1023 1023 
1023 1023 1023 1023 1023 1023 1023 1023 1023 
1023 1023 1023 1023 1023 1023 1023 1023 1023 
1023 1023 1023 1023 1023 1023 1023 1023 1023 
1023 1023 1023 1023 1023 1023 1023 1023 1023 
1023 1023 1023 1023 1023 1023 1023 1023 1023 
1023 1023 1023 1023 1023 1023 1023 1023 1023 
1023 1023 1023 1023 1023 1023 1023 1023 1023 
1023 1023 1023 1023 1023 1023 1023 1023 1023 
1023 1023 1023 1023 1023 1023 1023 1023 1023 
1023 1023 1023 1023 1023 1023 1023 1023 1023 
1023 1023 1023 1023 1023 1023 1023 1023 1023 
1023 1023 1023 1023 1023 1023 1023 1023 1023 
1023 1023 1023 1023 1023 1023 1023 1023 1023 
1023 1023 1023 1023 1023 1023 1023 1023 1023 
1023 1023 1023 1023 1023 1023 1023 1023 1023 
1023 1023 1023 1023 1023 1023 1023 1023 1023 
1023 1023 1023 1023 1023 1023 1023 1023 1023 
1023 1023 1023 1023 1023 1023 1023 1023 1023 
1023 1023 1023 1023 1023 1023 1023 1023 1023 
1023 1023 1023 1023 1023 1023 1023 1023 1023 
1023 1023 1023 1023 1023 1023 1023 1023 1023 
1023 1023 1023 1023 1023 1023 1023 1023 1023 
1023 1023 1023 1023 1023 1023 1023 1023 1023 
1023 1023 1023 1023 1023 1023 1023 1023 1023 
1023 1023 1023 1023 1023 1023 1023 1023 1023 
1023 1023 1023 1023 1023 1023 1023 1023 1023 
1023 1023 1023 1023 1023 1023 1023 1023 1023 
1023 1023 1023 1023 1023 1023 1023 1023 1023 
1023 1023 1023 1023 1023 1023 1023 1023 1023 
1023 1023 1023 1023 1023 1023 1023 1023 1023 
1023 1023 1023 1023 1023 1023 1023 1023 1023 
1023 1023 1023 1023 1023 1023 1023 1023 1023 
1023 1023 1023 1023 1023 1023 1023 1023 1023 
1023 1023 1023 1023 1023 1023 1023 1023 1023 
1023 1023 1023 1023 1023 1023 1023 1023 1023 
1023 1023 1023 1023 1023 1023 1023 1023 1023 
1023 1023 1023 1023 1023 1023 1023 1023 1023 
1023 1023 1023 1023 1023 1023 1023 1023 1023 
1023 1023 1023 1023 1023 1023 1023 1023 1023 
1023 1023 1023 1023 1023 1023 1023 1023 1023 
1023 1023 1023 1023 1023 1023 1023 1023 1023 
1023 1023 1023 1023 1023 1023 1023 1023 1023 
1023 1023 1023 1023 1023 1023 1023 1023 1023 
1023 1023 1023 1023 1023 1023 1023 1023 1023 
1023 1023 1023 1023 1023 1023 1023 1023 1023 
1023 1023 1023 1023 1023 1023 1023 1023 1023 
1023 1023 1023 1023 1023 1023 1023 1023 1023 
1023 1023 1023 1023 1023 1023 1023 1023 1023 
1023 1023 1023 1023 1023 1023 1023 1023 1023 
1023 1023 1023 1023 1023 1023 1023 1023 1023 
1023 1023 1023 1023 1023 1023 1023 1023 1023 
1023 1023 1023 1023 1023 1023 1023 1023 1023 
1023 1023 1023 1023 1023 1023 1023 1023 1023 
1023 1023 1023 1023 1023 1023 1023 1023 1023 
1023 1023 1023 1023 1023 1023 1023 1023 1023 
1023 1023 1023 1023 1023 1023 1023 1023 1023 
1023 1023 1023 1023 1023 1023 1023 1023 1023 
1023 1023 1023 1023 1023 1023 1023 1023 1023 
1023 1023 1023 1023 1023 1023 1023 1023 1023 
1023 1023 1023 1023 1023 1023 1023 1023 1023 
1023 1023 1023 1023 1023 1023 1023 1023 1023 
1023 1023 1023 1023 1023 1023 1023 1023 1023 
1023 1023 1023 1023 1023 1023 1023 1023 1023 
1023 1023 1023 1023 1023 1023 1023 1023 1023 
1023 1023 1023 1023 1023 1023 1023 1023 1023 
1023 1023 1023 1023 1023 1023 1023 1023 1023 
1023 1023 1023 1023 1023 1023 1023 1023 1023 
1023 1023 1023 1023 1023 1023 1023 1023 1023 
1023 1023 1023 1023 1023 1023 1023 1023 1023 
1023 1023 1023 1023 1023 1023 1023 1023 1023 
1023 1023 1023 1023 1023 1023 1023 1023 1023 
1023 1023 1023 1023 1023 1023 1023 1023 1023 
1023 1023 1023 1023 1023 1023 1023 1023 1023 
1023 1023 1023 1023 1023 1023 1023 1023 1023 
1023 1023 1023 1023 1023 1023 1023 1023 1023 
1023 1023 1023 1023 1023 1023 1023 1023 1023 
1023 1023 1023 1023 1023 1023 1023 1023 1023 
1023 1023 1023 1023 1023 1023 1023 1023 1023 
1023 1023 1023 1023 1023 1023 1023 1023 1023 
1023 1023 1023 1023 1023 1023 1023 1023 1023 
1023 1023 1023 1023 1023 1023 1023 1023 1023 
1023 1023 1023 1023 1023 1023 1023 1023 1023 
1023 1023 1023 1023 1023 1023 1023 1023 1023 
1023 1023 1023 1023 1023 1023 1023 1023 1023 
1023 1023 1023 1023 1023 1023 1023 1023 1023 
1023 1023 1023 1023 1023 1023 1023 1023 1023 
1023 1023 1023 1023 1023 1023 1023 1023 1023 
1023 1023 1023 1023 1023 1023 1023 1023 1023 
1023 1023 1023 1023 1023 1023 1023 1023 1023 
1023 1023 1023 1023 1023 1023 1023 1023 1023 
1023 1023 1023 1023 1023 1023 1023 1023 1023 
1023 1023 1023 1023 1023 1023 1023 1023 1023 
1023 1023 1023 1023 1023 1023 1023 1023 1023 
1023 1023 1023 1023 1023 1023 1023 1023 1023 
1023 1023 1023 1023 1023 1023 1023 1023 1023 
1023 1023 1023 1023 1023 1023 1023 1023 1023 
1023 1023 1023 1023 1023 1023 1023 1023 1023 
1023 1023 1023 1023 1023 1023 1023 1023 1023 
1023 1023 1023 1023 1023 1023 1023 1023 1023 
1023 1023 1023 1023 1023 1023 1023 1023 1023 
1023 1023 1023 1023 1023 1023 1023 1023 1023 
1023 1023 1023 1023 1023 1023 1023 1023 1023 
1023 1023 1023 1023 1023 1023 1023 1023 1023 
1023 1023 1023 1023 1023 1023 1023 1023 1023 
1023 1023 1023 1023 1023 1023 1023 1023 1023 
1023 1023 1023 1023 1023 1023 1023 1023 1023 
1023 1023 1023 1023 1023 1023 1023 1023 1023 
1023 1023 1023 1023 1023 1023 1023 1023 1023 
1023 1023 1023 1023 1023 1023 1023 1023 1023 
1023 1023 1023 1023 1023 1023 1023 1023 1023 
1023 1023 1023 1023 1023 1023 1023 1023 1023 
1023 1023 1023 1023 1023 1023 1023 1023 1023 
1023 1023 1023 1023 1023 1023 1023 1023 1023 
1023 1023 1023 1023 1023 1023 1023 1023 1023 
1023 1023 1023 1023 1023 1023 1023 1023 1023 
1023 1023 1023 1023 1023 1023 1023 1023 1023 
1023 1023 1023 1023 1023 1023 1023 1023 1023 
1023 1023 1023 1023 1023 1023 1023 1023 1023 
1023 1023 1023 1023 1023 1023 1023 1023 1023 
1023 1023 1023 1023 1023 1023 1023 1023 1023 
1023 1023 1023 1023 1023 1023 1023 1023 1023 
1023 1023 1023 1023 1023 1023 1023 1023 1023 
1023 1023 1023 1023 1023 1023 1023 1023 1023 
1023 1023 1023 1023 1023 1023 1023 1023 1023 
1023 1023 1023 1023 1023 1023 1023 1023 1023 
1023 1023 1023 1023 1023 1023 1023 1023 1023 
1023 1023 1023 1023 1023 1023 1023 1023 1023 
1023 1023 1023 1023 1023 1023 1023 1023 1023 
1023 1023 1023 1023 1023 1023 1023 1023 1023 
1023 1023 1023 1023 1023 1023 1023 1023 1023 
1023 1023 1023 1023 1023 1023 1023 1023 1023 
1023 1023 1023 1023 1023 1023 1023 1023 1023 
1023 1023 1023 1023 1023 1023 1023 1023 1023 
1023 1023 1023 1023 1023 1023 1023 1023 1023 
1023 1023 1023 1023 1023 1023 1023 1023 1023 
1023 1023 1023 1023 1023 1023 1023 1023 1023 
1023 1023 1023 1023 1023 1023 1023 1023 1023 
1023 1023 1023 1023 1023 1023 1023 1023 1023 
1023 1023 1023 1023 1023 1023 1023 1023 1023 
1023 1023 1023 1023 1023 1023 1023 1023 1023 
1023 1023 1023 1023 1023 1023 1023 1023 1023 
1023 1023 1023 1023 1023 1023 1023 1023 1023 
1023 1023 1023 1023 1023 1023 1023 1023 1023 
1023 1023 1023 1023 1023 1023 1023 1023 1023 
1023 1023 1023 1023 1023 1023 1023 1023 1023 
1023 1023 1023 1023 1023 1023 1023 1023 1023 
1023 1023 1023 1023 1023 1023 1023 1023 1023 
1023 1023 1023 1023 1023 1023 1023 1023 1023 
1023 1023 1023 1023 1023 1023 1023 1023 1023 
1023 1023 1023 1023 1023 1023 1023 1023 1023 
1023 1023 1023 1023 1023 1023 1023 1023 1023 
1023 1023 1023 1023 1023 1023 1023 1023 1023 
1023 1023 1023 1023 1023 1023 1023 1023 1023 
1023 1023 1023 1023 1023 1023 1023 1023 1023 
1023 1023 1023 1023 1023 1023 1023 1023 1023 
1023 1023 1023 1023 1023 1023 1023 1023 1023 
1023 1023 1023 1023 1023 1023 1023 1023 1023 
1023 1023 1023 1023 1023 1023 1023 1023 1023 
1023 1023 1023 1023 1023 1023 1023 1023 1023 
1023 1023 1023 1023 1023 1023 1023 1023 1023 
1023 1023 1023 1023 1023 1023 1023 1023 1023 
1023 1023 1023 1023 1023 1023 1023 1023 1023 
1023 1023 1023 1023 1023 1023 1023 1023 1023 
1023 1023 1023 1023 1023 1023 1023 1023 1023 
1023 1023 1023 1023 1023 1023 1023 1023 1023 
1023 1023 1023 1023 1023 1023 1023 1023 1023 
1023 1023 1023 1023 1023 1023 1023 1023 1023 
1023 1023 1023 1023 1023 1023 1023 1023 1023 
1023 1023 1023 1023 1023 1023 1023 1023 1023 
1023 1023 1023 1023 1023 1023 1023 1023 1023 
1023 1023 1023 1023 1023 1023 1023 1023 1023 
1023 1023 1023 1023 1023 1023 1023 1023 1023 
1023 1023 1023 1023 1023 1023 1023 1023 1023 
1023 1023 1023 1023 1023 1023 1023 1023 1023 
1023 1023 1023 1023 1023 1023 1023 1023 1023 
1023 1023 1023 1023 1023 1023 1023 1023 1023 
1023 1023 1023 1023 1023 1023 1023 1023 1023 
1023 1023 1023 1023 1023 1023 1023 1023 1023 
1023 1023 1023 1023 1023 1023 1023 1023 1023 
1023 1023 1023 1023 1023 1023 1023 1023 1023 
1023 1023 1023 1023 1023 1023 1023 1023 1023 
1023 1023 1023 1023 1023 1023 1023 1023 1023 
1023 1023 1023 1023 1023 1023 1023 1023 1023 
1023 1023 1023 1023 1023 1023 1023 1023 1023 
1023 1023 1023 1023 1023 1023 1023 1023 1023 
1023 1023 1023 1023 1023 1023 1023 1023 1023 
1023 1023 1023 1023 1023 1023 1023 1023 1023 
1023 1023 1023 1023 1023 1023 1023 1023 1023 
1023 1023 1023 1023 1023 1023 1023 1023 1023 
1023 1023 1023 1023 1023 1023 1023 1023 1023 
1023 1023 1023 1023 1023 1023 1023 1023 1023 
1023 1023 1023 1023 1023 1023 1023 1023 1023 
1023 1023 1023 1023 1023 1023 1023 1023 1023 
1023 1023 1023 1023 1023 1023 1023 1023 1023 
1023 1023 1023 1023 1023 1023 1023 1023 1023 
1023 1023 1023 1023 1023 1023 1023 1023 1023 
1023 1023 1023 1023 1023 1023 1023 1023 1023 
1023 1023 1023 1023 1023 1023 1023 1023 1023 
1023 1023 1023 1023 1023 1023 1023 1023 1023 
1023 1023 1023 1023 1023 1023 1023 1023 1023 
1023 1023 1023 1023 1023 1023 1023 1023 1023 
1023 1023 1023 1023 1023 1023 1023 1023 1023 
1023 1023 1023 1023 1023 1023 1023 1023 1023 
1023 1023 1023 1023 1023 1023 1023 1023 1023 
1023 1023 1023 1023 1023 1023 1023 1023 1023 
1023 1023 1023 1023 1023 1023 1023 1023 1023 
1023 1023 1023 1023 1023 1023 1023 1023 1023 
1023 1023 1023 1023 1023 1023 1023 1023 1023 
1023 1023 1023 1023 1023 1023 1023 1023 1023 
1023 1023 1023 1023 1023 1023 1023 1023 1023 
1023 1023 1023 1023 1023 1023 1023 1023 1023 
1023 1023 1023 1023 1023 1023 1023 1023 1023 
1023 1023 1023 1023 1023 1023 1023 1023 1023 
1023 1023 1023 1023 1023 1023 1023 1023 1023 
1023 1023 1023 1023 1023 1023 1023 1023 1023 
1023 1023 1023 1023 1023 1023 1023 1023 1023 
1023 1023 1023 1023 1023 1023 1023 1023 1023 
1023 1023 1023 1023 1023 1023 1023 1023 1023 
1023 1023 1023 1023 1023 1023 1023 1023 1023 
1023 1023 1023 1023 1023 1023 1023 1023 1023 
1023 1023 1023 1023 1023 1023 1023 1023 1023 
1023 1023 1023 1023 1023 1023 1023 1023 1023 
1023 1023 1023 1023 1023 1023 1023 1023 1023 
1023 1023 1023 1023 1023 1023 1023 1023 1023 
1023 1023 1023 1023 1023 1023 1023 1023 1023 
1023 1023 1023 1023 1023 1023 1023 1023 1023 
1023 1023 1023 1023 1023 1023 1023 1023 1023 
1023 1023 1023 1023 1023 1023 1023 1023 1023 
1023 1023 1023 1023 1023 1023 1023 1023 1023 
1023 1023 1023 1023 1023 1023 1023 1023 1023 
1023 1023 1023 1023 1023 1023 1023 1023 1023 
1023 1023 1023 1023 1023 1023 1023 1023 1023 
1023 1023 1023 1023 1023 1023 1023 1023 1023 
1023 1023 1023 1023 1023 1023 1023 1023 1023 
1023 1023 1023 1023 1023 1023 1023 1023 1023 
1023 1023 1023 1023 1023 1023 1023 1023 1023 
1023 1023 1023 1023 1023 1023 1023 1023 1023 
1023 1023 1023 1023 1023 1023 1023 1023 1023 
1023 1023 1023 1023 1023 1023 1023 1023 1023 
1023 1023 1023 1023 1023 1023 1023 1023 1023 
1023 1023 1023 1023 1023 1023 1023 1023 1023 
1023 1023 1023 1023 1023 1023 1023 1023 1023 
1023 1023 1023 1023 1023 1023 1023 1023 1023 
1023 1023 1023 1023 1023 1023 1023 1023 1023 
1023 1023 1023 1023 1023 1023 1023 1023 1023 
1023 1023 1023 1023 1023 1023 1023 1023 1023 
1023 1023 1023 1023 1023 1023 1023 1023 1023 
1023 1023 1023 1023 1023 1023 1023 1023 1023 
1023 1023 1023 1023 1023 1023 1023 1023 1023 
1023 1023 1023 1023 1023 1023 1023 1023 1023 
1023 1023 1023 1023 1023 1023 1023 1023 1023 
1023 1023 1023 1023 1023 1023 1023 1023 1023 
1023 1023 1023 1023 1023 1023 1023 1023 1023 
1023 1023 1023 1023 1023 1023 1023 1023 1023 