# vtk DataFile Version 4.2
vtk output
ASCII
DATASET POLYDATA
POINTS 19208 float
19.9035 55.3165 -11.2292 19.603 55.855 -11.8217 19.1887 55.2301 -11.4304 
20.3835 55.3225 -11.8182 21.8381 55.326 -11.151 21.8488 55.7696 -11.6006 
21.2433 55.3134 -11.6963 22.9041 55.3263 -11.1854 22.4013 55.7708 -11.4255 
22.93 55.5398 -11.6906 19.7752 54.5407 -11.0767 19.1113 54.2559 -11.4382 
20.5725 55.0487 -11.5393 20.7717 54.7034 -11.0674 21.8349 54.3612 -10.9524 
22.7379 54.5246 -10.9374 23.7276 55.1391 -11.7467 23.8725 54.5348 -11.0562 
24.7934 54.2786 -11.2081 24.5523 54.8226 -11.4662 25.0861 54.53 -11.6917 
19.8095 53.4425 -11.0921 19.1605 53.2044 -11.4702 20.6815 53.4841 -10.9429 
21.6948 53.4462 -10.9496 22.7033 53.4464 -10.9526 23.5565 53.6404 -10.9328 
24.4468 53.4207 -11.1166 25.3448 53.6271 -11.7993 19.8208 52.4819 -11.1681 
19.2789 52.5248 -11.4689 20.7025 52.4133 -10.9604 21.6999 52.3796 -10.9625 
22.5645 52.5377 -10.9973 23.5459 52.4881 -11.1304 24.3476 52.5826 -11.3779 
24.877 52.8879 -11.6125 19.5663 51.9437 -11.5647 20.1496 51.419 -11.4736 
20.4823 51.6693 -11.1726 21.4568 51.5078 -11.1195 22.5737 51.5995 -11.186 
23.3402 51.5776 -11.4467 23.9368 52.0032 -11.5372 20.7557 50.9886 -11.613 
21.9995 50.8736 -11.492 22.8425 51.0629 -11.568 18.6681 55.4545 -11.9636 
18.9559 55.9426 -12.6766 18.1906 55.4045 -12.4962 19.7819 56.1279 -12.5026 
20.8185 55.5736 -12.1788 20.4404 55.8447 -12.3861 21.7335 55.5946 -11.9793 
20.9042 55.5604 -12.4632 22.3183 55.621 -11.9689 17.9917 54.6504 -12.2216 
17.6503 54.9034 -12.8503 17.436 54.1832 -12.7695 18.6158 54.7379 -11.7733 
20.8156 54.3393 -12.0238 20.2919 54.3433 -12.5681 20.7182 55.2527 -12.3277 
21.9219 55.057 -12.4508 21.2386 54.6993 -12.2412 23.0015 55.0922 -12.4297 
23.938 54.8998 -12.558 24.6505 54.8495 -12.1683 25.2225 54.3624 -12.2554 
17.8189 53.8713 -12.4297 18.0739 53.1038 -12.6765 18.4645 53.7787 -11.9676 
20.6554 53.5934 -12.1916 20.4002 53.3748 -12.6925 21.5382 54.0176 -12.4262 
21.3325 53.4772 -12.2528 21.9412 53.5574 -12.6141 25.5264 53.8508 -12.5703 
25.8363 53.4613 -12.2 25.9087 53.4286 -12.47 18.7835 52.6692 -11.9868 
18.4201 52.428 -12.7426 20.8998 53.1117 -12.4772 21.6161 53.0303 -12.6926 
24.5945 52.1009 -11.904 25.3928 52.6566 -12.6137 25.7636 53.2158 -12.3177 
18.9365 51.9503 -12.3712 19.6798 51.4121 -11.9683 19.2126 51.2981 -12.8531 
23.6736 51.3094 -11.8058 24.4567 51.2095 -12.1737 25.0563 51.5252 -12.6174 
19.9269 50.8867 -12.3019 20.7251 50.3754 -12.1342 20.1432 50.4801 -12.4896 
21.7025 50.2853 -11.8497 22.7228 50.5452 -11.8275 23.6051 50.3867 -12.1473 
24.3666 50.3562 -12.6435 24.8356 50.8513 -12.6383 20.5415 49.969 -12.6324 
21.2931 49.2953 -12.5641 21.5034 49.7012 -12.202 22.5564 49.6751 -12.1403 
23.3372 49.3719 -12.6613 23.8214 49.8495 -12.6027 22.0586 48.9955 -12.4632 
22.7516 48.8979 -12.6265 14.7327 72.5516 -13.3287 14.8782 72.9964 -13.7617 
14.439 72.6204 -13.661 15.1357 72.5426 -13.5575 14.6405 72.159 -13.6416 
18.5586 55.9447 -13.7307 18.101 55.5451 -13.1997 19.7155 55.9076 -13.3251 
20.4645 55.3315 -12.8598 19.9839 55.3149 -13.4284 17.4784 55.0132 -13.4844 
17.1465 54.3329 -13.3813 19.923 54.7138 -13.2283 19.5337 54.7266 -13.8195 
19.7218 54.982 -13.5444 21.978 54.2034 -12.7758 22.7303 54.3427 -12.9402 
23.5845 54.5055 -12.9381 24.5569 54.3198 -12.9424 17.5619 53.5602 -12.9106 
17.2062 53.6817 -13.3158 19.8826 54.16 -13.6216 20.2552 53.5736 -13.4502 
22.4359 53.3407 -12.9212 23.4883 53.4983 -13.1982 24.2113 53.7894 -13.705 
24.9377 54.0448 -13.5214 25.5968 53.4269 -12.8726 25.3224 53.4198 -13.7894 
17.4372 53.0406 -13.5513 18.0004 52.482 -13.4759 20.9335 52.9885 -13.4408 
21.8848 52.4398 -13.0951 21.4318 52.4841 -13.6444 22.8384 52.3771 -13.0889 
23.2974 52.4745 -13.4616 23.7025 53.03 -13.8685 25.704 52.709 -13.3638 
25.7145 52.2776 -13.2704 25.8682 52.4267 -13.5139 18.5672 51.9558 -13.4183 
18.986 51.4414 -13.7339 21.8557 51.9567 -13.3829 22.5348 51.4084 -13.1441 
22.1703 51.4005 -13.6105 23.0936 51.6258 -13.5411 25.4221 51.7174 -13.4879 
25.712 52.1802 -13.7023 19.7295 50.5543 -12.8823 19.3129 50.541 -13.7423 
22.6391 50.5258 -13.2463 22.4097 50.4331 -13.7652 23.0079 50.6454 -13.5665 
24.7925 50.4097 -12.9899 25.1035 50.7516 -13.4501 19.9092 49.8952 -13.3026 
20.691 49.2868 -12.9982 20.105 49.114 -13.4961 22.8005 50.094 -13.647 
23.7188 49.4261 -12.9514 24.0897 49.617 -13.2564 24.6748 50.0211 -13.6557 
20.8135 48.5026 -13.1883 20.2706 48.526 -13.515 21.5417 48.6192 -12.8283 
22.4184 48.2192 -13.0001 23.1316 48.4429 -13.4519 23.6616 49.0247 -13.6484 
20.5692 47.9281 -13.5851 21.1093 47.317 -13.6433 21.6009 47.7475 -13.1825 
22.3464 47.5034 -13.3915 22.8235 47.7674 -13.6266 21.8859 47.09 -13.8215 
14.7557 73.4625 -14.185 14.5611 73.7244 -14.5485 14.2618 73.1142 -14.2967 
15.1403 73.5502 -14.3985 13.9661 72.1682 -14.4974 15.565 72.103 -13.9782 
15.5713 72.8961 -14.1653 16.0689 72.6436 -14.7296 13.9684 71.5236 -14.0782 
13.6041 71.7859 -14.481 13.4237 71.3217 -14.4157 14.9844 71.3798 -13.8596 
15.7373 71.2545 -14.1115 16.1175 71.7079 -14.6303 13.7462 70.5463 -14.1127 
13.3701 70.5237 -14.4829 14.6794 70.4696 -13.9453 15.5847 70.4265 -14.0924 
16.1008 70.7237 -14.6164 13.749 69.5267 -14.112 13.3349 69.4015 -14.5961 
14.6563 69.4438 -13.95 15.5677 69.4142 -14.0994 16.0965 69.7139 -14.6216 
13.7776 68.4858 -14.0959 13.2703 68.3561 -14.493 14.711 68.4267 -13.9316 
15.6218 68.3987 -14.086 16.1307 68.691 -14.6286 13.7756 67.4764 -14.0884 
13.2334 67.4902 -14.6264 14.704 67.4214 -13.9183 15.633 67.4012 -14.0688 
16.1541 67.677 -14.6081 13.7971 66.4607 -14.0867 13.2399 66.4762 -14.6352 
14.5367 66.5809 -13.9128 15.4142 66.3654 -14.1014 16.0581 66.7517 -14.6212 
13.8274 65.408 -14.0471 13.2697 65.4601 -14.5884 14.7184 65.5326 -14.0211 
15.3466 65.5124 -14.4521 15.761 66.0037 -14.8197 13.7954 64.3993 -14.0106 
13.2744 64.4334 -14.5647 14.5754 64.3981 -14.0468 15.131 64.6788 -14.5689 
13.6923 63.6183 -14.1187 13.3423 63.3547 -14.7643 14.4032 63.4892 -14.0918 
15.0769 63.5713 -14.7124 14.0304 62.8957 -14.4041 14.7439 62.8387 -14.5895 
16.9219 55.5256 -14.2626 16.5886 55.853 -14.8563 16.1906 55.1618 -14.498 
17.6233 55.5069 -13.8886 17.7076 55.9123 -14.4372 18.7785 55.8623 -14.4345 
19.5348 55.4127 -13.8928 19.1623 55.2891 -14.5469 16.8234 54.7508 -13.9952 
16.1132 54.147 -14.6448 19.601 54.8227 -14.6859 19.6673 54.4202 -14.0335 
20.1365 54.3969 -14.49 24.8248 54.4376 -14.2249 24.6863 54.6985 -14.6225 
24.4909 54.3373 -14.3252 24.9239 54.2458 -14.5705 16.768 53.6659 -13.9926 
16.377 53.4008 -14.7649 20.5963 53.4102 -14.0529 20.44 53.8518 -14.2888 
21.0197 53.4956 -14.4892 24.2093 53.6651 -14.4266 25.0726 53.3352 -14.5979 
16.975 52.9271 -14.5373 17.4892 52.5171 -14.1144 17.4031 52.5061 -14.7142 
21.7304 52.2592 -13.9122 21.4439 52.8875 -14.2844 21.9637 52.5106 -14.6131 
23.9491 53.097 -14.8627 23.3566 52.4109 -14.4016 25.7015 52.6115 -13.7958 
25.2877 52.2525 -14.4839 17.9897 52.184 -14.4116 18.6538 51.8102 -14.3431 
19.0305 51.342 -14.5488 22.1596 51.3426 -14.5245 23.21 51.3389 -14.4912 
25.2799 51.2083 -14.3575 19.2054 50.6474 -14.7189 22.3801 50.5735 -14.7255 
23.012 50.4243 -14.3846 25.0501 50.504 -14.492 19.5788 49.5509 -13.8389 
19.2883 49.591 -14.546 22.6512 50.1118 -14.2247 24.1955 49.5209 -14.3891 
24.6794 50.0332 -14.6306 19.7707 48.6608 -14.0046 19.3293 48.3493 -14.8532 
23.4039 48.4146 -14.3682 23.7159 48.9183 -14.8031 19.9159 47.8482 -14.3029 
20.4982 47.45 -14.0368 20.1589 47.4106 -14.459 22.6279 47.2897 -13.9229 
23.0893 47.7269 -14.4552 20.8159 46.9502 -14.5936 21.9391 46.8653 -14.6712 
22.6051 47.0898 -14.5887 23.7677 44.3582 -14.0999 23.465 44.8175 -14.7398 
23.0879 44.3958 -14.3682 24.4835 44.2234 -14.1658 24.3764 44.9433 -14.6033 
25.0395 44.6145 -14.7662 23.0361 43.5576 -14.087 22.5829 44.1302 -14.621 
22.3453 43.4241 -14.6091 23.8612 43.4817 -14.028 24.3743 43.4099 -14.4654 
24.8265 43.8993 -14.5982 22.794 42.4409 -14.0641 22.1546 42.3448 -14.5801 
23.5428 42.4534 -14.0499 24.0532 42.6389 -14.4061 22.6998 41.6332 -14.1523 
22.3447 41.3404 -14.504 23.3773 41.5278 -14.1272 24.0342 41.5874 -14.6759 
23.0325 40.9456 -14.4267 23.7287 40.8657 -14.6018 13.7155 76.9137 -15.7126 
13.0391 76.3624 -15.3462 13.8061 76.1702 -15.1918 14.289 76.6002 -15.6093 
12.9423 75.5323 -15.1197 12.5932 76.0197 -15.399 12.3583 75.3824 -15.5721 
13.8301 75.3114 -14.955 14.7774 76.1281 -15.6668 14.7916 75.3669 -15.1442 
15.3433 75.5806 -15.616 12.7532 74.5499 -15.187 12.4431 74.5768 -15.6325 
13.4735 74.6522 -14.9657 14.659 74.3207 -14.8706 15.6233 75.0644 -15.4203 
15.6312 74.3955 -15.1811 16.072 74.6421 -15.7682 12.7841 74.0275 -15.4242 
13.1662 73.5379 -15.7045 13.6269 73.7446 -14.9781 15.7124 73.5258 -14.8273 
16.1751 73.5801 -15.5248 13.6566 72.7634 -15.0633 13.4575 72.6898 -15.8013 
16.3776 72.5112 -15.5505 13.6645 71.3252 -14.8653 13.7552 72.1535 -15.3615 
14.0012 71.719 -15.6097 16.3886 71.4277 -15.3474 13.6287 70.2482 -14.9849 
14.054 70.7672 -15.6093 16.3795 70.4242 -15.3413 13.5657 69.41 -15.1572 
14.0108 69.6708 -15.7221 16.386 69.4118 -15.3577 13.7165 68.9169 -15.6831 
13.2713 68.4596 -15.3077 16.3696 68.3115 -15.4807 13.0952 67.381 -15.3481 
16.2646 67.2907 -15.3017 13.1078 66.5298 -15.5281 16.1139 66.4721 -15.623 
13.1164 65.4956 -15.5081 15.4346 65.2148 -15.3154 15.7833 65.7968 -15.6161 
13.1296 64.4621 -15.5007 15.2788 64.2801 -15.3509 13.1399 63.6116 -15.6528 
15.2677 63.5799 -15.6699 13.7289 62.4913 -14.9261 13.2954 62.5723 -15.5018 
14.4341 62.3364 -14.9953 15.0163 62.7096 -15.3906 14.0452 61.9836 -15.5649 
14.6417 62.1507 -15.4847 15.7481 55.5208 -14.9721 15.8301 56.0415 -15.5916 
15.306 55.4492 -15.5875 16.618 56.0499 -15.494 17.617 55.8583 -15.3265 
18.5834 55.5587 -15.123 18.2107 55.2669 -15.7162 15.6036 54.7672 -15.0193 
15.2993 54.4112 -15.8443 18.9509 55.152 -15.348 19.4977 55.1031 -15.6796 
21.0293 54.2857 -14.9976 20.4481 54.9575 -15.3522 21.7603 54.2982 -15.3238 
21.6602 55.0033 -15.7323 22.2311 54.5316 -15.7165 24.5971 54.3293 -14.7443 
15.659 53.9836 -15.3164 15.9845 53.4644 -15.4145 21.6176 53.5704 -14.9366 
[...]
CELL_DATA 38548
SCALARS scalars float
LOOKUP_TABLE default
1029 1029 1029 1029 1029 1029 1029 1029 1029 
1029 1029 1029 1029 1029 1029 1029 1029 1029 
1029 1029 1029 1029 1029 1029 1029 1029 1029 
1029 1029 1029 1029 1029 1029 1029 1029 1029 
1029 1029 1029 1029 1029 1029 1029 1029 1029 
1029 1029 1029 1029 1029 1029 1029 1029 1029 
1029 1029 1029 1029 1029 1029 1029 1029 1029 
1029 1029 1029 1029 1029 1029 1029 1029 1029 
1029 1029 1029 1029 1029 1029 1029 1029 1029 
1029 1029 1029 1029 1029 1029 1029 1029 1029 
1029 1029 1029 1029 1029 1029 1029 1029 1029 
1029 1029 1029 1029 1029 1029 1029 1029 1029 
1029 1029 1029 1029 1029 1029 1029 1029 1029 
1029 1029 1029 1029 1029 1029 1029 1029 1029 
1029 1029 1029 1029 1029 1029 1029 1029 1029 
1029 1029 1029 1029 1029 1029 1029 1029 1029 
1029 1029 1029 1029 1029 1029 1029 1029 1029 
1029 1029 1029 1029 1029 1029 1029 1029 1029 
1029 1029 1029 1029 1029 1029 1029 1029 1029 
1029 1029 1029 1029 1029 1029 1029 1029 1029 
1029 1029 1029 1029 1029 1029 1029 1029 1029 
1029 1029 1029 1029 1029 1029 1029 1029 1029 
1029 1029 1029 1029 1029 1029 1029 1029 1029 
1029 1029 1029 1029 1029 1029 1029 1029 1029 
1029 1029 1029 1029 1029 1029 1029 1029 1029 
1029 1029 1029 1029 1029 1029 1029 1029 1029 
1029 1029 1029 1029 1029 1029 1029 1029 1029 
1029 1029 1029 1029 1029 1029 1029 1029 1029 
1029 1029 1029 1029 1029 1029 1029 1029 1029 
1029 1029 1029 1029 1029 1029 1029 1029 1029 
1029 1029 1029 1029 1029 1029 1029 1029 1029 
1029 1029 1029 1029 1029 1029 1029 1029 1029 
1029 1029 1029 1029 1029 1029 1029 1029 1029 
1029 1029 1029 1029 1029 1029 1029 1029 1029 
1029 1029 1029 1029 1029 1029 1029 1029 1029 
1029 1029 1029 1029 1029 1029 1029 1029 1029 
1029 1029 1029 1029 1029 1029 1029 1029 1029 
1029 1029 1029 1029 1029 1029 1029 1029 1029 
1029 1029 1029 1029 1029 1029 1029 1029 1029 
1029 1029 1029 1029 1029 1029 1029 1029 1029 
1029 1029 1029 1029 1029 1029 1029 1029 1029 
1029 1029 1029 1029 1029 1029 1029 1029 1029 
1029 1029 1029 1029 1029 1029 1029 1029 1029 
1029 1029 1029 1029 1029 1029 1029 1029 1029 
1029 1029 1029 1029 1029 1029 1029 1029 1029 
1029 1029 1029 1029 1029 1029 1029 1029 1029 
1029 1029 1029 1029 1029 1029 1029 1029 1029 
1029 1029 1029 1029 1029 1029 1029 1029 1029 
1029 1029 1029 1029 1029 1029 1029 1029 1029 
1029 1029 1029 1029 1029 1029 1029 1029 1029 
1029 1029 1029 1029 1029 1029 1029 1029 1029 
1029 1029 1029 1029 1029 1029 1029 1029 1029 
1029 1029 1029 1029 1029 1029 1029 1029 1029 
1029 1029 1029 1029 1029 1029 1029 1029 1029 
1029 1029 1029 1029 1029 1029 1029 1029 1029 
1029 1029 1029 1029 1029 1029 1029 1029 1029 
1029 1029 1029 1029 1029 1029 1029 1029 1029 
1029 1029 1029 1029 1029 1029 1029 1029 1029 
1029 1029 1029 1029 1029 1029 1029 1029 1029 
1029 1029 1029 1029 1029 1029 1029 1029 1029 
1029 1029 1029 1029 1029 1029 1029 1029 1029 
1029 1029 1029 1029 1029 1029 1029 1029 1029 
1029 1029 1029 1029 1029 1029 1029 1029 1029 
1029 1029 1029 1029 1029 1029 1029 1029 1029 
1029 1029 1029 1029 1029 1029 1029 1029 1029 
1029 1029 1029 1029 1029 1029 1029 1029 1029 
1029 1029 1029 1029 1029 1029 1029 1029 1029 
1029 1029 1029 1029 1029 1029 1029 1029 1029 
1029 1029 1029 1029 1029 1029 1029 1029 1029 
1029 1029 1029 1029 1029 1029 1029 1029 1029 
1029 1029 1029 1029 1029 1029 1029 1029 1029 
1029 1029 1029 1029 1029 1029 1029 1029 1029 
1029 1029 1029 1029 1029 1029 1029 1029 1029 
1029 1029 1029 1029 1029 1029 1029 1029 1029 
1029 1029 1029 1029 1029 1029 1029 1029 1029 
1029 1029 1029 1029 1029 1029 1029 1029 1029 
1029 1029 1029 1029 1029 1029 1029 1029 1029 
1029 1029 1029 1029 1029 1029 1029 1029 1029 
1029 1029 1029 1029 1029 1029 1029 1029 1029 
1029 1029 1029 1029 1029 1029 1029 1029 1029 
1029 1029 1029 1029 1029 1029 1029 1029 1029 
1029 1029 1029 1029 1029 1029 1029 1029 1029 
1029 1029 1029 1029 1029 1029 1029 1029 1029 
1029 1029 1029 1029 1029 1029 1029 1029 1029 
1029 1029 1029 1029 1029 1029 1029 1029 1029 
1029 1029 1029 1029 1029 1029 1029 1029 1029 
1029 1029 1029 1029 1029 1029 1029 1029 1029 
1029 1029 1029 1029 1029 1029 1029 1029 1029 
1029 1029 1029 1029 1029 1029 1029 1029 1029 
1029 1029 1029 1029 1029 1029 1029 1029 1029 
1029 1029 1029 1029 1029 1029 1029 1029 1029 
1029 1029 1029 1029 1029 1029 1029 1029 1029 
1029 1029 1029 1029 1029 1029 1029 1029 1029 
1029 1029 1029 1029 1029 1029 1029 1029 1029 
1029 1029 1029 1029 1029 1029 1029 1029 1029 
1029 1029 1029 1029 1029 1029 1029 1029 1029 
1029 1029 1029 1029 1029 1029 1029 1029 1029 
1029 1029 1029 1029 1029 1029 1029 1029 1029 
1029 1029 1029 1029 1029 1029 1029 1029 1029 
1029 1029 1029 1029 1029 1029 1029 1029 1029 
1029 1029 1029 1029 1029 1029 1029 1029 1029 
1029 1029 1029 1029 1029 1029 1029 1029 1029 
1029 1029 1029 1029 1029 1029 1029 1029 1029 
1029 1029 1029 1029 1029 1029 1029 1029 1029 
1029 1029 1029 1029 1029 1029 1029 1029 1029 
1029 1029 1029 1029 1029 1029 1029 1029 1029 
1029 1029 1029 1029 1029 1029 1029 1029 1029 
1029 1029 1029 1029 1029 1029 1029 1029 1029 
1029 1029 1029 1029 1029 1029 1029 1029 1029 
1029 1029 1029 1029 1029 1029 1029 1029 1029 
1029 1029 1029 1029 1029 1029 1029 1029 1029 
1029 1029 1029 1029 1029 1029 1029 1029 1029 
1029 1029 1029 1029 1029 1029 1029 1029 1029 
1029 1029 1029 1029 1029 1029 1029 1029 1029 
1029 1029 1029 1029 1029 1029 1029 1029 1029 
1029 1029 1029 1029 1029 1029 1029 1029 1029 
1029 1029 1029 1029 1029 1029 1029 1029 1029 
1029 1029 1029 1029 1029 1029 1029 1029 1029 
1029 1029 1029 1029 1029 1029 1029 1029 1029 
1029 1029 1029 1029 1029 1029 1029 1029 1029 
1029 1029 1029 1029 1029 1029 1029 1029 1029 
1029 1029 1029 1029 1029 1029 1029 1029 1029 
1029 1029 1029 1029 1029 1029 1029 1029 1029 
1029 1029 1029 1029 1029 1029 1029 1029 1029 
1029 1029 1029 1029 1029 1029 1029 1029 1029 
1029 1029 1029 1029 1029 1029 1029 1029 1029 
1029 1029 1029 1029 1029 1029 1029 1029 1029 
1029 1029 1029 1029 1029 1029 1029 1029 1029 
1029 1029 1029 1029 1029 1029 1029 1029 1029 
1029 1029 1029 1029 1029 1029 1029 1029 1029 
1029 1029 1029 1029 1029 1029 1029 1029 1029 
1029 1029 1029 1029 1029 1029 1029 1029 1029 
1029 1029 1029 1029 1029 1029 1029 1029 1029 
1029 1029 1029 1029 1029 1029 1029 1029 1029 
1029 1029 1029 1029 1029 1029 1029 1029 1029 
1029 1029 1029 1029 1029 1029 1029 1029 1029 
1029 1029 1029 1029 1029 1029 1029 1029 1029 
1029 1029 1029 1029 1029 1029 1029 1029 1029 
1029 1029 1029 1029 1029 1029 1029 1029 1029 
1029 1029 1029 1029 1029 1029 1029 1029 1029 
1029 1029 1029 1029 1029 1029 1029 1029 1029 
1029 1029 1029 1029 1029 1029 1029 1029 1029 
1029 1029 1029 1029 1029 1029 1029 1029 1029 
1029 1029 1029 1029 1029 1029 1029 1029 1029 
1029 1029 1029 1029 1029 1029 1029 1029 1029 
1029 1029 1029 1029 1029 1029 1029 1029 1029 
1029 1029 1029 1029 1029 1029 1029 1029 1029 
1029 1029 1029 1029 1029 1029 1029 1029 1029 
1029 1029 1029 1029 1029 1029 1029 1029 1029 
1029 1029 1029 1029 1029 1029 1029 1029 1029 
1029 1029 1029 1029 1029 1029 1029 1029 1029 
1029 1029 1029 1029 1029 1029 1029 1029 1029 
1029 1029 1029 1029 1029 1029 1029 1029 1029 
1029 1029 1029 1029 1029 1029 1029 1029 1029 
1029 1029 1029 1029 1029 1029 1029 1029 1029 
1029 1029 1029 1029 1029 1029 1029 1029 1029 
1029 1029 1029 1029 1029 1029 1029 1029 1029 
1029 1029 1029 1029 1029 1029 1029 1029 1029 
1029 1029 1029 1029 1029 1029 1029 1029 1029 
1029 1029 1029 1029 1029 1029 1029 1029 1029 
1029 1029 1029 1029 1029 1029 1029 1029 1029 
1029 1029 1029 1029 1029 1029 1029 1029 1029 
1029 1029 1029 1029 1029 1029 1029 1029 1029 
1029 1029 1029 1029 1029 1029 1029 1029 1029 
1029 1029 1029 1029 1029 1029 1029 1029 1029 
1029 1029 1029 1029 1029 1029 1029 1029 1029 
1029 1029 1029 1029 1029 1029 1029 1029 1029 
1029 1029 1029 1029 1029 1029 1029 1029 1029 
1029 1029 1029 1029 1029 1029 1029 1029 1029 
1029 1029 1029 1029 1029 1029 1029 1029 1029 
1029 1029 1029 1029 1029 1029 1029 1029 1029 
1029 1029 1029 1029 1029 1029 1029 1029 1029 
1029 1029 1029 1029 1029 1029 1029 1029 1029 
1029 1029 1029 1029 1029 1029 1029 1029 1029 
1029 1029 1029 1029 1029 1029 1029 1029 1029 
1029 1029 1029 1029 1029 1029 1029 1029 1029 
1029 1029 1029 1029 1029 1029 1029 1029 1029 
1029 1029 1029 1029 1029 1029 1029 1029 1029 
1029 1029 1029 1029 1029 1029 1029 1029 1029 
1029 1029 1029 1029 1029 1029 1029 1029 1029 
1029 1029 1029 1029 1029 1029 1029 1029 1029 
1029 1029 1029 1029 1029 1029 1029 1029 1029 
1029 1029 1029 1029 1029 1029 1029 1029 1029 
1029 1029 1029 1029 1029 1029 1029 1029 1029 
1029 1029 1029 1029 1029 1029 1029 1029 1029 
1029 1029 1029 1029 1029 1029 1029 1029 1029 
1029 1029 1029 1029 1029 1029 1029 1029 1029 
1029 1029 1029 1029 1029 1029 1029 1029 1029 
1029 1029 1029 1029 1029 1029 1029 1029 1029 
1029 1029 1029 1029 1029 1029 1029 1029 1029 
1029 1029 1029 1029 1029 1029 1029 1029 1029 
1029 1029 1029 1029 1029 1029 1029 1029 1029 
1029 1029 1029 1029 1029 1029 1029 1029 1029 
1029 1029 1029 1029 1029 1029 1029 1029 1029 
1029 1029 1029 1029 1029 1029 1029 1029 1029 
1029 1029 1029 1029 1029 1029 1029 1029 1029 
1029 1029 1029 1029 1029 1029 1029 1029 1029 
1029 1029 1029 1029 1029 1029 1029 1029 1029 
1029 1029 1029 1029 1029 1029 1029 1029 1029 
1029 1029 1029 1029 1029 1029 1029 1029 1029 
1029 1029 1029 1029 1029 1029 1029 1029 1029 
1029 1029 1029 1029 1029 1029 1029 1029 1029 
1029 1029 1029 1029 1029 1029 1029 1029 1029 
1029 1029 1029 1029 1029 1029 1029 1029 1029 
1029 1029 1029 1029 1029 1029 1029 1029 1029 
1029 1029 1029 1029 1029 1029 1029 1029 1029 
1029 1029 1029 1029 1029 1029 1029 1029 1029 
1029 1029 1029 1029 1029 1029 1029 1029 1029 
1029 1029 1029 1029 1029 1029 1029 1029 1029 
1029 1029 1029 1029 1029 1029 1029 1029 1029 
1029 1029 1029 1029 1029 1029 1029 1029 1029 
1029 1029 1029 1029 1029 1029 1029 1029 1029 
1029 1029 1029 1029 1029 1029 1029 1029 1029 
1029 1029 1029 1029 1029 1029 1029 1029 1029 
1029 1029 1029 1029 1029 1029 1029 1029 1029 
1029 1029 1029 1029 1029 1029 1029 1029 1029 
1029 1029 1029 1029 1029 1029 1029 1029 1029 
1029 1029 1029 1029 1029 1029 1029 1029 1029 
1029 1029 1029 1029 1029 1029 1029 1029 1029 
1029 1029 1029 1029 1029 1029 1029 1029 1029 
1029 1029 1029 1029 1029 1029 1029 1029 1029 
1029 1029 1029 1029 1029 1029 1029 1029 1029 
1029 1029 1029 1029 1029 1029 1029 1029 1029 
1029 1029 1029 1029 1029 1029 1029 1029 1029 
1029 1029 1029 1029 1029 1029 1029 1029 1029 
1029 1029 1029 1029 1029 1029 1029 1029 1029 
1029 1029 1029 1029 1029 1029 1029 1029 1029 
1029 1029 1029 1029 1029 1029 1029 1029 1029 
1029 1029 1029 1029 1029 1029 1029 1029 1029 
1029 1029 1029 1029 1029 1029 1029 1029 1029 
1029 1029 1029 1029 1029 1029 1029 1029 1029 
1029 1029 1029 1029 1029 1029 1029 1029 1029 
1029 1029 1029 1029 1029 1029 1029 1029 1029 
1029 1029 1029 1029 1029 1029 1029 1029 1029 
1029 1029 1029 1029 1029 1029 1029 1029 1029 
1029 1029 1029 1029 1029 1029 1029 1029 1029 
1029 1029 1029 1029 1029 1029 1029 1029 1029 
1029 1029 1029 1029 1029 1029 1029 1029 1029 
1029 1029 1029 1029 1029 1029 1029 1029 1029 
1029 1029 1029 1029 1029 1029 1029 1029 1029 
1029 1029 1029 1029 1029 1029 1029 1029 1029 
1029 1029 1029 1029 1029 1029 1029 1029 1029 
1029 1029 1029 1029 1029 1029 1029 1029 1029 
1029 1029 1029 1029 1029 1029 1029 1029 1029 
1029 1029 1029 1029 1029 1029 1029 1029 1029 
1029 1029 1029 1029 1029 1029 1029 1029 1029 
1029 1029 1029 1029 1029 1029 1029 1029 1029 
1029 1029 1029 1029 1029 1029 1029 1029 1029 
1029 1029 1029 1029 1029 1029 1029 1029 1029 
1029 1029 1029 1029 1029 1029 1029 1029 1029 
1029 1029 1029 1029 1029 1029 1029 1029 1029 
1029 1029 1029 1029 1029 1029 1029 1029 1029 
1029 1029 1029 1029 1029 1029 1029 1029 1029 
1029 1029 1029 1029 1029 1029 1029 1029 1029 
1029 1029 1029 1029 1029 1029 1029 1029 1029 
1029 1029 1029 1029 1029 1029 1029 1029 1029 
1029 1029 1029 1029 1029 1029 1029 1029 1029 
1029 1029 1029 1029 1029 1029 1029 1029 1029 
1029 1029 1029 1029 1029 1029 1029 1029 1029 
1029 1029 1029 1029 1029 1029 1029 1029 1029 
1029 1029 1029 1029 1029 1029 1029 1029 1029 
1029 1029 1029 1029 1029 1029 1029 1029 1029 
1029 1029 1029 1029 1029 1029 1029 1029 1029 
1029 1029 1029 1029 1029 1029 1029 1029 1029 
1029 1029 1029 1029 1029 1029 1029 1029 1029 
1029 1029 1029 1029 1029 1029 1029 1029 1029 
1029 1029 1029 1029 1029 1029 1029 1029 1029 
1029 1029 1029 1029 1029 1029 1029 1029 1029 
1029 1029 1029 1029 1029 1029 1029 1029 1029 
1029 1029 1029 1029 1029 1029 1029 1029 1029 
1029 1029 1029 1029 1029 1029 1029 1029 1029 
1029 1029 1029 1029 1029 1029 1029 1029 1029 
1029 1029 1029 1029 1029 1029 1029 1029 1029 
1029 1029 1029 1029 1029 1029 1029 1029 1029 
1029 1029 1029 1029 1029 1029 1029 1029 1029 
1029 1029 1029 1029 1029 1029 1029 1029 1029 
1029 1029 1029 1029 1029 1029 1029 1029 1029 
1029 1029 1029 1029 1029 1029 1029 1029 1029 
1029 1029 1029 1029 1029 1029 1029 1029 1029 
1029 1029 1029 1029 1029 1029 1029 1029 1029 
1029 1029 1029 1029 1029 1029 1029 1029 1029 
1029 1029 1029 1029 1029 1029 1029 1029 1029 
1029 1029 1029 1029 1029 1029 1029 1029 1029 
1029 1029 1029 1029 1029 1029 1029 1029 1029 
1029 1029 1029 1029 1029 1029 1029 1029 1029 
1029 1029 1029 1029 1029 1029 1029 1029 1029 
1029 1029 1029 1029 1029 1029 1029 1029 1029 
1029 1029 1029 1029 1029 1029 1029 1029 1029 
1029 1029 1029 1029 1029 1029 1029 1029 1029 
1029 1029 1029 1029 1029 1029 1029 1029 1029 
1029 1029 1029 1029 1029 1029 1029 1029 1029 
1029 1029 1029 1029 1029 1029 1029 1029 1029 
1029 1029 1029 1029 1029 1029 1029 1029 1029 
1029 1029 1029 1029 1029 1029 1029 1029 1029 
1029 1029 1029 1029 1029 1029 1029 1029 1029 
1029 1029 1029 1029 1029 1029 1029 1029 1029 
1029 1029 1029 1029 1029 1029 1029 1029 1029 
1029 1029 1029 1029 1029 1029 1029 1029 1029 
1029 1029 1029 1029 1029 1029 1029 1029 1029 
1029 1029 1029 1029 1029 1029 1029 1029 1029 
1029 1029 1029 1029 1029 1029 1029 1029 1029 
1029 1029 1029 1029 1029 1029 1029 1029 1029 
1029 1029 1029 1029 1029 1029 1029 1029 1029 
1029 1029 1029 1029 1029 1029 1029 1029 1029 
1029 1029 1029 1029 1029 1029 1029 1029 1029 
1029 1029 1029 1029 1029 1029 1029 1029 1029 
1029 1029 1029 1029 1029 1029 1029 1029 1029 
1029 1029 1029 1029 1029 1029 1029 1029 1029 
1029 1029 1029 1029 1029 1029 1029 1029 1029 
1029 1029 1029 1029 1029 1029 1029 1029 1029 
1029 1029 1029 1029 1029 1029 1029 1029 1029 
1029 1029 1029 1029 1029 1029 1029 1029 1029 
1029 1029 1029 1029 1029 1029 1029 1029 1029 
1029 1029 1029 1029 1029 1029 1029 1029 1029 
1029 1029 1029 1029 1029 1029 1029 1029 1029 
1029 1029 1029 1029 1029 1029 1029 1029 1029 
1029 1029 1029 1029 1029 1029 1029 1029 1029 
1029 1029 1029 1029 1029 1029 1029 1029 1029 
1029 1029 1029 1029 1029 1029 1029 1029 1029 
1029 1029 1029 1029 1029 1029 1029 1029 1029 
1029 1029 1029 1029 1029 1029 1029 1029 1029 
1029 1029 1029 1029 1029 1029 1029 1029 1029 
1029 1029 1029 1029 1029 1029 1029 1029 1029 
1029 1029 1029 1029 1029 1029 1029 1029 1029 
1029 1029 1029 1029 1029 1029 1029 1029 1029 
1029 1029 1029 1029 1029 1029 1029 1029 1029 
1029 1029 1029 1029 1029 1029 1029 1029 1029 
1029 1029 1029 1029 1029 1029 1029 1029 1029 
1029 1029 1029 1029 1029 1029 1029 1029 1029 
1029 1029 1029 1029 1029 1029 1029 1029 1029 
1029 1029 1029 1029 1029 1029 1029 1029 1029 
1029 1029 1029 1029 1029 1029 1029 1029 1029 
1029 1029 1029 1029 1029 1029 1029 1029 1029 
1029 1029 1029 1029 1029 1029 1029 1029 1029 
1029 1029 1029 1029 1029 1029 1029 1029 1029 
1029 1029 1029 1029 1029 1029 1029 1029 1029 
1029 1029 1029 1029 1029 1029 1029 1029 1029 
1029 1029 1029 1029 1029 1029 1029 1029 1029 
1029 1029 1029 1029 1029 1029 1029 1029 1029 
1029 1029 1029 1029 1029 1029 1029 1029 1029 
1029 1029 1029 1029 1029 1029 1029 1029 1029 
1029 1029 1029 1029 1029 1029 1029 1029 1029 
1029 1029 1029 1029 1029 1029 1029 1029 1029 
1029 1029 1029 1029 1029 1029 1029 1029 1029 
1029 1029 1029 1029 1029 1029 1029 1029 1029 
1029 1029 1029 1029 1029 1029 1029 1029 1029 
1029 1029 1029 1029 1029 1029 1029 1029 1029 
1029 1029 1029 1029 1029 1029 1029 1029 1029 
1029 1029 1029 1029 1029 1029 1029 1029 1029 
1029 1029 1029 1029 1029 1029 1029 1029 1029 
1029 1029 1029 1029 1029 1029 1029 1029 1029 
1029 1029 1029 1029 1029 1029 1029 1029 1029 
1029 1029 1029 1029 1029 1029 1029 1029 1029 
1029 1029 1029 1029 1029 1029 1029 1029 1029 
1029 1029 1029 1029 1029 1029 1029 1029 1029 
1029 1029 1029 1029 1029 1029 1029 1029 1029 
1029 1029 1029 1029 1029 1029 1029 1029 1029 
1029 1029 1029 1029 1029 1029 1029 1029 1029 
1029 1029 1029 1029 1029 1029 1029 1029 1029 
1029 1029 1029 1029 1029 1029 1029 1029 1029 
1029 1029 1029 1029 1029 1029 1029 1029 1029 
1029 1029 1029 1029 1029 1029 1029 1029 1029 
1029 1029 1029 1029 1029 1029 1029 1029 1029 
1029 1029 1029 1029 1029 1029 1029 1029 1029 
1029 1029 1029 1029 1029 1029 1029 1029 1029 
1029 1029 1029 1029 1029 1029 1029 1029 1029 
1029 1029 1029 1029 1029 1029 1029 1029 1029 
1029 1029 1029 1029 1029 1029 1029 1029 1029 
1029 1029 1029 1029 1029 1029 1029 1029 1029 
1029 1029 1029 1029 1029 1029 1029 1029 1029 
1029 1029 1029 1029 1029 1029 1029 1029 1029 
1029 1029 1029 1029 1029 1029 1029 1029 1029 
1029 1029 1029 1029 1029 1029 1029 1029 1029 
1029 1029 1029 1029 1029 1029 1029 1029 1029 
1029 1029 1029 1029 1029 1029 1029 1029 1029 
1029 1029 1029 1029 1029 1029 1029 1029 1029 
1029 1029 1029 1029 1029 1029 1029 1029 1029 
1029 1029 1029 1029 1029 1029 1029 1029 1029 
1029 1029 1029 1029 1029 1029 1029 1029 1029 
1029 1029 1029 1029 1029 1029 1029 1029 1029 
1029 1029 1029 1029 1029 1029 1029 1029 1029 
1029 1029 1029 1029 1029 1029 1029 1029 1029 
1029 1029 1029 1029 1029 1029 1029 1029 1029 
1029 1029 1029 1029 1029 1029 1029 1029 1029 
1029 1029 1029 1029 1029 1029 1029 1029 1029 
1029 1029 1029 1029 1029 1029 1029 1029 1029 
1029 1029 1029 1029 1029 1029 1029 1029 1029 
1029 1029 1029 1029 1029 1029 1029 1029 1029 
1029 1029 1029 1029 1029 1029 1029 1029 1029 
1029 1029 1029 1029 1029 1029 1029 1029 1029 
1029 1029 1029 1029 1029 1029 1029 1029 1029 
1029 1029 1029 1029 1029 1029 1029 1029 1029 
1029 1029 1029 1029 1029 1029 1029 1029 1029 
1029 1029 1029 1029 1029 1029 1029 1029 1029 
1029 1029 1029 1029 1029 1029 1029 1029 1029 
1029 1029 1029 1029 1029 1029 1029 1029 1029 
1029 1029 1029 1029 1029 1029 1029 1029 1029 
1029 1029 1029 1029 1029 1029 1029 1029 1029 
1029 1029 1029 1029 1029 1029 1029 1029 1029 
1029 1029 1029 1029 1029 1029 1029 1029 1029 
1029 1029 1029 1029 1029 1029 1029 1029 1029 
1029 1029 1029 1029 1029 1029 1029 1029 1029 
1029 1029 1029 1029 1029 1029 1029 1029 1029 
1029 1029 1029 1029 1029 1029 1029 1029 1029 
1029 1029 1029 1029 1029 1029 1029 1029 1029 
1029 1029 1029 1029 1029 1029 1029 1029 1029 
1029 1029 1029 1029 1029 1029 1029 1029 1029 
1029 1029 1029 1029 1029 1029 1029 1029 1029 
1029 1029 1029 1029 1029 1029 1029 1029 1029 
1029 1029 1029 1029 1029 1029 1029 1029 1029 
1029 1029 1029 1029 1029 1029 1029 1029 1029 
1029 1029 1029 1029 1029 1029 1029 1029 1029 
1029 1029 1029 1029 1029 1029 1029 1029 1029 
1029 1029 1029 1029 1029 1029 1029 1029 1029 
1029 1029 1029 1029 1029 1029 1029 1029 1029 
1029 1029 1029 1029 1029 1029 1029 1029 1029 
1029 1029 1029 1029 1029 1029 1029 1029 1029 
1029 1029 1029 1029 1029 1029 1029 1029 1029 
1029 1029 1029 1029 1029 1029 1029 1029 1029 
1029 1029 1029 1029 1029 1029 1029 1029 1029 
1029 1029 1029 1029 1029 1029 1029 1029 1029 
1029 1029 1029 1029 1029 1029 1029 1029 1029 
1029 1029 1029 1029 1029 1029 1029 1029 1029 
1029 1029 1029 1029 1029 1029 1029 1029 1029 
1029 1029 1029 1029 1029 1029 1029 1029 1029 
1029 1029 1029 1029 1029 1029 1029 1029 1029 
1029 1029 1029 1029 1029 1029 1029 1029 1029 
1029 1029 1029 1029 1029 1029 1029 1029 1029 
1029 1029 1029 1029 1029 1029 1029 1029 1029 
1029 1029 1029 1029 1029 1029 1029 1029 1029 
1029 1029 1029 1029 1029 1029 1029 1029 1029 
1029 1029 1029 1029 1029 1029 1029 1029 1029 
1029 1029 1029 1029 1029 1029 1029 1029 1029 