# vtk DataFile Version 4.2
vtk output
ASCII
DATASET POLYDATA
POINTS 7222 float
15.0833 -21.3837 19.6473 15.1387 -21.1287 19.4918 15.4356 -21.3235 19.4723 
14.9817 -21.257 19.4124 15.1466 -21.8689 19.6922 15.4722 -22.0418 19.5594 
14.9171 -21.7245 19.4661 16.354 -22.628 19.6249 16.499 -22.3285 19.4914 
16.6501 -22.6959 19.5477 16.1946 -22.4395 19.4788 15.1918 -22.3674 19.6625 
15.3555 -22.574 19.509 14.9445 -22.4161 19.4136 16.4323 -22.9473 19.6301 
16.6375 -23.0404 19.5422 16.1037 -23.0257 19.4341 15.0933 -22.7783 19.4414 
17.0063 -23.7399 19.596 17.0991 -23.5774 19.5083 17.2343 -23.7744 19.4449 
16.4814 -23.1991 19.4399 16.8921 -23.6295 19.4444 17.0168 -23.8505 19.3186 
15.7261 -20.1839 19.041 15.9399 -19.8876 18.7863 16.0636 -20.2385 18.9548 
15.6088 -20.0265 18.7982 15.767 -20.7522 19.1594 16.1989 -20.7102 18.9841 
15.4497 -20.6171 18.7816 16.2799 -21.3035 19.1355 16.4517 -20.9292 18.8297 
16.6887 -21.2991 18.8332 15.8443 -21.237 19.2881 15.2225 -21.0306 19.1505 
14.973 -21.4805 19.029 16.9201 -21.8436 19.117 17.1124 -21.6251 18.7356 
17.3693 -21.9677 18.9804 16.3697 -22.0225 19.3045 15.8709 -21.7148 19.3303 
14.9292 -22.0838 19.021 17.4114 -22.4295 19.1254 17.6266 -22.1839 18.9511 
17.876 -22.5721 18.8859 16.8758 -22.366 19.3201 15.7713 -22.5078 19.3736 
14.9508 -22.6453 18.9359 17.6312 -22.9992 19.1149 17.9614 -23.2592 18.9086 
16.9571 -23.1606 19.3146 15.6241 -23.2238 19.2812 15.2403 -23.125 19.2398 
14.96 -23.1564 18.9313 17.5196 -23.5257 19.2001 17.8244 -23.7712 18.874 
16.3438 -23.4874 19.1013 16.7258 -23.6782 19.0854 15.8138 -23.5792 19.1386 
16.0067 -23.8191 18.8734 15.3237 -23.6709 19.0867 14.9948 -23.6278 18.9107 
17.3807 -23.9694 19.0101 16.9214 -23.9574 18.9076 15.5419 -23.9878 18.7909 
15.1251 -23.9187 18.7605 16.3133 -20.0386 18.6273 16.2589 -19.8354 18.2106 
16.5553 -20.1871 18.3156 15.7851 -19.8274 18.4417 15.5371 -20.1239 18.3327 
16.4145 -20.4619 18.6831 16.6361 -20.7213 18.3644 15.4468 -20.5852 18.2018 
16.8079 -21.2223 18.3738 15.2009 -21.2345 18.7322 15.3923 -21.2222 18.3006 
17.6512 -21.9801 18.714 17.5195 -21.702 18.3055 17.9011 -21.9479 18.3381 
17.1266 -21.4806 18.2185 15.1588 -21.7678 18.6218 15.4003 -21.9162 18.2336 
18.1003 -22.341 18.5385 18.203 -22.1918 18.1134 18.3814 -22.5909 18.3157 
15.1625 -22.376 18.6187 15.397 -22.5185 18.2237 18.2937 -23.0089 18.6163 
18.598 -23.0238 18.294 15.1444 -22.9412 18.558 15.3535 -23.1665 18.0895 
18.5988 -23.6483 18.5168 18.7988 -23.3675 18.312 19.0354 -23.7971 18.3068 
18.1481 -23.7173 18.692 16.4513 -23.9248 18.7502 15.0889 -23.3951 18.3959 
14.9938 -23.7211 18.5154 18.7913 -24.3865 18.5619 19.2233 -24.3732 18.3948 
18.1913 -24.3197 18.6321 17.6351 -24.2879 18.6922 16.9878 -24.2445 18.6832 
16.5004 -24.4271 18.5292 15.9558 -24.2181 18.5831 15.5105 -24.2838 18.2075 
15.2458 -23.9722 18.3471 19.2699 -24.7725 18.476 19.5299 -24.6641 18.3048 
19.5971 -24.9122 18.3214 18.8819 -24.9148 18.5361 18.2463 -24.9302 18.5813 
17.6985 -24.8207 18.6282 17.1 -24.8841 18.5263 16.5973 -24.939 18.2092 
16.1774 -24.6367 18.3392 15.7708 -24.594 18.2402 19.3812 -25.1508 18.2386 
18.6514 -25.2296 18.3468 18.1282 -25.3261 18.3905 17.9135 -25.5648 18.2331 
17.634 -25.3152 18.4957 17.2131 -25.4259 18.3781 16.9267 -25.2803 18.239 
17.4776 -25.6906 18.1319 16.3086 -19.6816 17.5892 16.627 -20.0716 17.7666 
15.8534 -19.8229 17.8865 15.5494 -20.1579 17.7136 16.7563 -20.7461 17.7522 
15.4618 -20.697 17.6873 16.9159 -21.2234 17.9813 16.9625 -21.072 17.5102 
17.1573 -21.3642 17.7664 15.4792 -21.312 17.7109 17.5049 -21.6118 17.6703 
17.8927 -21.8795 17.8736 15.5013 -21.9249 17.7357 18.1904 -22.1805 17.5589 
18.5081 -22.5676 17.8793 15.5668 -22.5781 17.7327 18.8793 -23.1377 18.0262 
18.7823 -22.8094 17.538 19.0973 -23.1617 17.7162 15.5935 -23.2172 17.7156 
19.3649 -23.6472 17.9672 19.3909 -23.4228 17.5456 19.7079 -23.7694 17.7309 
15.1881 -23.6586 18.1434 15.4611 -23.8315 17.7558 19.8725 -24.1629 17.9189 
20.1281 -24.0109 17.5362 20.3145 -24.4683 17.7193 19.5048 -24.2533 18.165 
15.4333 -24.3172 17.7127 19.882 -24.7704 18.0382 20.2506 -24.9554 17.6948 
16.3109 -24.8886 18.1018 15.9759 -24.8952 17.9971 15.4391 -24.8081 17.6144 
19.8666 -25.265 17.8361 19.4554 -25.484 17.9107 19.6574 -25.6258 17.6732 
18.9574 -25.5062 18.0127 18.3712 -25.5298 18.0843 17.0651 -25.576 18.0844 
16.7551 -25.4643 17.7422 16.3673 -25.1484 17.7222 15.8804 -25.1857 17.5504 
19.2033 -25.7809 17.7007 18.6414 -25.811 17.7303 18.0088 -25.8243 17.8302 
17.4772 -25.9294 17.725 17.0698 -25.8254 17.7115 16.2977 -19.4589 17.2507 
16.4344 -19.3205 16.9823 16.5815 -19.594 17.2257 16.1146 -19.4084 16.9123 
16.775 -20.1216 17.1168 15.88 -19.7307 17.2732 15.5413 -20.1521 17.0977 
16.8434 -20.6955 17.2197 15.465 -20.6784 17.0761 17.0286 -20.9115 17.0429 
17.2724 -21.2685 17.1631 15.4759 -21.2782 17.1111 17.5887 -21.6231 16.9382 
17.8759 -21.9723 17.1705 15.5578 -21.9171 17.1615 18.1302 -22.2987 17.0652 
18.4262 -22.4905 17.2913 15.7451 -22.4476 17.3503 15.9394 -22.6402 17.1487 
15.767 -22.2393 16.929 18.6799 -22.7873 16.9422 19.0788 -23.075 17.2605 
15.8723 -23.022 17.4453 16.1401 -23.065 17.0608 19.3888 -23.3852 16.974 
19.7097 -23.6831 17.2896 16.2441 -23.5462 17.2542 16.5041 -23.7374 17.0681 
16.4025 -23.4565 16.9329 15.8711 -23.6214 17.4187 20.5558 -24.2779 17.4304 
20.424 -24.1 17.0458 20.7793 -24.4552 17.1108 20.0026 -23.8822 17.0401 
16.3394 -23.9789 17.0348 15.7786 -24.004 17.2065 15.4873 -24.3086 17.3006 
20.593 -24.8157 17.4334 20.8454 -24.9647 17.1195 15.2978 -24.6804 17.0577 
15.1088 -24.9116 17.2789 15.0542 -24.9212 17.1046 20.5632 -25.4538 17.2912 
20.8284 -25.5373 16.9157 20.1105 -25.4727 17.5203 16.5458 -25.4822 17.255 
16.2441 -25.3524 17.2633 15.8854 -25.4433 17.2509 16.0606 -25.6031 17.0525 
15.3996 -25.3803 17.0141 15.1483 -25.0584 17.2119 20.5219 -25.8746 17.1559 
20.3051 -26.1349 17.1315 20.1457 -25.9603 17.3018 19.5669 -26.0214 17.4176 
18.9258 -26.1204 17.4214 18.3446 -26.1125 17.4248 17.741 -26.1238 17.4263 
17.188 -26.1231 17.3609 16.718 -26.0218 17.103 15.7408 -25.7352 17.0098 
19.9663 -26.3774 17.0493 19.2373 -26.4446 17.1402 18.6248 -26.427 17.0211 
18.0222 -26.3223 17.0155 17.4187 -26.3247 17.0287 17.0326 -26.2863 17.0424 
16.3967 -19.2847 16.5236 16.6987 -19.5861 16.6195 16.0551 -19.4203 16.3565 
16.9331 -20.001 16.677 16.933 -19.8933 16.3985 17.11 -20.2845 16.4457 
15.7542 -19.7286 16.671 15.5236 -20.1467 16.4826 16.9848 -20.4782 16.8177 
17.2042 -20.8243 16.6309 15.4445 -20.6699 16.4609 17.4222 -21.2403 16.5441 
15.4449 -21.2641 16.4973 17.636 -21.5263 16.4258 17.8034 -21.8502 16.5079 
15.546 -21.8033 16.4916 18.2742 -22.5414 16.8549 18.0184 -22.3102 16.5888 
15.9995 -22.5911 16.6945 15.7709 -22.1969 16.3532 18.7917 -22.8904 16.4115 
19.0833 -23.0934 16.668 18.3824 -22.6658 16.4326 16.2251 -23.0332 16.5757 
19.3932 -23.4004 16.3539 19.6887 -23.6872 16.682 16.6779 -23.7182 16.694 
16.4167 -23.3645 16.5978 20.6671 -24.3569 16.774 20.3985 -24.2268 16.555 
20.0473 -23.9873 16.4605 17.4962 -24.25 16.6524 17.7463 -24.3084 16.5215 
17.6382 -24.1433 16.4145 17.2242 -23.9604 16.4428 16.9897 -24.2394 16.7426 
16.4803 -24.3522 16.7557 15.8642 -24.3347 16.8597 20.6096 -24.5325 16.3146 
20.8745 -24.848 16.688 17.5788 -24.5788 16.488 16.8657 -24.6136 16.5316 
16.2324 -24.599 16.4948 15.6369 -24.6832 16.5982 15.2435 -24.9486 16.8877 
15.4884 -25.0062 16.5009 21.0077 -25.4871 16.4452 16.3369 -25.7132 16.9623 
15.2526 -25.2558 16.466 15.1282 -25.4813 16.6955 14.997 -25.5291 16.3173 
20.5468 -26.1055 16.914 20.8535 -26.0747 16.5668 16.2682 -26.2087 16.8314 
15.8958 -26.0755 16.8038 15.4409 -26.0184 16.689 15.1155 -25.801 16.5286 
20.4603 -26.4791 16.6597 20.0548 -26.6999 16.7391 20.3654 -26.7826 16.4376 
19.5496 -26.7428 16.8451 18.9832 -26.7417 16.8054 18.602 -26.6763 16.5777 
18.174 -26.457 16.4221 17.5734 -26.3745 16.5013 16.9732 -26.419 16.6589 
16.4566 -26.5479 16.7096 16.6432 -26.7932 16.2896 15.9858 -26.6154 16.6761 
15.5178 -26.5204 16.5114 19.9037 -26.9217 16.3847 19.2459 -26.946 16.4443 
18.7985 -26.8781 16.3934 16.1734 -26.9586 16.5046 15.7145 -26.9155 16.472 
16.5026 -19.2549 15.8816 16.6957 -19.5323 15.9182 16.0537 -19.5445 15.7211 
17.0406 -20.1721 16.1423 16.8203 -19.8975 16.0312 15.7328 -19.7922 16.0841 
15.5421 -20.2815 15.8263 17.1112 -20.3484 15.6846 17.3295 -20.7017 16.0953 
15.4245 -20.7806 15.9536 17.5707 -21.2041 16.1385 17.6459 -20.9496 15.8029 
17.7915 -21.3896 15.9208 15.4419 -21.2942 15.8985 17.946 -21.9496 15.9507 
15.5762 -21.8147 15.9267 18.1335 -22.4149 16.1779 18.1682 -22.2744 15.729 
18.3753 -22.5666 15.9674 16.0721 -22.5392 16.0002 15.7932 -22.1059 15.8386 
18.7156 -22.8284 15.8582 19.09 -23.1123 16.0667 16.4521 -23.177 16.2373 
16.6772 -23.2066 15.9086 16.3856 -22.8518 15.7195 19.3877 -23.3962 15.7492 
19.6842 -23.7028 16.0522 16.8837 -23.5519 16.2043 17.2085 -23.7343 15.9796 
16.9781 -23.4436 15.7398 19.9767 -24.0004 15.7523 20.2786 -24.2873 16.0405 
17.9095 -24.3673 16.1417 17.5615 -24.0011 15.8842 20.5679 -24.5896 15.735 
20.9111 -24.9817 16.0531 18.1107 -24.7985 16.1341 18.3746 -24.9452 15.783 
18.2661 -24.6407 15.7414 17.7529 -24.9616 16.2045 17.1999 -24.923 16.2385 
16.5655 -24.8912 16.1873 15.9646 -24.8739 16.2113 21.1657 -25.4587 16.104 
21.1982 -25.2313 15.7093 21.363 -25.6516 15.9057 18.0564 -25.097 15.8581 
17.4655 -25.1496 15.8499 16.8313 -25.1241 15.814 16.2133 -25.087 15.8004 
15.6359 -25.0888 16.0156 15.2191 -25.2843 15.9584 14.983 -25.5872 15.8961 
21.1689 -26.0339 16.2151 21.5048 -26.1858 15.8632 15.1251 -26.3122 16.2625 
14.9451 -26.0849 15.9095 21.2166 -26.5852 16.0872 21.4082 -26.7844 15.8947 
20.8153 -26.6237 16.2725 18.451 -26.7086 16.0832 18.0066 -26.4858 15.7355 
17.6651 -26.3593 15.9531 17.1181 -26.4654 15.9773 16.8271 -26.7992 15.8504 
15.225 -26.9002 16.2028 14.9327 -26.6402 15.9033 21.0305 -26.9956 15.9412 
20.4449 -27.0165 15.9205 19.9047 -27.0012 15.8014 19.3843 -27.0093 15.8873 
18.7421 -26.9402 15.8481 16.2811 -27.3306 16.2615 16.6761 -27.3581 15.9476 
15.6798 -27.3333 16.3081 15.1413 -27.4543 16.1299 14.9636 -27.257 15.8398 
[...]
CELL_DATA 14464
SCALARS scalars float
LOOKUP_TABLE default
2035 2035 2035 2035 2035 2035 2035 2035 2035 
2035 2035 2035 2035 2035 2035 2035 2035 2035 
2035 2035 2035 2035 2035 2035 2035 2035 2035 
2035 2035 2035 2035 2035 2035 2035 2035 2035 
2035 2035 2035 2035 2035 2035 2035 2035 2035 
2035 2035 2035 2035 2035 2035 2035 2035 2035 
2035 2035 2035 2035 2035 2035 2035 2035 2035 
2035 2035 2035 2035 2035 2035 2035 2035 2035 
2035 2035 2035 2035 2035 2035 2035 2035 2035 
2035 2035 2035 2035 2035 2035 2035 2035 2035 
2035 2035 2035 2035 2035 2035 2035 2035 2035 
2035 2035 2035 2035 2035 2035 2035 2035 2035 
2035 2035 2035 2035 2035 2035 2035 2035 2035 
2035 2035 2035 2035 2035 2035 2035 2035 2035 
2035 2035 2035 2035 2035 2035 2035 2035 2035 
2035 2035 2035 2035 2035 2035 2035 2035 2035 
2035 2035 2035 2035 2035 2035 2035 2035 2035 
2035 2035 2035 2035 2035 2035 2035 2035 2035 
2035 2035 2035 2035 2035 2035 2035 2035 2035 
2035 2035 2035 2035 2035 2035 2035 2035 2035 
2035 2035 2035 2035 2035 2035 2035 2035 2035 
2035 2035 2035 2035 2035 2035 2035 2035 2035 
2035 2035 2035 2035 2035 2035 2035 2035 2035 
2035 2035 2035 2035 2035 2035 2035 2035 2035 
2035 2035 2035 2035 2035 2035 2035 2035 2035 
2035 2035 2035 2035 2035 2035 2035 2035 2035 
2035 2035 2035 2035 2035 2035 2035 2035 2035 
2035 2035 2035 2035 2035 2035 2035 2035 2035 
2035 2035 2035 2035 2035 2035 2035 2035 2035 
2035 2035 2035 2035 2035 2035 2035 2035 2035 
2035 2035 2035 2035 2035 2035 2035 2035 2035 
2035 2035 2035 2035 2035 2035 2035 2035 2035 
2035 2035 2035 2035 2035 2035 2035 2035 2035 
2035 2035 2035 2035 2035 2035 2035 2035 2035 
2035 2035 2035 2035 2035 2035 2035 2035 2035 
2035 2035 2035 2035 2035 2035 2035 2035 2035 
2035 2035 2035 2035 2035 2035 2035 2035 2035 
2035 2035 2035 2035 2035 2035 2035 2035 2035 
2035 2035 2035 2035 2035 2035 2035 2035 2035 
2035 2035 2035 2035 2035 2035 2035 2035 2035 
2035 2035 2035 2035 2035 2035 2035 2035 2035 
2035 2035 2035 2035 2035 2035 2035 2035 2035 
2035 2035 2035 2035 2035 2035 2035 2035 2035 
2035 2035 2035 2035 2035 2035 2035 2035 2035 
2035 2035 2035 2035 2035 2035 2035 2035 2035 
2035 2035 2035 2035 2035 2035 2035 2035 2035 
2035 2035 2035 2035 2035 2035 2035 2035 2035 
2035 2035 2035 2035 2035 2035 2035 2035 2035 
2035 2035 2035 2035 2035 2035 2035 2035 2035 
2035 2035 2035 2035 2035 2035 2035 2035 2035 
2035 2035 2035 2035 2035 2035 2035 2035 2035 
2035 2035 2035 2035 2035 2035 2035 2035 2035 
2035 2035 2035 2035 2035 2035 2035 2035 2035 
2035 2035 2035 2035 2035 2035 2035 2035 2035 
2035 2035 2035 2035 2035 2035 2035 2035 2035 
2035 2035 2035 2035 2035 2035 2035 2035 2035 
2035 2035 2035 2035 2035 2035 2035 2035 2035 
2035 2035 2035 2035 2035 2035 2035 2035 2035 
2035 2035 2035 2035 2035 2035 2035 2035 2035 
2035 2035 2035 2035 2035 2035 2035 2035 2035 
2035 2035 2035 2035 2035 2035 2035 2035 2035 
2035 2035 2035 2035 2035 2035 2035 2035 2035 
2035 2035 2035 2035 2035 2035 2035 2035 2035 
2035 2035 2035 2035 2035 2035 2035 2035 2035 
2035 2035 2035 2035 2035 2035 2035 2035 2035 
2035 2035 2035 2035 2035 2035 2035 2035 2035 
2035 2035 2035 2035 2035 2035 2035 2035 2035 
2035 2035 2035 2035 2035 2035 2035 2035 2035 
2035 2035 2035 2035 2035 2035 2035 2035 2035 
2035 2035 2035 2035 2035 2035 2035 2035 2035 
2035 2035 2035 2035 2035 2035 2035 2035 2035 
2035 2035 2035 2035 2035 2035 2035 2035 2035 
2035 2035 2035 2035 2035 2035 2035 2035 2035 
2035 2035 2035 2035 2035 2035 2035 2035 2035 
2035 2035 2035 2035 2035 2035 2035 2035 2035 
2035 2035 2035 2035 2035 2035 2035 2035 2035 
2035 2035 2035 2035 2035 2035 2035 2035 2035 
2035 2035 2035 2035 2035 2035 2035 2035 2035 
2035 2035 2035 2035 2035 2035 2035 2035 2035 
2035 2035 2035 2035 2035 2035 2035 2035 2035 
2035 2035 2035 2035 2035 2035 2035 2035 2035 
2035 2035 2035 2035 2035 2035 2035 2035 2035 
2035 2035 2035 2035 2035 2035 2035 2035 2035 
2035 2035 2035 2035 2035 2035 2035 2035 2035 
2035 2035 2035 2035 2035 2035 2035 2035 2035 
2035 2035 2035 2035 2035 2035 2035 2035 2035 
2035 2035 2035 2035 2035 2035 2035 2035 2035 
2035 2035 2035 2035 2035 2035 2035 2035 2035 
2035 2035 2035 2035 2035 2035 2035 2035 2035 
2035 2035 2035 2035 2035 2035 2035 2035 2035 
2035 2035 2035 2035 2035 2035 2035 2035 2035 
2035 2035 2035 2035 2035 2035 2035 2035 2035 
2035 2035 2035 2035 2035 2035 2035 2035 2035 
2035 2035 2035 2035 2035 2035 2035 2035 2035 
2035 2035 2035 2035 2035 2035 2035 2035 2035 
2035 2035 2035 2035 2035 2035 2035 2035 2035 
2035 2035 2035 2035 2035 2035 2035 2035 2035 
2035 2035 2035 2035 2035 2035 2035 2035 2035 
2035 2035 2035 2035 2035 2035 2035 2035 2035 
2035 2035 2035 2035 2035 2035 2035 2035 2035 
2035 2035 2035 2035 2035 2035 2035 2035 2035 
2035 2035 2035 2035 2035 2035 2035 2035 2035 
2035 2035 2035 2035 2035 2035 2035 2035 2035 
2035 2035 2035 2035 2035 2035 2035 2035 2035 
2035 2035 2035 2035 2035 2035 2035 2035 2035 
2035 2035 2035 2035 2035 2035 2035 2035 2035 
2035 2035 2035 2035 2035 2035 2035 2035 2035 
2035 2035 2035 2035 2035 2035 2035 2035 2035 
2035 2035 2035 2035 2035 2035 2035 2035 2035 
2035 2035 2035 2035 2035 2035 2035 2035 2035 
2035 2035 2035 2035 2035 2035 2035 2035 2035 
2035 2035 2035 2035 2035 2035 2035 2035 2035 
2035 2035 2035 2035 2035 2035 2035 2035 2035 
2035 2035 2035 2035 2035 2035 2035 2035 2035 
2035 2035 2035 2035 2035 2035 2035 2035 2035 
2035 2035 2035 2035 2035 2035 2035 2035 2035 
2035 2035 2035 2035 2035 2035 2035 2035 2035 
2035 2035 2035 2035 2035 2035 2035 2035 2035 
2035 2035 2035 2035 2035 2035 2035 2035 2035 
2035 2035 2035 2035 2035 2035 2035 2035 2035 
2035 2035 2035 2035 2035 2035 2035 2035 2035 
2035 2035 2035 2035 2035 2035 2035 2035 2035 
2035 2035 2035 2035 2035 2035 2035 2035 2035 
2035 2035 2035 2035 2035 2035 2035 2035 2035 
2035 2035 2035 2035 2035 2035 2035 2035 2035 
2035 2035 2035 2035 2035 2035 2035 2035 2035 
2035 2035 2035 2035 2035 2035 2035 2035 2035 
2035 2035 2035 2035 2035 2035 2035 2035 2035 
2035 2035 2035 2035 2035 2035 2035 2035 2035 
2035 2035 2035 2035 2035 2035 2035 2035 2035 
2035 2035 2035 2035 2035 2035 2035 2035 2035 
2035 2035 2035 2035 2035 2035 2035 2035 2035 
2035 2035 2035 2035 2035 2035 2035 2035 2035 
2035 2035 2035 2035 2035 2035 2035 2035 2035 
2035 2035 2035 2035 2035 2035 2035 2035 2035 
2035 2035 2035 2035 2035 2035 2035 2035 2035 
2035 2035 2035 2035 2035 2035 2035 2035 2035 
2035 2035 2035 2035 2035 2035 2035 2035 2035 
2035 2035 2035 2035 2035 2035 2035 2035 2035 
2035 2035 2035 2035 2035 2035 2035 2035 2035 
2035 2035 2035 2035 2035 2035 2035 2035 2035 
2035 2035 2035 2035 2035 2035 2035 2035 2035 
2035 2035 2035 2035 2035 2035 2035 2035 2035 
2035 2035 2035 2035 2035 2035 2035 2035 2035 
2035 2035 2035 2035 2035 2035 2035 2035 2035 
2035 2035 2035 2035 2035 2035 2035 2035 2035 
2035 2035 2035 2035 2035 2035 2035 2035 2035 
2035 2035 2035 2035 2035 2035 2035 2035 2035 
2035 2035 2035 2035 2035 2035 2035 2035 2035 
2035 2035 2035 2035 2035 2035 2035 2035 2035 
2035 2035 2035 2035 2035 2035 2035 2035 2035 
2035 2035 2035 2035 2035 2035 2035 2035 2035 
2035 2035 2035 2035 2035 2035 2035 2035 2035 
2035 2035 2035 2035 2035 2035 2035 2035 2035 
2035 2035 2035 2035 2035 2035 2035 2035 2035 
2035 2035 2035 2035 2035 2035 2035 2035 2035 
2035 2035 2035 2035 2035 2035 2035 2035 2035 
2035 2035 2035 2035 2035 2035 2035 2035 2035 
2035 2035 2035 2035 2035 2035 2035 2035 2035 
2035 2035 2035 2035 2035 2035 2035 2035 2035 
2035 2035 2035 2035 2035 2035 2035 2035 2035 
2035 2035 2035 2035 2035 2035 2035 2035 2035 
2035 2035 2035 2035 2035 2035 2035 2035 2035 
2035 2035 2035 2035 2035 2035 2035 2035 2035 
2035 2035 2035 2035 2035 2035 2035 2035 2035 
2035 2035 2035 2035 2035 2035 2035 2035 2035 
2035 2035 2035 2035 2035 2035 2035 2035 2035 
2035 2035 2035 2035 2035 2035 2035 2035 2035 
2035 2035 2035 2035 2035 2035 2035 2035 2035 
2035 2035 2035 2035 2035 2035 2035 2035 2035 
2035 2035 2035 2035 2035 2035 2035 2035 2035 
2035 2035 2035 2035 2035 2035 2035 2035 2035 
2035 2035 2035 2035 2035 2035 2035 2035 2035 
2035 2035 2035 2035 2035 2035 2035 2035 2035 
2035 2035 2035 2035 2035 2035 2035 2035 2035 
2035 2035 2035 2035 2035 2035 2035 2035 2035 
2035 2035 2035 2035 2035 2035 2035 2035 2035 
2035 2035 2035 2035 2035 2035 2035 2035 2035 
2035 2035 2035 2035 2035 2035 2035 2035 2035 
2035 2035 2035 2035 2035 2035 2035 2035 2035 
2035 2035 2035 2035 2035 2035 2035 2035 2035 
2035 2035 2035 2035 2035 2035 2035 2035 2035 
2035 2035 2035 2035 2035 2035 2035 2035 2035 
2035 2035 2035 2035 2035 2035 2035 2035 2035 
2035 2035 2035 2035 2035 2035 2035 2035 2035 
2035 2035 2035 2035 2035 2035 2035 2035 2035 
2035 2035 2035 2035 2035 2035 2035 2035 2035 
2035 2035 2035 2035 2035 2035 2035 2035 2035 
2035 2035 2035 2035 2035 2035 2035 2035 2035 
2035 2035 2035 2035 2035 2035 2035 2035 2035 
2035 2035 2035 2035 2035 2035 2035 2035 2035 
2035 2035 2035 2035 2035 2035 2035 2035 2035 
2035 2035 2035 2035 2035 2035 2035 2035 2035 
2035 2035 2035 2035 2035 2035 2035 2035 2035 
2035 2035 2035 2035 2035 2035 2035 2035 2035 
2035 2035 2035 2035 2035 2035 2035 2035 2035 
2035 2035 2035 2035 2035 2035 2035 2035 2035 
2035 2035 2035 2035 2035 2035 2035 2035 2035 
2035 2035 2035 2035 2035 2035 2035 2035 2035 
2035 2035 2035 2035 2035 2035 2035 2035 2035 
2035 2035 2035 2035 2035 2035 2035 2035 2035 
2035 2035 2035 2035 2035 2035 2035 2035 2035 
2035 2035 2035 2035 2035 2035 2035 2035 2035 
2035 2035 2035 2035 2035 2035 2035 2035 2035 
2035 2035 2035 2035 2035 2035 2035 2035 2035 
2035 2035 2035 2035 2035 2035 2035 2035 2035 
2035 2035 2035 2035 2035 2035 2035 2035 2035 
2035 2035 2035 2035 2035 2035 2035 2035 2035 
2035 2035 2035 2035 2035 2035 2035 2035 2035 
2035 2035 2035 2035 2035 2035 2035 2035 2035 
2035 2035 2035 2035 2035 2035 2035 2035 2035 
2035 2035 2035 2035 2035 2035 2035 2035 2035 
2035 2035 2035 2035 2035 2035 2035 2035 2035 
2035 2035 2035 2035 2035 2035 2035 2035 2035 
2035 2035 2035 2035 2035 2035 2035 2035 2035 
2035 2035 2035 2035 2035 2035 2035 2035 2035 
2035 2035 2035 2035 2035 2035 2035 2035 2035 
2035 2035 2035 2035 2035 2035 2035 2035 2035 
2035 2035 2035 2035 2035 2035 2035 2035 2035 
2035 2035 2035 2035 2035 2035 2035 2035 2035 
2035 2035 2035 2035 2035 2035 2035 2035 2035 
2035 2035 2035 2035 2035 2035 2035 2035 2035 
2035 2035 2035 2035 2035 2035 2035 2035 2035 
2035 2035 2035 2035 2035 2035 2035 2035 2035 
2035 2035 2035 2035 2035 2035 2035 2035 2035 
2035 2035 2035 2035 2035 2035 2035 2035 2035 
2035 2035 2035 2035 2035 2035 2035 2035 2035 
2035 2035 2035 2035 2035 2035 2035 2035 2035 
2035 2035 2035 2035 2035 2035 2035 2035 2035 
2035 2035 2035 2035 2035 2035 2035 2035 2035 
2035 2035 2035 2035 2035 2035 2035 2035 2035 
2035 2035 2035 2035 2035 2035 2035 2035 2035 
2035 2035 2035 2035 2035 2035 2035 2035 2035 
2035 2035 2035 2035 2035 2035 2035 2035 2035 
2035 2035 2035 2035 2035 2035 2035 2035 2035 
2035 2035 2035 2035 2035 2035 2035 2035 2035 
2035 2035 2035 2035 2035 2035 2035 2035 2035 
2035 2035 2035 2035 2035 2035 2035 2035 2035 
2035 2035 2035 2035 2035 2035 2035 2035 2035 
2035 2035 2035 2035 2035 2035 2035 2035 2035 
2035 2035 2035 2035 2035 2035 2035 2035 2035 
2035 2035 2035 2035 2035 2035 2035 2035 2035 
2035 2035 2035 2035 2035 2035 2035 2035 2035 
2035 2035 2035 2035 2035 2035 2035 2035 2035 
2035 2035 2035 2035 2035 2035 2035 2035 2035 
2035 2035 2035 2035 2035 2035 2035 2035 2035 
2035 2035 2035 2035 2035 2035 2035 2035 2035 
2035 2035 2035 2035 2035 2035 2035 2035 2035 
2035 2035 2035 2035 2035 2035 2035 2035 2035 
2035 2035 2035 2035 2035 2035 2035 2035 2035 
2035 2035 2035 2035 2035 2035 2035 2035 2035 
2035 2035 2035 2035 2035 2035 2035 2035 2035 
2035 2035 2035 2035 2035 2035 2035 2035 2035 
2035 2035 2035 2035 2035 2035 2035 2035 2035 
2035 2035 2035 2035 2035 2035 2035 2035 2035 
2035 2035 2035 2035 2035 2035 2035 2035 2035 
2035 2035 2035 2035 2035 2035 2035 2035 2035 
2035 2035 2035 2035 2035 2035 2035 2035 2035 
2035 2035 2035 2035 2035 2035 2035 2035 2035 
2035 2035 2035 2035 2035 2035 2035 2035 2035 
2035 2035 2035 2035 2035 2035 2035 2035 2035 
2035 2035 2035 2035 2035 2035 2035 2035 2035 
2035 2035 2035 2035 2035 2035 2035 2035 2035 
2035 2035 2035 2035 2035 2035 2035 2035 2035 
2035 2035 2035 2035 2035 2035 2035 2035 2035 
2035 2035 2035 2035 2035 2035 2035 2035 2035 
2035 2035 2035 2035 2035 2035 2035 2035 2035 
2035 2035 2035 2035 2035 2035 2035 2035 2035 
2035 2035 2035 2035 2035 2035 2035 2035 2035 
2035 2035 2035 2035 2035 2035 2035 2035 2035 
2035 2035 2035 2035 2035 2035 2035 2035 2035 
2035 2035 2035 2035 2035 2035 2035 2035 2035 
2035 2035 2035 2035 2035 2035 2035 2035 2035 
2035 2035 2035 2035 2035 2035 2035 2035 2035 
2035 2035 2035 2035 2035 2035 2035 2035 2035 
2035 2035 2035 2035 2035 2035 2035 2035 2035 
2035 2035 2035 2035 2035 2035 2035 2035 2035 
2035 2035 2035 2035 2035 2035 2035 2035 2035 
2035 2035 2035 2035 2035 2035 2035 2035 2035 
2035 2035 2035 2035 2035 2035 2035 2035 2035 
2035 2035 2035 2035 2035 2035 2035 2035 2035 
2035 2035 2035 2035 2035 2035 2035 2035 2035 
2035 2035 2035 2035 2035 2035 2035 2035 2035 
2035 2035 2035 2035 2035 2035 2035 2035 2035 
2035 2035 2035 2035 2035 2035 2035 2035 2035 
2035 2035 2035 2035 2035 2035 2035 2035 2035 
2035 2035 2035 2035 2035 2035 2035 2035 2035 
2035 2035 2035 2035 2035 2035 2035 2035 2035 
2035 2035 2035 2035 2035 2035 2035 2035 2035 
2035 2035 2035 2035 2035 2035 2035 2035 2035 
2035 2035 2035 2035 2035 2035 2035 2035 2035 
2035 2035 2035 2035 2035 2035 2035 2035 2035 
2035 2035 2035 2035 2035 2035 2035 2035 2035 
2035 2035 2035 2035 2035 2035 2035 2035 2035 
2035 2035 2035 2035 2035 2035 2035 2035 2035 
2035 2035 2035 2035 2035 2035 2035 2035 2035 
2035 2035 2035 2035 2035 2035 2035 2035 2035 
2035 2035 2035 2035 2035 2035 2035 2035 2035 
2035 2035 2035 2035 2035 2035 2035 2035 2035 
2035 2035 2035 2035 2035 2035 2035 2035 2035 
2035 2035 2035 2035 2035 2035 2035 2035 2035 
2035 2035 2035 2035 2035 2035 2035 2035 2035 
2035 2035 2035 2035 2035 2035 2035 2035 2035 
2035 2035 2035 2035 2035 2035 2035 2035 2035 
2035 2035 2035 2035 2035 2035 2035 2035 2035 
2035 2035 2035 2035 2035 2035 2035 2035 2035 
2035 2035 2035 2035 2035 2035 2035 2035 2035 
2035 2035 2035 2035 2035 2035 2035 2035 2035 
2035 2035 2035 2035 2035 2035 2035 2035 2035 
2035 2035 2035 2035 2035 2035 2035 2035 2035 
2035 2035 2035 2035 2035 2035 2035 2035 2035 
2035 2035 2035 2035 2035 2035 2035 2035 2035 
2035 2035 2035 2035 2035 2035 2035 2035 2035 
2035 2035 2035 2035 2035 2035 2035 2035 2035 
2035 2035 2035 2035 2035 2035 2035 2035 2035 
2035 2035 2035 2035 2035 2035 2035 2035 2035 
2035 2035 2035 2035 2035 2035 2035 2035 2035 
2035 2035 2035 2035 2035 2035 2035 2035 2035 
2035 2035 2035 2035 2035 2035 2035 2035 2035 
2035 2035 2035 2035 2035 2035 2035 2035 2035 
2035 2035 2035 2035 2035 2035 2035 2035 2035 
2035 2035 2035 2035 2035 2035 2035 2035 2035 
2035 2035 2035 2035 2035 2035 2035 2035 2035 
2035 2035 2035 2035 2035 2035 2035 2035 2035 
2035 2035 2035 2035 2035 2035 2035 2035 2035 
2035 2035 2035 2035 2035 2035 2035 2035 2035 
2035 2035 2035 2035 2035 2035 2035 2035 2035 
2035 2035 2035 2035 2035 2035 2035 2035 2035 
2035 2035 2035 2035 2035 2035 2035 2035 2035 
2035 2035 2035 2035 2035 2035 2035 2035 2035 
2035 2035 2035 2035 2035 2035 2035 2035 2035 
2035 2035 2035 2035 2035 2035 2035 2035 2035 
2035 2035 2035 2035 2035 2035 2035 2035 2035 
2035 2035 2035 2035 2035 2035 2035 2035 2035 
2035 2035 2035 2035 2035 2035 2035 2035 2035 
2035 2035 2035 2035 2035 2035 2035 2035 2035 
2035 2035 2035 2035 2035 2035 2035 2035 2035 
2035 2035 2035 2035 2035 2035 2035 2035 2035 
2035 2035 2035 2035 2035 2035 2035 2035 2035 
2035 2035 2035 2035 2035 2035 2035 2035 2035 
2035 2035 2035 2035 2035 2035 2035 2035 2035 
2035 2035 2035 2035 2035 2035 2035 2035 2035 
2035 2035 2035 2035 2035 2035 2035 2035 2035 
2035 2035 2035 2035 2035 2035 2035 2035 2035 
2035 2035 2035 2035 2035 2035 2035 2035 2035 
2035 2035 2035 2035 2035 2035 2035 2035 2035 
2035 2035 2035 2035 2035 2035 2035 2035 2035 
2035 2035 2035 2035 2035 2035 2035 2035 2035 
2035 2035 2035 2035 2035 2035 2035 2035 2035 
2035 2035 2035 2035 2035 2035 2035 2035 2035 
2035 2035 2035 2035 2035 2035 2035 2035 2035 
2035 2035 2035 2035 2035 2035 2035 2035 2035 
2035 2035 2035 2035 2035 2035 2035 2035 2035 
2035 2035 2035 2035 2035 2035 2035 2035 2035 
2035 2035 2035 2035 2035 2035 2035 2035 2035 
2035 2035 2035 2035 2035 2035 2035 2035 2035 
2035 2035 2035 2035 2035 2035 2035 2035 2035 
2035 2035 2035 2035 2035 2035 2035 2035 2035 
2035 2035 2035 2035 2035 2035 2035 2035 2035 
2035 2035 2035 2035 2035 2035 2035 2035 2035 
2035 2035 2035 2035 2035 2035 2035 2035 2035 
2035 2035 2035 2035 2035 2035 2035 2035 2035 
2035 2035 2035 2035 2035 2035 2035 2035 2035 
2035 2035 2035 2035 2035 2035 2035 2035 2035 
2035 2035 2035 2035 2035 2035 2035 2035 2035 
2035 2035 2035 2035 2035 2035 2035 2035 2035 
2035 2035 2035 2035 2035 2035 2035 2035 2035 
2035 2035 2035 2035 2035 2035 2035 2035 2035 
2035 2035 2035 2035 2035 2035 2035 2035 2035 
2035 2035 2035 2035 2035 2035 2035 2035 2035 
2035 2035 2035 2035 2035 2035 2035 2035 2035 
2035 2035 2035 2035 2035 2035 2035 2035 2035 
2035 2035 2035 2035 2035 2035 2035 2035 2035 
2035 2035 2035 2035 2035 2035 2035 2035 2035 
2035 2035 2035 2035 2035 2035 2035 2035 2035 
2035 2035 2035 2035 2035 2035 2035 2035 2035 
2035 2035 2035 2035 2035 2035 2035 2035 2035 
2035 2035 2035 2035 2035 2035 2035 2035 2035 
2035 2035 2035 2035 2035 2035 2035 2035 2035 
2035 2035 2035 2035 2035 2035 2035 2035 2035 
2035 2035 2035 2035 2035 2035 2035 2035 2035 
2035 2035 2035 2035 2035 2035 2035 2035 2035 
2035 2035 2035 2035 2035 2035 2035 2035 2035 
2035 2035 2035 2035 2035 2035 2035 2035 2035 
2035 2035 2035 2035 2035 2035 2035 2035 2035 
2035 2035 2035 2035 2035 2035 2035 2035 2035 
2035 2035 2035 2035 2035 2035 2035 2035 2035 
2035 2035 2035 2035 2035 2035 2035 2035 2035 
2035 2035 2035 2035 2035 2035 2035 2035 2035 
2035 2035 2035 2035 2035 2035 2035 2035 2035 
2035 2035 2035 2035 2035 2035 2035 2035 2035 
2035 2035 2035 2035 2035 2035 2035 2035 2035 
2035 2035 2035 2035 2035 2035 2035 2035 2035 
2035 2035 2035 2035 2035 2035 2035 2035 2035 
2035 2035 2035 2035 2035 2035 2035 2035 2035 
2035 2035 2035 2035 2035 2035 2035 2035 2035 
2035 2035 2035 2035 2035 2035 2035 2035 2035 
2035 2035 2035 2035 2035 2035 2035 2035 2035 
2035 2035 2035 2035 2035 2035 2035 2035 2035 
2035 2035 2035 2035 2035 2035 2035 2035 2035 
2035 2035 2035 2035 2035 2035 2035 2035 2035 
2035 2035 2035 2035 2035 2035 2035 2035 2035 
2035 2035 2035 2035 2035 2035 2035 2035 2035 
2035 2035 2035 2035 2035 2035 2035 2035 2035 
2035 2035 2035 2035 2035 2035 2035 2035 2035 
2035 2035 2035 2035 2035 2035 2035 2035 2035 
2035 2035 2035 2035 2035 2035 2035 2035 2035 
2035 2035 2035 2035 2035 2035 2035 2035 2035 
2035 2035 2035 2035 2035 2035 2035 2035 2035 
2035 2035 2035 2035 2035 2035 2035 2035 2035 
2035 2035 2035 2035 2035 2035 2035 2035 2035 
2035 2035 2035 2035 2035 2035 2035 2035 2035 
2035 2035 2035 2035 2035 2035 2035 2035 2035 
2035 2035 2035 2035 2035 2035 2035 2035 2035 
2035 2035 2035 2035 2035 2035 2035 2035 2035 
2035 2035 2035 2035 2035 2035 2035 2035 2035 
2035 2035 2035 2035 2035 2035 2035 2035 2035 
2035 2035 2035 2035 2035 2035 2035 2035 2035 
2035 2035 2035 2035 2035 2035 2035 2035 2035 
2035 2035 2035 2035 2035 2035 2035 2035 2035 
2035 2035 2035 2035 2035 2035 2035 2035 2035 
2035 2035 2035 2035 2035 2035 2035 2035 2035 
2035 2035 2035 2035 2035 2035 2035 2035 2035 
2035 2035 2035 2035 2035 2035 2035 2035 2035 
2035 2035 2035 2035 2035 2035 2035 2035 2035 
2035 2035 2035 2035 2035 2035 2035 2035 2035 
2035 2035 2035 2035 2035 2035 2035 2035 2035 
2035 2035 2035 2035 2035 2035 2035 2035 2035 
2035 2035 2035 2035 2035 2035 2035 2035 2035 
2035 2035 2035 2035 2035 2035 2035 2035 2035 
2035 2035 2035 2035 2035 2035 2035 2035 2035 
2035 2035 2035 2035 2035 2035 2035 2035 2035 
2035 2035 2035 2035 2035 2035 2035 2035 2035 