# vtk DataFile Version 4.2
vtk output
ASCII
DATASET POLYDATA
POINTS 5910 float
22.4466 -30.78 21.8658 22.8157 -30.4545 21.1563 22.1342 -30.1814 21.4991 
21.4068 -30.1541 21.3834 21.3396 -30.5811 21.8928 20.3107 -30.2259 21.5231 
20.3169 -30.5802 21.8992 19.5471 -30.282 21.4766 19.2714 -30.6329 21.8047 
19.0112 -30.4657 21.5232 22.3106 -30.2147 20.8202 22.7048 -30.5669 20.3869 
21.8047 -30.3747 20.6557 21.015 -30.4302 20.9169 20.0384 -30.4585 21.0434 
19.2343 -30.5257 21.2035 22.2134 -30.5687 20.2105 21.3651 -30.5136 17.7644 
21.5628 -30.4404 17.4563 21.0171 -30.2729 17.5028 20.5927 -30.5628 17.6914 
20.4436 -30.2768 17.3955 20.1268 -30.4178 17.4206 21.1642 -30.6899 17.0837 
20.3041 -30.4355 17.2437 24.338 -30.268 14.3792 24.5655 -30.5671 14.7639 
24.4947 -30.6587 14.2876 24.0687 -30.4367 14.5815 24.0359 -30.6715 14.1542 
24.2498 -31.1801 22.2189 24.287 -31.802 22.7623 24.8529 -31.4655 22.3768 
23.764 -31.6141 22.6296 25.0222 -31.1482 21.5844 25.552 -31.7916 21.9973 
25.8056 -31.4715 21.1953 24.2196 -30.9632 21.384 23.3299 -31.2555 22.2113 
23.4711 -30.8665 21.6352 22.4397 -31.5925 22.1307 21.384 -31.4894 21.8489 
20.3671 -31.3801 21.9225 19.4872 -31.3879 22.0498 18.5641 -31.4118 22.0775 
18.3397 -30.9108 21.3354 17.019 -31.0972 21.3984 17.5555 -31.4713 22.0278 
16.1146 -31.129 21.5166 16.3899 -31.566 22.0328 15.5584 -31.2406 21.2554 
15.5612 -31.4729 21.7807 15.0265 -31.809 21.4041 25.2133 -31.0899 20.5137 
25.8861 -31.4338 20.2162 24.3527 -30.9771 20.5186 23.3765 -30.8504 20.5736 
21.4078 -30.8199 20.1019 20.3505 -30.847 20.325 19.1964 -30.8625 20.5063 
18.1214 -30.9514 20.3027 17.2562 -30.9507 20.4544 16.2609 -31.0803 20.6058 
15.6032 -31.3611 20.5733 15.2713 -31.4758 20.9886 25.2434 -31.1106 19.4858 
25.8855 -31.4777 19.2155 24.3534 -30.9823 19.4632 23.3536 -30.9966 19.4466 
22.2799 -30.9218 19.5797 21.3388 -31.0291 19.4002 20.6305 -31.1643 19.3951 
19.6033 -31.1709 19.6268 18.4181 -31.1069 19.4836 17.3034 -30.9616 19.4345 
16.4286 -31.0858 19.4146 15.7527 -31.5442 19.5195 25.3455 -31.2519 18.7143 
25.6938 -31.5944 18.3935 24.4715 -31.124 18.4786 23.374 -31.0105 18.44 
22.4769 -31.0089 18.5839 21.3177 -31.019 18.4578 20.7443 -31.7703 18.7956 
20.0534 -31.6085 19.2074 19.1142 -31.613 19.0365 18.206 -31.3876 18.7948 
17.6694 -31.5121 18.2553 17.4527 -31.1569 18.6768 16.5719 -31.1695 18.5095 
16.008 -31.4583 18.5899 25.0094 -31.5228 18.0171 24.2844 -31.4855 17.773 
23.7649 -31.6788 17.2937 23.5523 -31.2547 17.7066 22.2727 -30.9435 17.611 
20.5821 -31.3885 17.7302 20.4249 -30.8005 17.2715 16.8869 -31.6649 17.9479 
16.2148 -31.6901 18.0802 26.0582 -31.1093 16.3425 26.356 -31.611 17.0102 
26.696 -31.5476 16.4166 25.1159 -31.163 16.1882 25.6736 -31.4891 16.9245 
24.9083 -31.6115 16.6362 22.9759 -31.5483 17.0103 22.1067 -31.329 16.763 
21.4881 -31.3055 16.5223 21.833 -31.5562 16.3818 20.7729 -31.4001 16.7657 
26.3847 -31.1343 15.7235 26.7086 -31.7737 15.5882 25.4136 -31.003 15.3881 
24.3388 -31.4607 16.1294 24.1433 -30.9207 15.3887 23.0843 -31.1463 15.4224 
23.5158 -31.5326 15.9882 22.4801 -31.2716 15.1679 22.6058 -31.5313 15.8748 
21.3119 -31.6654 16.1815 21.9783 -31.5942 15.5742 26.0795 -31.5634 15.1312 
25.4893 -31.5258 14.9141 24.8674 -31.5094 14.5317 23.3602 -30.9201 14.6483 
22.7329 -31.4678 14.5375 22.0525 -31.8663 14.949 24.194 -31.4817 14.0127 
23.4321 -31.5148 14.0872 24.3736 -32.7673 22.911 24.9492 -32.1343 22.5485 
23.0228 -31.8969 22.5747 23.3866 -32.4449 22.9164 22.1596 -32.1224 22.4742 
22.3254 -32.5967 22.8905 21.1965 -32.285 22.4173 21.5443 -32.4903 22.8846 
20.1444 -32.2693 22.4704 20.638 -32.6295 23.0701 19.1292 -32.0294 22.4007 
19.441 -32.5837 23.0138 18.034 -31.9915 22.4941 18.4663 -32.4788 22.8162 
17.0258 -32.0201 22.4974 17.4496 -32.7176 22.9834 16.1999 -32.164 22.4341 
16.405 -32.6431 22.7938 15.7168 -32.6551 22.561 26.2155 -31.9974 21.5097 
26.2317 -32.5165 22.0223 26.6805 -32.6002 21.417 25.6227 -32.4683 22.2996 
21.701 -32.271 21.5559 21.0532 -31.9933 21.2585 21.1477 -32.5786 21.8745 
20.2326 -32.6878 21.9334 20.2305 -32.0149 21.3456 19.773 -32.1807 21.8399 
15.4488 -32.16 22.0857 14.7478 -32.4781 21.7014 26.4833 -31.9558 20.6018 
27.023 -32.5469 20.5326 21.3642 -32.0907 20.3739 21.9969 -32.4614 20.4384 
20.4644 -32.0425 20.6274 19.4482 -32.4482 21.1161 19.6398 -32.2793 20.394 
19.026 -32.6352 20.6846 14.9811 -31.8162 20.3747 14.3547 -32.305 21.079 
14.0534 -32.1408 20.4545 13.438 -32.2666 20.2149 13.5621 -32.5961 20.7266 
13.077 -32.4899 20.4234 27.0401 -32.2153 19.5994 27.4221 -32.6382 20.0212 
27.5534 -32.8152 19.5228 26.3912 -31.7958 19.6402 22.1493 -32.251 19.7265 
22.6524 -32.5294 19.3436 22.5639 -32.8126 19.9319 21.4387 -32.0724 19.3516 
20.4601 -31.9618 19.6492 19.7368 -32.225 19.2989 19.1373 -32.6192 20.0709 
15.258 -32.0359 19.2747 14.4083 -32.1661 19.6227 13.6924 -32.4654 19.6996 
13.1453 -32.4506 20.1448 27.1616 -32.527 18.9687 26.8384 -32.6358 18.3479 
26.3942 -32.0055 18.6251 22.0617 -32.4571 19.0362 21.1885 -32.4547 18.8403 
20.1194 -32.0397 18.3138 20.342 -32.4736 18.905 19.2307 -32.0098 18.4031 
18.3567 -31.7698 18.3001 15.8314 -32.1434 18.5274 15.35 -32.693 18.8489 
14.5272 -32.7675 19.152 26.2382 -32.0159 17.647 26.8389 -32.5815 17.3191 
25.3399 -31.8286 17.4855 24.3728 -31.8571 17.3076 20.1237 -31.8779 17.1617 
19.4434 -32.0516 17.5859 18.556 -32.1356 17.3778 17.55 -32.0652 17.556 
16.8493 -32.6141 17.569 16.4061 -32.4453 18.0055 26.8968 -32.311 16.2706 
24.2545 -31.865 16.6269 23.3567 -31.8476 16.6169 22.1801 -31.7203 16.2426 
20.4432 -31.8858 16.182 19.44 -32.1796 16.3954 18.8027 -32.6597 16.6262 
17.9307 -32.6946 16.9434 17.2419 -32.82 17.1246 26.7531 -32.7769 15.5543 
21.2839 -31.9086 15.5771 20.3077 -32.2073 15.4691 19.7787 -32.4353 15.4828 
19.3743 -32.5773 15.9112 26.2706 -32.5015 15.0436 25.4026 -32.3944 14.7799 
24.676 -32.6468 14.4659 22.833 -32.2082 14.3661 22.4573 -32.7777 14.7383 
21.3865 -32.6108 15.0687 20.4452 -32.5863 15.1661 24.321 -32.3305 14.1324 
23.6403 -32.4011 14.0644 19.9961 -33.0395 23.5819 20.0234 -33.7592 23.774 
20.5566 -33.304 23.5017 19.2385 -33.1311 23.4779 19.5331 -33.5037 23.8176 
18.8902 -33.8685 23.5204 17.1549 -33.2375 23.4112 17.2399 -33.8386 23.7016 
17.6252 -33.3981 23.3941 16.7414 -33.6394 23.5828 26.0319 -33.081 22.5098 
26.2296 -33.8593 22.7852 26.6686 -33.3025 22.2055 25.2726 -32.8095 22.6233 
25.2291 -33.5536 22.8869 24.1766 -33.673 23.0112 23.4773 -33.3463 23.0162 
22.4434 -33.4616 22.8884 21.2953 -33.2175 23.0811 18.3617 -33.3392 23.1991 
16.5408 -33.2103 23.1917 14.9278 -32.9314 22.3444 15.5789 -33.3036 22.9926 
14.2839 -33.2633 22.2778 14.3943 -33.6804 23.0225 13.8759 -33.7618 22.4655 
27.0517 -33.3642 21.4235 21.3503 -32.9595 21.3713 20.669 -33.1005 21.4995 
19.814 -33.6 21.3902 19.2704 -33.4077 21.7465 19.1011 -32.8751 21.4441 
18.2676 -33.6338 21.8017 18.0364 -33.0868 21.4254 17.2804 -33.5947 21.9326 
17.1776 -33.1039 21.5543 16.3796 -33.5801 21.8706 16.6005 -33.2167 21.2938 
15.9045 -33.6358 21.6235 14.2016 -32.9435 21.5151 14.0853 -33.6754 21.6384 
12.2723 -33.305 21.4503 12.1726 -33.6351 21.7507 12.6597 -33.6309 21.5231 
11.7985 -33.7432 21.3409 27.3194 -33.0316 20.6085 27.4084 -33.6357 21.0686 
27.6639 -33.4306 20.348 21.8071 -33.1311 20.6563 21.0141 -33.509 20.8949 
20.322 -33.6827 20.9711 18.4373 -32.9101 20.378 17.3507 -33.0815 20.6273 
16.7049 -33.3772 20.5848 16.1936 -33.5447 21.105 13.8117 -33.3942 20.6001 
13.3679 -32.7488 20.1951 12.236 -33.5384 21.0418 27.7652 -33.6149 19.562 
23.1535 -32.9487 19.3222 23.8337 -33.4177 19.1594 23.3057 -33.6603 19.8005 
22.1391 -33.7047 20.0822 19.2694 -32.8805 19.3005 18.3557 -33.041 19.4763 
17.5282 -33.2026 19.3606 16.7263 -33.4698 19.6361 14.0329 -33.0486 19.6631 
14.7376 -33.5615 19.428 14.2096 -33.8256 19.951 27.3521 -33.1574 18.9166 
27.1196 -33.258 18.2311 23.3822 -33.197 18.7269 23.7976 -33.4865 18.6182 
22.5114 -32.976 18.5533 21.365 -32.8763 18.3505 20.2266 -32.9322 18.4555 
19.332 -33.0786 18.4733 18.516 -33.2511 18.5391 17.7459 -33.5482 18.6329 
17.1341 -33.5195 18.6954 16.4303 -33.0935 18.6805 16.8237 -33.4211 18.058 
15.988 -33.5804 18.9578 15.211 -33.5503 18.9796 27.2139 -33.2963 17.6506 
27.4761 -33.6104 17.9227 27.5387 -33.6206 17.3494 23.2877 -33.6584 18.1272 
22.2582 -33.4447 17.8323 21.3726 -33.1632 17.5068 21.8498 -33.5585 17.1247 
20.3251 -33.047 17.4288 19.2161 -33.116 17.4683 18.5592 -33.5353 17.5764 
18.1477 -33.7128 18.0513 16.9894 -33.3847 17.3973 27.2208 -33.3704 17.0696 
26.9237 -33.3294 16.3142 21.1019 -33.2015 16.3898 21.764 -33.5712 16.1475 
20.4278 -33.0398 16.5749 19.5862 -32.8949 16.4328 18.3757 -33.3113 17.0029 
17.5678 -33.4737 17.0836 26.5815 -33.6449 15.5566 21.0967 -33.0416 15.4824 
21.7745 -33.3897 15.3889 20.1676 -32.8332 15.6859 26.3429 -33.3353 15.1574 
25.6254 -33.4087 15.012 24.5958 -33.4413 14.8899 23.9939 -33.0478 14.3902 
23.3871 -33.5046 14.89 23.2162 -32.9336 14.4295 22.371 -33.4411 15.0959 
20.4587 -33.9507 23.1565 19.7087 -34.6598 23.326 19.3775 -34.2441 23.7552 
18.9303 -34.6705 23.4341 17.3455 -34.6847 23.7964 17.7719 -34.2271 23.4644 
16.0123 -33.8713 23.5205 16.641 -34.5077 24.0068 15.0413 -33.987 23.4915 
15.4218 -34.5833 24.0068 14.3772 -34.0952 23.5139 14.3639 -34.6185 23.7974 
13.8001 -34.4797 23.5341 26.1497 -34.6015 22.9842 26.8831 -34.2594 22.4711 
25.365 -34.5488 22.9955 24.4938 -34.3715 22.9976 23.3977 -34.4457 23.0123 
22.3829 -34.1834 22.5229 22.7758 -34.8792 22.6382 21.3856 -33.983 22.5265 
20.5054 -34.2662 22.3981 20.0229 -34.5688 22.6632 18.3942 -34.6905 23.2257 
13.2432 -34.0632 22.242 13.3091 -34.4986 23.0405 12.7286 -34.6023 22.6183 
9.1658 -34.218 22.266 9.2404 -34.432 22.5824 9.43881 -34.3492 22.2794 
9.0513 -34.7144 22.2385 27.3041 -34.0859 21.6874 27.4063 -34.637 22.1514 
27.6729 -34.4451 21.3629 21.9741 -34.6359 22.0692 21.0221 -34.6639 21.9661 
20.2727 -34.7918 22.1208 19.224 -33.8729 21.4983 18.6417 -34.0494 21.52 
17.8913 -34.3397 21.579 17.1631 -34.5527 21.839 16.2502 -34.4848 22.0346 
15.3274 -34.4131 21.95 15.3773 -34.0047 21.3313 14.1265 -34.3556 21.9047 
[...]
CELL_DATA 11904
SCALARS scalars float
LOOKUP_TABLE default
2005 2005 2005 2005 2005 2005 2005 2005 2005 
2005 2005 2005 2005 2005 2005 2005 2005 2005 
2005 2005 2005 2005 2005 2005 2005 2005 2005 
2005 2005 2005 2005 2005 2005 2005 2005 2005 
2005 2005 2005 2005 2005 2005 2005 2005 2005 
2005 2005 2005 2005 2005 2005 2005 2005 2005 
2005 2005 2005 2005 2005 2005 2005 2005 2005 
2005 2005 2005 2005 2005 2005 2005 2005 2005 
2005 2005 2005 2005 2005 2005 2005 2005 2005 
2005 2005 2005 2005 2005 2005 2005 2005 2005 
2005 2005 2005 2005 2005 2005 2005 2005 2005 
2005 2005 2005 2005 2005 2005 2005 2005 2005 
2005 2005 2005 2005 2005 2005 2005 2005 2005 
2005 2005 2005 2005 2005 2005 2005 2005 2005 
2005 2005 2005 2005 2005 2005 2005 2005 2005 
2005 2005 2005 2005 2005 2005 2005 2005 2005 
2005 2005 2005 2005 2005 2005 2005 2005 2005 
2005 2005 2005 2005 2005 2005 2005 2005 2005 
2005 2005 2005 2005 2005 2005 2005 2005 2005 
2005 2005 2005 2005 2005 2005 2005 2005 2005 
2005 2005 2005 2005 2005 2005 2005 2005 2005 
2005 2005 2005 2005 2005 2005 2005 2005 2005 
2005 2005 2005 2005 2005 2005 2005 2005 2005 
2005 2005 2005 2005 2005 2005 2005 2005 2005 
2005 2005 2005 2005 2005 2005 2005 2005 2005 
2005 2005 2005 2005 2005 2005 2005 2005 2005 
2005 2005 2005 2005 2005 2005 2005 2005 2005 
2005 2005 2005 2005 2005 2005 2005 2005 2005 
2005 2005 2005 2005 2005 2005 2005 2005 2005 
2005 2005 2005 2005 2005 2005 2005 2005 2005 
2005 2005 2005 2005 2005 2005 2005 2005 2005 
2005 2005 2005 2005 2005 2005 2005 2005 2005 
2005 2005 2005 2005 2005 2005 2005 2005 2005 
2005 2005 2005 2005 2005 2005 2005 2005 2005 
2005 2005 2005 2005 2005 2005 2005 2005 2005 
2005 2005 2005 2005 2005 2005 2005 2005 2005 
2005 2005 2005 2005 2005 2005 2005 2005 2005 
2005 2005 2005 2005 2005 2005 2005 2005 2005 
2005 2005 2005 2005 2005 2005 2005 2005 2005 
2005 2005 2005 2005 2005 2005 2005 2005 2005 
2005 2005 2005 2005 2005 2005 2005 2005 2005 
2005 2005 2005 2005 2005 2005 2005 2005 2005 
2005 2005 2005 2005 2005 2005 2005 2005 2005 
2005 2005 2005 2005 2005 2005 2005 2005 2005 
2005 2005 2005 2005 2005 2005 2005 2005 2005 
2005 2005 2005 2005 2005 2005 2005 2005 2005 
2005 2005 2005 2005 2005 2005 2005 2005 2005 
2005 2005 2005 2005 2005 2005 2005 2005 2005 
2005 2005 2005 2005 2005 2005 2005 2005 2005 
2005 2005 2005 2005 2005 2005 2005 2005 2005 
2005 2005 2005 2005 2005 2005 2005 2005 2005 
2005 2005 2005 2005 2005 2005 2005 2005 2005 
2005 2005 2005 2005 2005 2005 2005 2005 2005 
2005 2005 2005 2005 2005 2005 2005 2005 2005 
2005 2005 2005 2005 2005 2005 2005 2005 2005 
2005 2005 2005 2005 2005 2005 2005 2005 2005 
2005 2005 2005 2005 2005 2005 2005 2005 2005 
2005 2005 2005 2005 2005 2005 2005 2005 2005 
2005 2005 2005 2005 2005 2005 2005 2005 2005 
2005 2005 2005 2005 2005 2005 2005 2005 2005 
2005 2005 2005 2005 2005 2005 2005 2005 2005 
2005 2005 2005 2005 2005 2005 2005 2005 2005 
2005 2005 2005 2005 2005 2005 2005 2005 2005 
2005 2005 2005 2005 2005 2005 2005 2005 2005 
2005 2005 2005 2005 2005 2005 2005 2005 2005 
2005 2005 2005 2005 2005 2005 2005 2005 2005 
2005 2005 2005 2005 2005 2005 2005 2005 2005 
2005 2005 2005 2005 2005 2005 2005 2005 2005 
2005 2005 2005 2005 2005 2005 2005 2005 2005 
2005 2005 2005 2005 2005 2005 2005 2005 2005 
2005 2005 2005 2005 2005 2005 2005 2005 2005 
2005 2005 2005 2005 2005 2005 2005 2005 2005 
2005 2005 2005 2005 2005 2005 2005 2005 2005 
2005 2005 2005 2005 2005 2005 2005 2005 2005 
2005 2005 2005 2005 2005 2005 2005 2005 2005 
2005 2005 2005 2005 2005 2005 2005 2005 2005 
2005 2005 2005 2005 2005 2005 2005 2005 2005 
2005 2005 2005 2005 2005 2005 2005 2005 2005 
2005 2005 2005 2005 2005 2005 2005 2005 2005 
2005 2005 2005 2005 2005 2005 2005 2005 2005 
2005 2005 2005 2005 2005 2005 2005 2005 2005 
2005 2005 2005 2005 2005 2005 2005 2005 2005 
2005 2005 2005 2005 2005 2005 2005 2005 2005 
2005 2005 2005 2005 2005 2005 2005 2005 2005 
2005 2005 2005 2005 2005 2005 2005 2005 2005 
2005 2005 2005 2005 2005 2005 2005 2005 2005 
2005 2005 2005 2005 2005 2005 2005 2005 2005 
2005 2005 2005 2005 2005 2005 2005 2005 2005 
2005 2005 2005 2005 2005 2005 2005 2005 2005 
2005 2005 2005 2005 2005 2005 2005 2005 2005 
2005 2005 2005 2005 2005 2005 2005 2005 2005 
2005 2005 2005 2005 2005 2005 2005 2005 2005 
2005 2005 2005 2005 2005 2005 2005 2005 2005 
2005 2005 2005 2005 2005 2005 2005 2005 2005 
2005 2005 2005 2005 2005 2005 2005 2005 2005 
2005 2005 2005 2005 2005 2005 2005 2005 2005 
2005 2005 2005 2005 2005 2005 2005 2005 2005 
2005 2005 2005 2005 2005 2005 2005 2005 2005 
2005 2005 2005 2005 2005 2005 2005 2005 2005 
2005 2005 2005 2005 2005 2005 2005 2005 2005 
2005 2005 2005 2005 2005 2005 2005 2005 2005 
2005 2005 2005 2005 2005 2005 2005 2005 2005 
2005 2005 2005 2005 2005 2005 2005 2005 2005 
2005 2005 2005 2005 2005 2005 2005 2005 2005 
2005 2005 2005 2005 2005 2005 2005 2005 2005 
2005 2005 2005 2005 2005 2005 2005 2005 2005 
2005 2005 2005 2005 2005 2005 2005 2005 2005 
2005 2005 2005 2005 2005 2005 2005 2005 2005 
2005 2005 2005 2005 2005 2005 2005 2005 2005 
2005 2005 2005 2005 2005 2005 2005 2005 2005 
2005 2005 2005 2005 2005 2005 2005 2005 2005 
2005 2005 2005 2005 2005 2005 2005 2005 2005 
2005 2005 2005 2005 2005 2005 2005 2005 2005 
2005 2005 2005 2005 2005 2005 2005 2005 2005 
2005 2005 2005 2005 2005 2005 2005 2005 2005 
2005 2005 2005 2005 2005 2005 2005 2005 2005 
2005 2005 2005 2005 2005 2005 2005 2005 2005 
2005 2005 2005 2005 2005 2005 2005 2005 2005 
2005 2005 2005 2005 2005 2005 2005 2005 2005 
2005 2005 2005 2005 2005 2005 2005 2005 2005 
2005 2005 2005 2005 2005 2005 2005 2005 2005 
2005 2005 2005 2005 2005 2005 2005 2005 2005 
2005 2005 2005 2005 2005 2005 2005 2005 2005 
2005 2005 2005 2005 2005 2005 2005 2005 2005 
2005 2005 2005 2005 2005 2005 2005 2005 2005 
2005 2005 2005 2005 2005 2005 2005 2005 2005 
2005 2005 2005 2005 2005 2005 2005 2005 2005 
2005 2005 2005 2005 2005 2005 2005 2005 2005 
2005 2005 2005 2005 2005 2005 2005 2005 2005 
2005 2005 2005 2005 2005 2005 2005 2005 2005 
2005 2005 2005 2005 2005 2005 2005 2005 2005 
2005 2005 2005 2005 2005 2005 2005 2005 2005 
2005 2005 2005 2005 2005 2005 2005 2005 2005 
2005 2005 2005 2005 2005 2005 2005 2005 2005 
2005 2005 2005 2005 2005 2005 2005 2005 2005 
2005 2005 2005 2005 2005 2005 2005 2005 2005 
2005 2005 2005 2005 2005 2005 2005 2005 2005 
2005 2005 2005 2005 2005 2005 2005 2005 2005 
2005 2005 2005 2005 2005 2005 2005 2005 2005 
2005 2005 2005 2005 2005 2005 2005 2005 2005 
2005 2005 2005 2005 2005 2005 2005 2005 2005 
2005 2005 2005 2005 2005 2005 2005 2005 2005 
2005 2005 2005 2005 2005 2005 2005 2005 2005 
2005 2005 2005 2005 2005 2005 2005 2005 2005 
2005 2005 2005 2005 2005 2005 2005 2005 2005 
2005 2005 2005 2005 2005 2005 2005 2005 2005 
2005 2005 2005 2005 2005 2005 2005 2005 2005 
2005 2005 2005 2005 2005 2005 2005 2005 2005 
2005 2005 2005 2005 2005 2005 2005 2005 2005 
2005 2005 2005 2005 2005 2005 2005 2005 2005 
2005 2005 2005 2005 2005 2005 2005 2005 2005 
2005 2005 2005 2005 2005 2005 2005 2005 2005 
2005 2005 2005 2005 2005 2005 2005 2005 2005 
2005 2005 2005 2005 2005 2005 2005 2005 2005 
2005 2005 2005 2005 2005 2005 2005 2005 2005 
2005 2005 2005 2005 2005 2005 2005 2005 2005 
2005 2005 2005 2005 2005 2005 2005 2005 2005 
2005 2005 2005 2005 2005 2005 2005 2005 2005 
2005 2005 2005 2005 2005 2005 2005 2005 2005 
2005 2005 2005 2005 2005 2005 2005 2005 2005 
2005 2005 2005 2005 2005 2005 2005 2005 2005 
2005 2005 2005 2005 2005 2005 2005 2005 2005 
2005 2005 2005 2005 2005 2005 2005 2005 2005 
2005 2005 2005 2005 2005 2005 2005 2005 2005 
2005 2005 2005 2005 2005 2005 2005 2005 2005 
2005 2005 2005 2005 2005 2005 2005 2005 2005 
2005 2005 2005 2005 2005 2005 2005 2005 2005 
2005 2005 2005 2005 2005 2005 2005 2005 2005 
2005 2005 2005 2005 2005 2005 2005 2005 2005 
2005 2005 2005 2005 2005 2005 2005 2005 2005 
2005 2005 2005 2005 2005 2005 2005 2005 2005 
2005 2005 2005 2005 2005 2005 2005 2005 2005 
2005 2005 2005 2005 2005 2005 2005 2005 2005 
2005 2005 2005 2005 2005 2005 2005 2005 2005 
2005 2005 2005 2005 2005 2005 2005 2005 2005 
2005 2005 2005 2005 2005 2005 2005 2005 2005 
2005 2005 2005 2005 2005 2005 2005 2005 2005 
2005 2005 2005 2005 2005 2005 2005 2005 2005 
2005 2005 2005 2005 2005 2005 2005 2005 2005 
2005 2005 2005 2005 2005 2005 2005 2005 2005 
2005 2005 2005 2005 2005 2005 2005 2005 2005 
2005 2005 2005 2005 2005 2005 2005 2005 2005 
2005 2005 2005 2005 2005 2005 2005 2005 2005 
2005 2005 2005 2005 2005 2005 2005 2005 2005 
2005 2005 2005 2005 2005 2005 2005 2005 2005 
2005 2005 2005 2005 2005 2005 2005 2005 2005 
2005 2005 2005 2005 2005 2005 2005 2005 2005 
2005 2005 2005 2005 2005 2005 2005 2005 2005 
2005 2005 2005 2005 2005 2005 2005 2005 2005 
2005 2005 2005 2005 2005 2005 2005 2005 2005 
2005 2005 2005 2005 2005 2005 2005 2005 2005 
2005 2005 2005 2005 2005 2005 2005 2005 2005 
2005 2005 2005 2005 2005 2005 2005 2005 2005 
2005 2005 2005 2005 2005 2005 2005 2005 2005 
2005 2005 2005 2005 2005 2005 2005 2005 2005 
2005 2005 2005 2005 2005 2005 2005 2005 2005 
2005 2005 2005 2005 2005 2005 2005 2005 2005 
2005 2005 2005 2005 2005 2005 2005 2005 2005 
2005 2005 2005 2005 2005 2005 2005 2005 2005 
2005 2005 2005 2005 2005 2005 2005 2005 2005 
2005 2005 2005 2005 2005 2005 2005 2005 2005 
2005 2005 2005 2005 2005 2005 2005 2005 2005 
2005 2005 2005 2005 2005 2005 2005 2005 2005 
2005 2005 2005 2005 2005 2005 2005 2005 2005 
2005 2005 2005 2005 2005 2005 2005 2005 2005 
2005 2005 2005 2005 2005 2005 2005 2005 2005 
2005 2005 2005 2005 2005 2005 2005 2005 2005 
2005 2005 2005 2005 2005 2005 2005 2005 2005 
2005 2005 2005 2005 2005 2005 2005 2005 2005 
2005 2005 2005 2005 2005 2005 2005 2005 2005 
2005 2005 2005 2005 2005 2005 2005 2005 2005 
2005 2005 2005 2005 2005 2005 2005 2005 2005 
2005 2005 2005 2005 2005 2005 2005 2005 2005 
2005 2005 2005 2005 2005 2005 2005 2005 2005 
2005 2005 2005 2005 2005 2005 2005 2005 2005 
2005 2005 2005 2005 2005 2005 2005 2005 2005 
2005 2005 2005 2005 2005 2005 2005 2005 2005 
2005 2005 2005 2005 2005 2005 2005 2005 2005 
2005 2005 2005 2005 2005 2005 2005 2005 2005 
2005 2005 2005 2005 2005 2005 2005 2005 2005 
2005 2005 2005 2005 2005 2005 2005 2005 2005 
2005 2005 2005 2005 2005 2005 2005 2005 2005 
2005 2005 2005 2005 2005 2005 2005 2005 2005 
2005 2005 2005 2005 2005 2005 2005 2005 2005 
2005 2005 2005 2005 2005 2005 2005 2005 2005 
2005 2005 2005 2005 2005 2005 2005 2005 2005 
2005 2005 2005 2005 2005 2005 2005 2005 2005 
2005 2005 2005 2005 2005 2005 2005 2005 2005 
2005 2005 2005 2005 2005 2005 2005 2005 2005 
2005 2005 2005 2005 2005 2005 2005 2005 2005 
2005 2005 2005 2005 2005 2005 2005 2005 2005 
2005 2005 2005 2005 2005 2005 2005 2005 2005 
2005 2005 2005 2005 2005 2005 2005 2005 2005 
2005 2005 2005 2005 2005 2005 2005 2005 2005 
2005 2005 2005 2005 2005 2005 2005 2005 2005 
2005 2005 2005 2005 2005 2005 2005 2005 2005 
2005 2005 2005 2005 2005 2005 2005 2005 2005 
2005 2005 2005 2005 2005 2005 2005 2005 2005 
2005 2005 2005 2005 2005 2005 2005 2005 2005 
2005 2005 2005 2005 2005 2005 2005 2005 2005 
2005 2005 2005 2005 2005 2005 2005 2005 2005 
2005 2005 2005 2005 2005 2005 2005 2005 2005 
2005 2005 2005 2005 2005 2005 2005 2005 2005 
2005 2005 2005 2005 2005 2005 2005 2005 2005 
2005 2005 2005 2005 2005 2005 2005 2005 2005 
2005 2005 2005 2005 2005 2005 2005 2005 2005 
2005 2005 2005 2005 2005 2005 2005 2005 2005 
2005 2005 2005 2005 2005 2005 2005 2005 2005 
2005 2005 2005 2005 2005 2005 2005 2005 2005 
2005 2005 2005 2005 2005 2005 2005 2005 2005 
2005 2005 2005 2005 2005 2005 2005 2005 2005 
2005 2005 2005 2005 2005 2005 2005 2005 2005 
2005 2005 2005 2005 2005 2005 2005 2005 2005 
2005 2005 2005 2005 2005 2005 2005 2005 2005 
2005 2005 2005 2005 2005 2005 2005 2005 2005 
2005 2005 2005 2005 2005 2005 2005 2005 2005 
2005 2005 2005 2005 2005 2005 2005 2005 2005 
2005 2005 2005 2005 2005 2005 2005 2005 2005 
2005 2005 2005 2005 2005 2005 2005 2005 2005 
2005 2005 2005 2005 2005 2005 2005 2005 2005 
2005 2005 2005 2005 2005 2005 2005 2005 2005 
2005 2005 2005 2005 2005 2005 2005 2005 2005 
2005 2005 2005 2005 2005 2005 2005 2005 2005 
2005 2005 2005 2005 2005 2005 2005 2005 2005 
2005 2005 2005 2005 2005 2005 2005 2005 2005 
2005 2005 2005 2005 2005 2005 2005 2005 2005 
2005 2005 2005 2005 2005 2005 2005 2005 2005 
2005 2005 2005 2005 2005 2005 2005 2005 2005 
2005 2005 2005 2005 2005 2005 2005 2005 2005 
2005 2005 2005 2005 2005 2005 2005 2005 2005 
2005 2005 2005 2005 2005 2005 2005 2005 2005 
2005 2005 2005 2005 2005 2005 2005 2005 2005 
2005 2005 2005 2005 2005 2005 2005 2005 2005 
2005 2005 2005 2005 2005 2005 2005 2005 2005 
2005 2005 2005 2005 2005 2005 2005 2005 2005 
2005 2005 2005 2005 2005 2005 2005 2005 2005 
2005 2005 2005 2005 2005 2005 2005 2005 2005 
2005 2005 2005 2005 2005 2005 2005 2005 2005 
2005 2005 2005 2005 2005 2005 2005 2005 2005 
2005 2005 2005 2005 2005 2005 2005 2005 2005 
2005 2005 2005 2005 2005 2005 2005 2005 2005 
2005 2005 2005 2005 2005 2005 2005 2005 2005 
2005 2005 2005 2005 2005 2005 2005 2005 2005 
2005 2005 2005 2005 2005 2005 2005 2005 2005 
2005 2005 2005 2005 2005 2005 2005 2005 2005 
2005 2005 2005 2005 2005 2005 2005 2005 2005 
2005 2005 2005 2005 2005 2005 2005 2005 2005 
2005 2005 2005 2005 2005 2005 2005 2005 2005 
2005 2005 2005 2005 2005 2005 2005 2005 2005 
2005 2005 2005 2005 2005 2005 2005 2005 2005 
2005 2005 2005 2005 2005 2005 2005 2005 2005 
2005 2005 2005 2005 2005 2005 2005 2005 2005 
2005 2005 2005 2005 2005 2005 2005 2005 2005 
2005 2005 2005 2005 2005 2005 2005 2005 2005 
2005 2005 2005 2005 2005 2005 2005 2005 2005 
2005 2005 2005 2005 2005 2005 2005 2005 2005 
2005 2005 2005 2005 2005 2005 2005 2005 2005 
2005 2005 2005 2005 2005 2005 2005 2005 2005 
2005 2005 2005 2005 2005 2005 2005 2005 2005 
2005 2005 2005 2005 2005 2005 2005 2005 2005 
2005 2005 2005 2005 2005 2005 2005 2005 2005 
2005 2005 2005 2005 2005 2005 2005 2005 2005 
2005 2005 2005 2005 2005 2005 2005 2005 2005 
2005 2005 2005 2005 2005 2005 2005 2005 2005 
2005 2005 2005 2005 2005 2005 2005 2005 2005 
2005 2005 2005 2005 2005 2005 2005 2005 2005 
2005 2005 2005 2005 2005 2005 2005 2005 2005 
2005 2005 2005 2005 2005 2005 2005 2005 2005 
2005 2005 2005 2005 2005 2005 2005 2005 2005 
2005 2005 2005 2005 2005 2005 2005 2005 2005 
2005 2005 2005 2005 2005 2005 2005 2005 2005 
2005 2005 2005 2005 2005 2005 2005 2005 2005 
2005 2005 2005 2005 2005 2005 2005 2005 2005 
2005 2005 2005 2005 2005 2005 2005 2005 2005 
2005 2005 2005 2005 2005 2005 2005 2005 2005 
2005 2005 2005 2005 2005 2005 2005 2005 2005 
2005 2005 2005 2005 2005 2005 2005 2005 2005 
2005 2005 2005 2005 2005 2005 2005 2005 2005 
2005 2005 2005 2005 2005 2005 2005 2005 2005 
2005 2005 2005 2005 2005 2005 2005 2005 2005 
2005 2005 2005 2005 2005 2005 2005 2005 2005 
2005 2005 2005 2005 2005 2005 2005 2005 2005 
2005 2005 2005 2005 2005 2005 2005 2005 2005 
2005 2005 2005 2005 2005 2005 2005 2005 2005 
2005 2005 2005 2005 2005 2005 2005 2005 2005 
2005 2005 2005 2005 2005 2005 2005 2005 2005 
2005 2005 2005 2005 2005 2005 2005 2005 2005 
2005 2005 2005 2005 2005 2005 2005 2005 2005 
2005 2005 2005 2005 2005 2005 2005 2005 2005 
2005 2005 2005 2005 2005 2005 2005 2005 2005 
2005 2005 2005 2005 2005 2005 2005 2005 2005 
2005 2005 2005 2005 2005 2005 2005 2005 2005 
2005 2005 2005 2005 2005 2005 2005 2005 2005 
2005 2005 2005 2005 2005 2005 2005 2005 2005 
2005 2005 2005 2005 2005 2005 2005 2005 2005 
2005 2005 2005 2005 2005 2005 2005 2005 2005 
2005 2005 2005 2005 2005 2005 2005 2005 2005 
2005 2005 2005 2005 2005 2005 2005 2005 2005 
2005 2005 2005 2005 2005 2005 2005 2005 2005 
2005 2005 2005 2005 2005 2005 2005 2005 2005 
2005 2005 2005 2005 2005 2005 2005 2005 2005 
2005 2005 2005 2005 2005 2005 2005 2005 2005 
2005 2005 2005 2005 2005 2005 2005 2005 2005 
2005 2005 2005 2005 2005 2005 2005 2005 2005 
2005 2005 2005 2005 2005 2005 2005 2005 2005 
2005 2005 2005 2005 2005 2005 2005 2005 2005 
2005 2005 2005 2005 2005 2005 2005 2005 2005 
2005 2005 2005 2005 2005 2005 2005 2005 2005 
2005 2005 2005 2005 2005 2005 2005 2005 2005 
2005 2005 2005 2005 2005 2005 2005 2005 2005 
2005 2005 2005 2005 2005 2005 2005 2005 2005 
2005 2005 2005 2005 2005 2005 2005 2005 2005 
2005 2005 2005 2005 2005 2005 2005 2005 2005 
2005 2005 2005 2005 2005 2005 2005 2005 2005 
2005 2005 2005 2005 2005 2005 2005 2005 2005 
2005 2005 2005 2005 2005 2005 2005 2005 2005 
2005 2005 2005 2005 2005 2005 2005 2005 2005 
2005 2005 2005 2005 2005 2005 2005 2005 2005 
2005 2005 2005 2005 2005 2005 2005 2005 2005 
2005 2005 2005 2005 2005 2005 2005 2005 2005 
2005 2005 2005 2005 2005 2005 2005 2005 2005 
2005 2005 2005 2005 2005 2005 2005 2005 2005 
2005 2005 2005 2005 2005 2005 2005 2005 2005 
2005 2005 2005 2005 2005 2005 2005 2005 2005 
2005 2005 2005 2005 2005 2005 2005 2005 2005 
2005 2005 2005 2005 2005 2005 2005 2005 2005 
2005 2005 2005 2005 2005 2005 2005 2005 2005 
2005 2005 2005 2005 2005 2005 2005 2005 2005 
2005 2005 2005 2005 2005 2005 2005 2005 2005 
2005 2005 2005 2005 2005 2005 2005 2005 2005 
2005 2005 2005 2005 2005 2005 2005 2005 2005 
2005 2005 2005 2005 2005 2005 2005 2005 2005 
2005 2005 2005 2005 2005 2005 2005 2005 2005 
2005 2005 2005 2005 2005 2005 2005 2005 2005 
2005 2005 2005 2005 2005 2005 2005 2005 2005 
2005 2005 2005 2005 2005 2005 2005 2005 2005 
2005 2005 2005 2005 2005 2005 2005 2005 2005 
2005 2005 2005 2005 2005 2005 2005 2005 2005 
2005 2005 2005 2005 2005 2005 2005 2005 2005 
2005 2005 2005 2005 2005 2005 2005 2005 2005 
2005 2005 2005 2005 2005 2005 2005 2005 2005 
2005 2005 2005 2005 2005 2005 2005 2005 2005 
2005 2005 2005 2005 2005 2005 2005 2005 2005 
2005 2005 2005 2005 2005 2005 2005 2005 2005 
2005 2005 2005 2005 2005 2005 2005 2005 2005 
2005 2005 2005 2005 2005 2005 2005 2005 2005 
2005 2005 2005 2005 2005 2005 2005 2005 2005 
2005 2005 2005 2005 2005 2005 2005 2005 2005 
2005 2005 2005 2005 2005 2005 2005 2005 2005 
2005 2005 2005 2005 2005 2005 2005 2005 2005 
2005 2005 2005 2005 2005 2005 2005 2005 2005 
2005 2005 2005 2005 2005 2005 2005 2005 2005 
2005 2005 2005 2005 2005 2005 2005 2005 2005 
2005 2005 2005 2005 2005 2005 2005 2005 2005 
2005 2005 2005 2005 2005 2005 2005 2005 2005 
2005 2005 2005 2005 2005 2005 2005 2005 2005 
2005 2005 2005 2005 2005 2005 2005 2005 2005 
2005 2005 2005 2005 2005 2005 2005 2005 2005 
2005 2005 2005 2005 2005 2005 2005 2005 2005 
2005 2005 2005 2005 2005 2005 2005 2005 2005 
2005 2005 2005 2005 2005 2005 2005 2005 2005 
2005 2005 2005 2005 2005 2005 2005 2005 2005 
2005 2005 2005 2005 2005 2005 2005 2005 2005 
2005 2005 2005 2005 2005 2005 2005 2005 2005 
2005 2005 2005 2005 2005 2005 2005 2005 2005 
2005 2005 2005 2005 2005 2005 2005 2005 2005 
2005 2005 2005 2005 2005 2005 2005 2005 2005 
2005 2005 2005 2005 2005 2005 2005 2005 2005 
2005 2005 2005 2005 2005 2005 2005 2005 2005 
2005 2005 2005 2005 2005 2005 2005 2005 2005 
2005 2005 2005 2005 2005 2005 2005 2005 2005 
2005 2005 2005 2005 2005 2005 2005 2005 2005 
2005 2005 2005 2005 2005 2005 2005 2005 2005 
2005 2005 2005 2005 2005 2005 2005 2005 2005 
2005 2005 2005 2005 2005 2005 2005 2005 2005 
2005 2005 2005 2005 2005 2005 2005 2005 2005 
2005 2005 2005 2005 2005 2005 2005 2005 2005 
2005 2005 2005 2005 2005 2005 2005 2005 2005 
2005 2005 2005 2005 2005 2005 2005 2005 2005 
2005 2005 2005 2005 2005 2005 2005 2005 2005 
2005 2005 2005 2005 2005 2005 2005 2005 2005 
2005 2005 2005 2005 2005 2005 2005 2005 2005 
2005 2005 2005 2005 2005 2005 2005 2005 2005 
2005 2005 2005 2005 2005 2005 2005 2005 2005 
2005 2005 2005 2005 2005 2005 2005 2005 2005 
2005 2005 2005 2005 2005 2005 2005 2005 2005 
2005 2005 2005 2005 2005 2005 2005 2005 2005 
2005 2005 2005 2005 2005 2005 2005 2005 2005 
2005 2005 2005 2005 2005 2005 2005 2005 2005 
2005 2005 2005 2005 2005 2005 2005 2005 2005 
2005 2005 2005 2005 2005 2005 2005 2005 2005 
2005 2005 2005 2005 2005 2005 2005 2005 2005 
2005 2005 2005 2005 2005 2005 2005 2005 2005 