# vtk DataFile Version 4.2
vtk output
ASCII
DATASET POLYDATA
POINTS 14328 float
2.6238 52.5529 -12.3137 2.7557 52.7187 -12.7639 2.42913 52.4921 -12.5057 
3.06993 52.6197 -12.5948 2.5887 52.1967 -12.6187 3.72394 50.4062 -12.3605 
3.53927 50.6721 -12.5183 3.26425 50.3382 -12.607 3.95879 50.5636 -12.5121 
3.68801 50.1898 -12.7145 4.84376 49.8402 -12.6782 4.48338 49.4425 -12.684 
4.68256 49.3917 -12.3337 5.07742 49.4567 -12.5776 4.93539 49.1359 -12.6982 
2.87368 52.7084 -13.5759 2.30651 52.315 -13.2712 3.76694 52.2583 -12.9288 
3.62681 52.9137 -13.4468 4.73832 52.2982 -13.2451 4.50833 52.7764 -13.45 
5.00051 52.5498 -13.718 1.94905 51.5379 -13.1416 1.70338 52.0349 -13.7219 
1.34387 51.3316 -13.8047 2.81401 51.5827 -12.8431 3.72823 51.1639 -12.7971 
4.59072 51.4958 -13.0952 5.24527 51.8406 -13.6782 1.9467 50.7998 -13.6964 
2.29041 50.4414 -13.4445 2.63644 50.7663 -12.9854 4.32576 50.3077 -12.902 
5.23054 50.7059 -13.3374 2.89745 50.2042 -13.1852 3.75478 50.1022 -13.614 
4.34515 49.5753 -13.4518 5.52835 49.3126 -13.04 5.52036 49.849 -13.1783 
5.99617 49.5334 -13.5729 4.82066 49.0721 -13.3853 5.74601 49.0555 -13.6093 
2.9675 53.4367 -14.343 2.83104 53.8167 -14.7973 2.50773 53.3451 -14.667 
3.71404 53.3509 -14.1669 3.43591 53.802 -14.4757 4.12509 53.5427 -14.786 
1.82864 52.3916 -14.2521 1.76025 52.6317 -14.7871 1.33347 52.1769 -14.3 
2.68047 53.0213 -14.505 2.68157 52.4676 -13.977 2.14854 52.4951 -14.5432 
2.98994 52.8125 -14.2098 4.68274 53.0248 -14.3251 5.35327 52.4666 -14.4311 
0.993681 51.433 -14.7355 2.35356 52.3507 -14.2113 5.86139 52.0174 -14.4837 
5.97508 51.26 -13.9774 6.68525 51.2534 -14.2282 6.45785 51.7443 -14.4745 
6.95638 51.5276 -14.7039 1.54379 50.6211 -14.0531 1.25934 50.7058 -14.4104 
2.01482 50.5436 -14.3512 2.76941 50.7887 -14.6582 2.80165 50.4967 -13.8994 
3.6108 50.8328 -14.7048 3.55556 50.4901 -14.1331 4.19602 50.514 -14.5374 
6.01752 50.2455 -13.7766 6.62693 50.4586 -14.136 7.22486 50.7888 -14.6592 
1.57222 50.1517 -14.6841 2.89291 49.9432 -14.7594 2.28028 49.265 -14.5249 
2.78252 49.2682 -14.3071 3.23426 49.4914 -14.6262 4.7155 49.9644 -14.5312 
4.82074 49.3129 -14.0675 5.27861 49.475 -14.6842 6.47271 49.5448 -14.0358 
7.1806 49.5424 -14.611 2.34467 48.3584 -14.5045 2.61455 48.6934 -14.2536 
3.14202 48.7723 -14.4247 5.64409 49.0435 -14.3818 6.46592 49.0571 -14.4092 
2.85177 48.1807 -14.48 0.697075 42.4935 -14.2741 0.3891 42.7382 -14.6613 
0.320128 42.251 -14.5936 1.08974 42.7223 -14.5875 4.74744 42.4516 -14.3518 
4.72071 42.9148 -14.7594 4.5062 42.4282 -14.5203 5.13889 42.4844 -14.5807 
1.00432 42.2356 -14.6306 4.66882 42.0871 -14.6174 10.7437 70.2927 -15.2502 
10.5827 70.9604 -15.6187 10.3467 70.433 -15.5794 11.012 70.6027 -15.5114 
10.6002 69.3737 -15.1393 10.0933 69.5667 -15.5783 11.2182 69.7144 -15.4167 
10.0191 68.5814 -15.155 9.68867 68.9261 -15.8032 9.47827 68.491 -15.5187 
10.7177 68.2704 -15.0591 11.255 68.5053 -15.5096 9.6268 67.9084 -15.5305 
10.1092 67.0792 -15.432 10.5405 67.4667 -15.1453 11.0818 67.5542 -15.3882 
10.689 66.6056 -15.2797 10.3292 66.2704 -15.6609 11.0653 66.7339 -15.5673 
10.8612 66.193 -15.7431 8.93679 64.544 -15.2667 8.68447 64.9654 -15.6021 
8.42859 64.3593 -15.8138 9.4741 64.362 -15.2553 9.34738 64.9086 -15.4265 
9.9992 64.5451 -15.7958 9.08282 64.031 -15.4496 9.74082 63.9362 -15.5922 
9.05424 62.3206 -15.1359 8.67945 63.0133 -15.6259 8.3888 62.4193 -15.5931 
9.75168 62.1988 -15.1723 9.37537 62.9017 -15.4629 10.0501 62.6475 -15.7093 
8.82225 61.4813 -15.031 8.29098 61.4711 -15.5871 9.60579 61.4117 -15.0154 
10.1565 61.6843 -15.5753 8.68085 60.7297 -15.1532 8.33955 60.3938 -15.7853 
9.3581 60.5556 -15.0693 10.0663 60.5863 -15.6477 9.017 60.0017 -15.4059 
9.7014 59.8954 -15.5467 -2.20387 56.1968 -15.2208 -2.52337 56.7705 -15.5651 
-2.96204 56.3753 -15.3954 -1.89318 56.6938 -15.5827 9.70331 56.4216 -15.3373 
9.56345 56.6745 -15.4844 9.40871 56.4174 -15.4442 9.95328 56.5821 -15.5118 
-2.99505 55.5649 -15.1386 -3.38773 56.0443 -15.4426 -3.7635 55.3398 -15.5053 
-2.09846 55.3466 -14.953 -1.38644 56.2164 -15.4147 -1.15467 55.472 -15.0793 
-0.256734 55.2411 -15.2305 -0.615367 55.9433 -15.4887 0.0738987 55.5424 -15.5715 
9.60181 56.1905 -15.6401 -3.1888 54.4593 -15.0611 -3.8859 54.1473 -15.4324 
-2.30718 54.498 -14.916 -1.29869 54.4751 -14.912 -0.374636 54.473 -15.0936 
0.269245 54.6945 -15.4683 -3.21623 53.4082 -15.0498 -3.87173 53.0986 -15.6243 
-2.49429 53.6209 -14.9111 -1.58343 53.391 -15.034 -0.595206 53.5698 -15.1413 
0.236932 53.5372 -15.6909 2.95528 53.807 -15.6955 2.40006 53.4365 -15.2594 
3.53457 53.8867 -15.2166 4.22125 53.5073 -15.7795 -3.31763 52.6394 -15.1704 
-3.58775 52.3835 -15.6654 -2.49889 52.6577 -15.1108 -1.66269 52.3797 -15.6303 
-0.951965 52.8678 -15.4639 -0.288989 52.9373 -15.6596 1.92928 52.9488 -15.7678 
1.15073 52.2352 -15.4137 2.36667 52.8045 -14.8012 4.87475 53.1343 -15.5377 
5.90226 52.4309 -15.1067 5.63244 52.8026 -15.4684 6.3253 52.5761 -15.7104 
-3.08408 52.1511 -15.4207 -2.47091 51.9221 -15.7092 0.69663 51.6669 -15.2918 
0.728083 51.7498 -15.7074 0.548108 51.4936 -15.56 6.73057 52.1054 -15.4291 
7.34864 51.4892 -15.4 0.700116 51.236 -15.3622 1.02214 50.6038 -15.4308 
2.36924 50.2275 -14.7809 3.2156 50.5779 -15.2873 3.85244 50.9067 -15.6468 
4.4831 50.8743 -15.3787 4.74369 50.5471 -15.0461 5.11038 50.4838 -15.7093 
7.81851 51.0213 -15.6068 7.89674 50.1467 -14.9948 8.27249 50.6083 -15.6025 
1.02158 49.4169 -15.1032 0.726712 49.8338 -15.8828 0.426698 49.1598 -15.4852 
1.73479 49.5204 -14.8033 3.70538 49.1569 -15.0359 3.54172 49.9958 -15.2698 
4.0271 49.7175 -15.8168 5.52939 49.842 -15.3675 5.88084 49.3463 -15.1065 
6.16748 49.456 -15.8417 7.97108 49.252 -14.8591 8.53331 50.0955 -15.3762 
8.56442 49.3725 -15.139 9.05315 49.5994 -15.741 0.773426 48.488 -15.1547 
0.227054 48.6626 -15.6225 1.67659 48.5416 -14.8263 3.56491 48.1443 -14.9275 
4.10229 48.7344 -15.6609 6.66544 48.9612 -15.2048 7.60778 48.6656 -15.0893 
7.24435 48.2405 -15.819 8.39759 48.5462 -15.1339 9.06363 48.498 -15.758 
10.7905 48.2482 -15.2434 10.6603 48.9156 -15.6239 10.4366 48.3695 -15.5737 
11.0809 48.6235 -15.7056 0.538623 47.9355 -15.595 1.16889 47.4338 -15.5018 
1.45571 47.7051 -15.166 2.66804 47.5451 -14.9514 3.71306 47.2734 -15.1124 
4.25061 47.7293 -15.6393 8.03059 47.9409 -15.4673 8.63103 47.975 -15.4556 
10.6042 47.3317 -15.1171 10.0857 47.4947 -15.5141 11.2294 47.7205 -15.59 
0.71956 46.2935 -15.2998 0.635259 46.6594 -15.4779 0.411273 46.2059 -15.5556 
1.77346 47.0611 -15.6476 0.824436 46.405 -15.6359 2.81584 46.802 -15.4057 
3.17173 46.1364 -15.4752 3.56574 46.5051 -15.1957 4.23543 46.6973 -15.4594 
9.95716 46.6713 -15.1738 9.50605 46.9035 -15.6632 9.52025 46.3332 -15.6511 
10.469 46.4068 -15.1114 11.2376 46.4718 -15.597 0.56512 45.7091 -15.3231 
0.356779 45.4723 -15.7165 0.994156 45.5176 -15.6953 3.89385 45.3878 -15.2081 
3.23326 45.1774 -15.478 4.28208 45.7749 -15.4588 9.95405 46.1259 -15.3984 
10.5698 45.8697 -15.6443 0.593703 45.2331 -15.5899 3.84616 44.4433 -15.0926 
3.2634 44.1341 -15.6853 4.7704 45.0696 -15.6448 4.5766 44.4189 -15.1611 
5.22248 44.4184 -15.633 1.79351 43.1733 -15.2038 1.7242 43.6719 -15.5449 
1.46895 43.3636 -15.7651 2.0119 43.4931 -15.6674 3.89778 43.4506 -15.1505 
3.49653 43.3423 -15.6889 4.46068 43.7407 -14.9529 5.22968 43.6722 -15.3329 
-0.217516 42.4351 -14.8964 -0.436184 42.8304 -15.561 -0.710801 42.217 -15.3736 
0.685307 42.9243 -15.5928 1.68184 42.4995 -14.8263 2.65838 42.9411 -15.7103 
2.47632 42.5078 -15.254 3.71542 42.9379 -15.469 3.07981 42.4485 -15.5371 
4.05382 42.425 -15.1003 5.53889 42.0786 -14.9565 5.55802 42.8686 -15.164 
6.06891 42.6607 -15.7013 -0.249404 41.7306 -15.17 -0.672149 41.6769 -15.7001 
0.635311 41.9403 -15.3421 0.0638593 41.5062 -15.5867 1.7655 41.986 -15.4394 
2.82801 42.0821 -15.5652 3.68993 41.8969 -15.4611 3.43814 41.5518 -15.5956 
3.97922 41.6146 -15.1606 4.74252 41.4595 -14.9865 5.51949 41.408 -15.1221 
6.06116 41.7524 -15.5782 -0.351254 41.2863 -15.5332 3.77761 40.9885 -15.7542 
4.97684 41.0384 -15.5688 5.75718 41.1581 -15.6729 10.6731 76.548 -16.3215 
10.7175 76.8224 -16.7462 10.4039 76.2644 -16.6852 11.1996 76.4556 -16.7297 
10.7671 76.0779 -16.5546 11.5848 73.2114 -16.1754 11.5981 73.709 -16.6622 
11.1747 73.3037 -16.5709 11.9548 73.5494 -16.6697 10.9996 72.5956 -16.0992 
10.7367 72.8316 -16.6116 10.4871 72.3163 -16.3774 11.6882 72.3868 -16.083 
12.2155 72.7956 -16.5874 10.8277 71.4928 -15.9437 10.3726 71.3664 -16.4167 
11.5559 71.498 -16.0723 12.2357 71.5568 -16.5476 10.1825 70.3606 -16.2839 
11.5886 70.3503 -15.9449 12.0652 70.6011 -16.46 10.0508 69.6135 -16.519 
11.7614 69.1551 -15.9716 12.1406 69.6697 -16.6244 9.7035 68.9501 -16.8029 
9.23788 68.371 -16.2306 11.7133 68.2917 -16.1556 12.0767 68.74 -16.6996 
8.994 67.5168 -16.1274 8.66947 67.9176 -16.8662 8.40761 67.2484 -16.5823 
9.54701 67.3826 -15.7462 11.3906 67.4231 -16.1821 11.7879 67.9713 -16.8615 
8.83193 66.5285 -16.1409 8.17052 66.389 -16.6233 9.56977 66.7292 -15.8261 
11.1316 66.486 -16.472 8.7992 65.6051 -15.9395 8.16347 65.2197 -16.3365 
9.76367 65.6415 -15.9032 10.6207 65.8807 -16.5654 10.2803 65.1935 -16.431 
8.00268 64.3352 -16.5185 10.2993 64.6221 -16.6794 8.81426 63.5605 -15.7567 
8.1567 63.3674 -16.269 9.59928 63.4109 -15.7215 10.1757 63.6166 -16.3651 
8.01849 62.2281 -16.3467 10.3008 62.4539 -16.4953 8.01147 61.1904 -16.3451 
10.3122 61.4362 -16.4955 7.97496 60.2817 -16.475 10.2919 60.6109 -16.6674 
8.83455 59.3935 -15.8818 8.14121 59.3078 -16.5193 9.59731 59.298 -15.916 
10.1351 59.7081 -16.4165 8.79896 58.4745 -16.0897 8.26933 58.3075 -16.495 
9.78453 58.4071 -16.0623 10.235 58.5257 -16.7201 -3.12556 57.499 -16.2155 
-3.34098 57.9967 -16.6476 -3.64302 57.4634 -16.5991 -2.19175 57.265 -16.0033 
-2.61589 57.9915 -16.5024 -1.02191 57.3541 -16.1675 -1.61158 57.9866 -16.5132 
-0.016301 57.3486 -16.172 -0.610445 58.004 -16.5257 0.991193 57.3617 -16.1184 
0.404454 58.0113 -16.5075 1.98165 57.3315 -16.1042 1.46334 57.9992 -16.4818 
2.72869 57.2637 -16.2215 2.43168 57.9235 -16.4731 3.0964 57.6072 -16.5341 
[...]
CELL_DATA 28708
SCALARS scalars float
LOOKUP_TABLE default
1025 1025 1025 1025 1025 1025 1025 1025 1025 
1025 1025 1025 1025 1025 1025 1025 1025 1025 
1025 1025 1025 1025 1025 1025 1025 1025 1025 
1025 1025 1025 1025 1025 1025 1025 1025 1025 
1025 1025 1025 1025 1025 1025 1025 1025 1025 
1025 1025 1025 1025 1025 1025 1025 1025 1025 
1025 1025 1025 1025 1025 1025 1025 1025 1025 
1025 1025 1025 1025 1025 1025 1025 1025 1025 
1025 1025 1025 1025 1025 1025 1025 1025 1025 
1025 1025 1025 1025 1025 1025 1025 1025 1025 
1025 1025 1025 1025 1025 1025 1025 1025 1025 
1025 1025 1025 1025 1025 1025 1025 1025 1025 
1025 1025 1025 1025 1025 1025 1025 1025 1025 
1025 1025 1025 1025 1025 1025 1025 1025 1025 
1025 1025 1025 1025 1025 1025 1025 1025 1025 
1025 1025 1025 1025 1025 1025 1025 1025 1025 
1025 1025 1025 1025 1025 1025 1025 1025 1025 
1025 1025 1025 1025 1025 1025 1025 1025 1025 
1025 1025 1025 1025 1025 1025 1025 1025 1025 
1025 1025 1025 1025 1025 1025 1025 1025 1025 
1025 1025 1025 1025 1025 1025 1025 1025 1025 
1025 1025 1025 1025 1025 1025 1025 1025 1025 
1025 1025 1025 1025 1025 1025 1025 1025 1025 
1025 1025 1025 1025 1025 1025 1025 1025 1025 
1025 1025 1025 1025 1025 1025 1025 1025 1025 
1025 1025 1025 1025 1025 1025 1025 1025 1025 
1025 1025 1025 1025 1025 1025 1025 1025 1025 
1025 1025 1025 1025 1025 1025 1025 1025 1025 
1025 1025 1025 1025 1025 1025 1025 1025 1025 
1025 1025 1025 1025 1025 1025 1025 1025 1025 
1025 1025 1025 1025 1025 1025 1025 1025 1025 
1025 1025 1025 1025 1025 1025 1025 1025 1025 
1025 1025 1025 1025 1025 1025 1025 1025 1025 
1025 1025 1025 1025 1025 1025 1025 1025 1025 
1025 1025 1025 1025 1025 1025 1025 1025 1025 
1025 1025 1025 1025 1025 1025 1025 1025 1025 
1025 1025 1025 1025 1025 1025 1025 1025 1025 
1025 1025 1025 1025 1025 1025 1025 1025 1025 
1025 1025 1025 1025 1025 1025 1025 1025 1025 
1025 1025 1025 1025 1025 1025 1025 1025 1025 
1025 1025 1025 1025 1025 1025 1025 1025 1025 
1025 1025 1025 1025 1025 1025 1025 1025 1025 
1025 1025 1025 1025 1025 1025 1025 1025 1025 
1025 1025 1025 1025 1025 1025 1025 1025 1025 
1025 1025 1025 1025 1025 1025 1025 1025 1025 
1025 1025 1025 1025 1025 1025 1025 1025 1025 
1025 1025 1025 1025 1025 1025 1025 1025 1025 
1025 1025 1025 1025 1025 1025 1025 1025 1025 
1025 1025 1025 1025 1025 1025 1025 1025 1025 
1025 1025 1025 1025 1025 1025 1025 1025 1025 
1025 1025 1025 1025 1025 1025 1025 1025 1025 
1025 1025 1025 1025 1025 1025 1025 1025 1025 
1025 1025 1025 1025 1025 1025 1025 1025 1025 
1025 1025 1025 1025 1025 1025 1025 1025 1025 
1025 1025 1025 1025 1025 1025 1025 1025 1025 
1025 1025 1025 1025 1025 1025 1025 1025 1025 
1025 1025 1025 1025 1025 1025 1025 1025 1025 
1025 1025 1025 1025 1025 1025 1025 1025 1025 
1025 1025 1025 1025 1025 1025 1025 1025 1025 
1025 1025 1025 1025 1025 1025 1025 1025 1025 
1025 1025 1025 1025 1025 1025 1025 1025 1025 
1025 1025 1025 1025 1025 1025 1025 1025 1025 
1025 1025 1025 1025 1025 1025 1025 1025 1025 
1025 1025 1025 1025 1025 1025 1025 1025 1025 
1025 1025 1025 1025 1025 1025 1025 1025 1025 
1025 1025 1025 1025 1025 1025 1025 1025 1025 
1025 1025 1025 1025 1025 1025 1025 1025 1025 
1025 1025 1025 1025 1025 1025 1025 1025 1025 
1025 1025 1025 1025 1025 1025 1025 1025 1025 
1025 1025 1025 1025 1025 1025 1025 1025 1025 
1025 1025 1025 1025 1025 1025 1025 1025 1025 
1025 1025 1025 1025 1025 1025 1025 1025 1025 
1025 1025 1025 1025 1025 1025 1025 1025 1025 
1025 1025 1025 1025 1025 1025 1025 1025 1025 
1025 1025 1025 1025 1025 1025 1025 1025 1025 
1025 1025 1025 1025 1025 1025 1025 1025 1025 
1025 1025 1025 1025 1025 1025 1025 1025 1025 
1025 1025 1025 1025 1025 1025 1025 1025 1025 
1025 1025 1025 1025 1025 1025 1025 1025 1025 
1025 1025 1025 1025 1025 1025 1025 1025 1025 
1025 1025 1025 1025 1025 1025 1025 1025 1025 
1025 1025 1025 1025 1025 1025 1025 1025 1025 
1025 1025 1025 1025 1025 1025 1025 1025 1025 
1025 1025 1025 1025 1025 1025 1025 1025 1025 
1025 1025 1025 1025 1025 1025 1025 1025 1025 
1025 1025 1025 1025 1025 1025 1025 1025 1025 
1025 1025 1025 1025 1025 1025 1025 1025 1025 
1025 1025 1025 1025 1025 1025 1025 1025 1025 
1025 1025 1025 1025 1025 1025 1025 1025 1025 
1025 1025 1025 1025 1025 1025 1025 1025 1025 
1025 1025 1025 1025 1025 1025 1025 1025 1025 
1025 1025 1025 1025 1025 1025 1025 1025 1025 
1025 1025 1025 1025 1025 1025 1025 1025 1025 
1025 1025 1025 1025 1025 1025 1025 1025 1025 
1025 1025 1025 1025 1025 1025 1025 1025 1025 
1025 1025 1025 1025 1025 1025 1025 1025 1025 
1025 1025 1025 1025 1025 1025 1025 1025 1025 
1025 1025 1025 1025 1025 1025 1025 1025 1025 
1025 1025 1025 1025 1025 1025 1025 1025 1025 
1025 1025 1025 1025 1025 1025 1025 1025 1025 
1025 1025 1025 1025 1025 1025 1025 1025 1025 
1025 1025 1025 1025 1025 1025 1025 1025 1025 
1025 1025 1025 1025 1025 1025 1025 1025 1025 
1025 1025 1025 1025 1025 1025 1025 1025 1025 
1025 1025 1025 1025 1025 1025 1025 1025 1025 
1025 1025 1025 1025 1025 1025 1025 1025 1025 
1025 1025 1025 1025 1025 1025 1025 1025 1025 
1025 1025 1025 1025 1025 1025 1025 1025 1025 
1025 1025 1025 1025 1025 1025 1025 1025 1025 
1025 1025 1025 1025 1025 1025 1025 1025 1025 
1025 1025 1025 1025 1025 1025 1025 1025 1025 
1025 1025 1025 1025 1025 1025 1025 1025 1025 
1025 1025 1025 1025 1025 1025 1025 1025 1025 
1025 1025 1025 1025 1025 1025 1025 1025 1025 
1025 1025 1025 1025 1025 1025 1025 1025 1025 
1025 1025 1025 1025 1025 1025 1025 1025 1025 
1025 1025 1025 1025 1025 1025 1025 1025 1025 
1025 1025 1025 1025 1025 1025 1025 1025 1025 
1025 1025 1025 1025 1025 1025 1025 1025 1025 
1025 1025 1025 1025 1025 1025 1025 1025 1025 
1025 1025 1025 1025 1025 1025 1025 1025 1025 
1025 1025 1025 1025 1025 1025 1025 1025 1025 
1025 1025 1025 1025 1025 1025 1025 1025 1025 
1025 1025 1025 1025 1025 1025 1025 1025 1025 
1025 1025 1025 1025 1025 1025 1025 1025 1025 
1025 1025 1025 1025 1025 1025 1025 1025 1025 
1025 1025 1025 1025 1025 1025 1025 1025 1025 
1025 1025 1025 1025 1025 1025 1025 1025 1025 
1025 1025 1025 1025 1025 1025 1025 1025 1025 
1025 1025 1025 1025 1025 1025 1025 1025 1025 
1025 1025 1025 1025 1025 1025 1025 1025 1025 
1025 1025 1025 1025 1025 1025 1025 1025 1025 
1025 1025 1025 1025 1025 1025 1025 1025 1025 
1025 1025 1025 1025 1025 1025 1025 1025 1025 
1025 1025 1025 1025 1025 1025 1025 1025 1025 
1025 1025 1025 1025 1025 1025 1025 1025 1025 
1025 1025 1025 1025 1025 1025 1025 1025 1025 
1025 1025 1025 1025 1025 1025 1025 1025 1025 
1025 1025 1025 1025 1025 1025 1025 1025 1025 
1025 1025 1025 1025 1025 1025 1025 1025 1025 
1025 1025 1025 1025 1025 1025 1025 1025 1025 
1025 1025 1025 1025 1025 1025 1025 1025 1025 
1025 1025 1025 1025 1025 1025 1025 1025 1025 
1025 1025 1025 1025 1025 1025 1025 1025 1025 
1025 1025 1025 1025 1025 1025 1025 1025 1025 
1025 1025 1025 1025 1025 1025 1025 1025 1025 
1025 1025 1025 1025 1025 1025 1025 1025 1025 
1025 1025 1025 1025 1025 1025 1025 1025 1025 
1025 1025 1025 1025 1025 1025 1025 1025 1025 
1025 1025 1025 1025 1025 1025 1025 1025 1025 
1025 1025 1025 1025 1025 1025 1025 1025 1025 
1025 1025 1025 1025 1025 1025 1025 1025 1025 
1025 1025 1025 1025 1025 1025 1025 1025 1025 
1025 1025 1025 1025 1025 1025 1025 1025 1025 
1025 1025 1025 1025 1025 1025 1025 1025 1025 
1025 1025 1025 1025 1025 1025 1025 1025 1025 
1025 1025 1025 1025 1025 1025 1025 1025 1025 
1025 1025 1025 1025 1025 1025 1025 1025 1025 
1025 1025 1025 1025 1025 1025 1025 1025 1025 
1025 1025 1025 1025 1025 1025 1025 1025 1025 
1025 1025 1025 1025 1025 1025 1025 1025 1025 
1025 1025 1025 1025 1025 1025 1025 1025 1025 
1025 1025 1025 1025 1025 1025 1025 1025 1025 
1025 1025 1025 1025 1025 1025 1025 1025 1025 
1025 1025 1025 1025 1025 1025 1025 1025 1025 
1025 1025 1025 1025 1025 1025 1025 1025 1025 
1025 1025 1025 1025 1025 1025 1025 1025 1025 
1025 1025 1025 1025 1025 1025 1025 1025 1025 
1025 1025 1025 1025 1025 1025 1025 1025 1025 
1025 1025 1025 1025 1025 1025 1025 1025 1025 
1025 1025 1025 1025 1025 1025 1025 1025 1025 
1025 1025 1025 1025 1025 1025 1025 1025 1025 
1025 1025 1025 1025 1025 1025 1025 1025 1025 
1025 1025 1025 1025 1025 1025 1025 1025 1025 
1025 1025 1025 1025 1025 1025 1025 1025 1025 
1025 1025 1025 1025 1025 1025 1025 1025 1025 
1025 1025 1025 1025 1025 1025 1025 1025 1025 
1025 1025 1025 1025 1025 1025 1025 1025 1025 
1025 1025 1025 1025 1025 1025 1025 1025 1025 
1025 1025 1025 1025 1025 1025 1025 1025 1025 
1025 1025 1025 1025 1025 1025 1025 1025 1025 
1025 1025 1025 1025 1025 1025 1025 1025 1025 
1025 1025 1025 1025 1025 1025 1025 1025 1025 
1025 1025 1025 1025 1025 1025 1025 1025 1025 
1025 1025 1025 1025 1025 1025 1025 1025 1025 
1025 1025 1025 1025 1025 1025 1025 1025 1025 
1025 1025 1025 1025 1025 1025 1025 1025 1025 
1025 1025 1025 1025 1025 1025 1025 1025 1025 
1025 1025 1025 1025 1025 1025 1025 1025 1025 
1025 1025 1025 1025 1025 1025 1025 1025 1025 
1025 1025 1025 1025 1025 1025 1025 1025 1025 
1025 1025 1025 1025 1025 1025 1025 1025 1025 
1025 1025 1025 1025 1025 1025 1025 1025 1025 
1025 1025 1025 1025 1025 1025 1025 1025 1025 
1025 1025 1025 1025 1025 1025 1025 1025 1025 
1025 1025 1025 1025 1025 1025 1025 1025 1025 
1025 1025 1025 1025 1025 1025 1025 1025 1025 
1025 1025 1025 1025 1025 1025 1025 1025 1025 
1025 1025 1025 1025 1025 1025 1025 1025 1025 
1025 1025 1025 1025 1025 1025 1025 1025 1025 
1025 1025 1025 1025 1025 1025 1025 1025 1025 
1025 1025 1025 1025 1025 1025 1025 1025 1025 
1025 1025 1025 1025 1025 1025 1025 1025 1025 
1025 1025 1025 1025 1025 1025 1025 1025 1025 
1025 1025 1025 1025 1025 1025 1025 1025 1025 
1025 1025 1025 1025 1025 1025 1025 1025 1025 
1025 1025 1025 1025 1025 1025 1025 1025 1025 
1025 1025 1025 1025 1025 1025 1025 1025 1025 
1025 1025 1025 1025 1025 1025 1025 1025 1025 
1025 1025 1025 1025 1025 1025 1025 1025 1025 
1025 1025 1025 1025 1025 1025 1025 1025 1025 
1025 1025 1025 1025 1025 1025 1025 1025 1025 
1025 1025 1025 1025 1025 1025 1025 1025 1025 
1025 1025 1025 1025 1025 1025 1025 1025 1025 
1025 1025 1025 1025 1025 1025 1025 1025 1025 
1025 1025 1025 1025 1025 1025 1025 1025 1025 
1025 1025 1025 1025 1025 1025 1025 1025 1025 
1025 1025 1025 1025 1025 1025 1025 1025 1025 
1025 1025 1025 1025 1025 1025 1025 1025 1025 
1025 1025 1025 1025 1025 1025 1025 1025 1025 
1025 1025 1025 1025 1025 1025 1025 1025 1025 
1025 1025 1025 1025 1025 1025 1025 1025 1025 
1025 1025 1025 1025 1025 1025 1025 1025 1025 
1025 1025 1025 1025 1025 1025 1025 1025 1025 
1025 1025 1025 1025 1025 1025 1025 1025 1025 
1025 1025 1025 1025 1025 1025 1025 1025 1025 
1025 1025 1025 1025 1025 1025 1025 1025 1025 
1025 1025 1025 1025 1025 1025 1025 1025 1025 
1025 1025 1025 1025 1025 1025 1025 1025 1025 
1025 1025 1025 1025 1025 1025 1025 1025 1025 
1025 1025 1025 1025 1025 1025 1025 1025 1025 
1025 1025 1025 1025 1025 1025 1025 1025 1025 
1025 1025 1025 1025 1025 1025 1025 1025 1025 
1025 1025 1025 1025 1025 1025 1025 1025 1025 
1025 1025 1025 1025 1025 1025 1025 1025 1025 
1025 1025 1025 1025 1025 1025 1025 1025 1025 
1025 1025 1025 1025 1025 1025 1025 1025 1025 
1025 1025 1025 1025 1025 1025 1025 1025 1025 
1025 1025 1025 1025 1025 1025 1025 1025 1025 
1025 1025 1025 1025 1025 1025 1025 1025 1025 
1025 1025 1025 1025 1025 1025 1025 1025 1025 
1025 1025 1025 1025 1025 1025 1025 1025 1025 
1025 1025 1025 1025 1025 1025 1025 1025 1025 
1025 1025 1025 1025 1025 1025 1025 1025 1025 
1025 1025 1025 1025 1025 1025 1025 1025 1025 
1025 1025 1025 1025 1025 1025 1025 1025 1025 
1025 1025 1025 1025 1025 1025 1025 1025 1025 
1025 1025 1025 1025 1025 1025 1025 1025 1025 
1025 1025 1025 1025 1025 1025 1025 1025 1025 
1025 1025 1025 1025 1025 1025 1025 1025 1025 
1025 1025 1025 1025 1025 1025 1025 1025 1025 
1025 1025 1025 1025 1025 1025 1025 1025 1025 
1025 1025 1025 1025 1025 1025 1025 1025 1025 
1025 1025 1025 1025 1025 1025 1025 1025 1025 
1025 1025 1025 1025 1025 1025 1025 1025 1025 
1025 1025 1025 1025 1025 1025 1025 1025 1025 
1025 1025 1025 1025 1025 1025 1025 1025 1025 
1025 1025 1025 1025 1025 1025 1025 1025 1025 
1025 1025 1025 1025 1025 1025 1025 1025 1025 
1025 1025 1025 1025 1025 1025 1025 1025 1025 
1025 1025 1025 1025 1025 1025 1025 1025 1025 
1025 1025 1025 1025 1025 1025 1025 1025 1025 
1025 1025 1025 1025 1025 1025 1025 1025 1025 
1025 1025 1025 1025 1025 1025 1025 1025 1025 
1025 1025 1025 1025 1025 1025 1025 1025 1025 
1025 1025 1025 1025 1025 1025 1025 1025 1025 
1025 1025 1025 1025 1025 1025 1025 1025 1025 
1025 1025 1025 1025 1025 1025 1025 1025 1025 
1025 1025 1025 1025 1025 1025 1025 1025 1025 
1025 1025 1025 1025 1025 1025 1025 1025 1025 
1025 1025 1025 1025 1025 1025 1025 1025 1025 
1025 1025 1025 1025 1025 1025 1025 1025 1025 
1025 1025 1025 1025 1025 1025 1025 1025 1025 
1025 1025 1025 1025 1025 1025 1025 1025 1025 
1025 1025 1025 1025 1025 1025 1025 1025 1025 
1025 1025 1025 1025 1025 1025 1025 1025 1025 
1025 1025 1025 1025 1025 1025 1025 1025 1025 
1025 1025 1025 1025 1025 1025 1025 1025 1025 
1025 1025 1025 1025 1025 1025 1025 1025 1025 
1025 1025 1025 1025 1025 1025 1025 1025 1025 
1025 1025 1025 1025 1025 1025 1025 1025 1025 
1025 1025 1025 1025 1025 1025 1025 1025 1025 
1025 1025 1025 1025 1025 1025 1025 1025 1025 
1025 1025 1025 1025 1025 1025 1025 1025 1025 
1025 1025 1025 1025 1025 1025 1025 1025 1025 
1025 1025 1025 1025 1025 1025 1025 1025 1025 
1025 1025 1025 1025 1025 1025 1025 1025 1025 
1025 1025 1025 1025 1025 1025 1025 1025 1025 
1025 1025 1025 1025 1025 1025 1025 1025 1025 
1025 1025 1025 1025 1025 1025 1025 1025 1025 
1025 1025 1025 1025 1025 1025 1025 1025 1025 
1025 1025 1025 1025 1025 1025 1025 1025 1025 
1025 1025 1025 1025 1025 1025 1025 1025 1025 
1025 1025 1025 1025 1025 1025 1025 1025 1025 
1025 1025 1025 1025 1025 1025 1025 1025 1025 
1025 1025 1025 1025 1025 1025 1025 1025 1025 
1025 1025 1025 1025 1025 1025 1025 1025 1025 
1025 1025 1025 1025 1025 1025 1025 1025 1025 
1025 1025 1025 1025 1025 1025 1025 1025 1025 
1025 1025 1025 1025 1025 1025 1025 1025 1025 
1025 1025 1025 1025 1025 1025 1025 1025 1025 
1025 1025 1025 1025 1025 1025 1025 1025 1025 
1025 1025 1025 1025 1025 1025 1025 1025 1025 
1025 1025 1025 1025 1025 1025 1025 1025 1025 
1025 1025 1025 1025 1025 1025 1025 1025 1025 
1025 1025 1025 1025 1025 1025 1025 1025 1025 
1025 1025 1025 1025 1025 1025 1025 1025 1025 
1025 1025 1025 1025 1025 1025 1025 1025 1025 
1025 1025 1025 1025 1025 1025 1025 1025 1025 
1025 1025 1025 1025 1025 1025 1025 1025 1025 
1025 1025 1025 1025 1025 1025 1025 1025 1025 
1025 1025 1025 1025 1025 1025 1025 1025 1025 
1025 1025 1025 1025 1025 1025 1025 1025 1025 
1025 1025 1025 1025 1025 1025 1025 1025 1025 
1025 1025 1025 1025 1025 1025 1025 1025 1025 
1025 1025 1025 1025 1025 1025 1025 1025 1025 
1025 1025 1025 1025 1025 1025 1025 1025 1025 
1025 1025 1025 1025 1025 1025 1025 1025 1025 
1025 1025 1025 1025 1025 1025 1025 1025 1025 
1025 1025 1025 1025 1025 1025 1025 1025 1025 
1025 1025 1025 1025 1025 1025 1025 1025 1025 
1025 1025 1025 1025 1025 1025 1025 1025 1025 
1025 1025 1025 1025 1025 1025 1025 1025 1025 
1025 1025 1025 1025 1025 1025 1025 1025 1025 
1025 1025 1025 1025 1025 1025 1025 1025 1025 
1025 1025 1025 1025 1025 1025 1025 1025 1025 
1025 1025 1025 1025 1025 1025 1025 1025 1025 
1025 1025 1025 1025 1025 1025 1025 1025 1025 
1025 1025 1025 1025 1025 1025 1025 1025 1025 
1025 1025 1025 1025 1025 1025 1025 1025 1025 
1025 1025 1025 1025 1025 1025 1025 1025 1025 
1025 1025 1025 1025 1025 1025 1025 1025 1025 
1025 1025 1025 1025 1025 1025 1025 1025 1025 
1025 1025 1025 1025 1025 1025 1025 1025 1025 
1025 1025 1025 1025 1025 1025 1025 1025 1025 
1025 1025 1025 1025 1025 1025 1025 1025 1025 
1025 1025 1025 1025 1025 1025 1025 1025 1025 
1025 1025 1025 1025 1025 1025 1025 1025 1025 
1025 1025 1025 1025 1025 1025 1025 1025 1025 
1025 1025 1025 1025 1025 1025 1025 1025 1025 
1025 1025 1025 1025 1025 1025 1025 1025 1025 
1025 1025 1025 1025 1025 1025 1025 1025 1025 
1025 1025 1025 1025 1025 1025 1025 1025 1025 
1025 1025 1025 1025 1025 1025 1025 1025 1025 
1025 1025 1025 1025 1025 1025 1025 1025 1025 
1025 1025 1025 1025 1025 1025 1025 1025 1025 
1025 1025 1025 1025 1025 1025 1025 1025 1025 
1025 1025 1025 1025 1025 1025 1025 1025 1025 
1025 1025 1025 1025 1025 1025 1025 1025 1025 
1025 1025 1025 1025 1025 1025 1025 1025 1025 
1025 1025 1025 1025 1025 1025 1025 1025 1025 
1025 1025 1025 1025 1025 1025 1025 1025 1025 
1025 1025 1025 1025 1025 1025 1025 1025 1025 
1025 1025 1025 1025 1025 1025 1025 1025 1025 
1025 1025 1025 1025 1025 1025 1025 1025 1025 
1025 1025 1025 1025 1025 1025 1025 1025 1025 
1025 1025 1025 1025 1025 1025 1025 1025 1025 
1025 1025 1025 1025 1025 1025 1025 1025 1025 
1025 1025 1025 1025 1025 1025 1025 1025 1025 
1025 1025 1025 1025 1025 1025 1025 1025 1025 
1025 1025 1025 1025 1025 1025 1025 1025 1025 
1025 1025 1025 1025 1025 1025 1025 1025 1025 
1025 1025 1025 1025 1025 1025 1025 1025 1025 
1025 1025 1025 1025 1025 1025 1025 1025 1025 
1025 1025 1025 1025 1025 1025 1025 1025 1025 
1025 1025 1025 1025 1025 1025 1025 1025 1025 
1025 1025 1025 1025 1025 1025 1025 1025 1025 
1025 1025 1025 1025 1025 1025 1025 1025 1025 
1025 1025 1025 1025 1025 1025 1025 1025 1025 
1025 1025 1025 1025 1025 1025 1025 1025 1025 
1025 1025 1025 1025 1025 1025 1025 1025 1025 
1025 1025 1025 1025 1025 1025 1025 1025 1025 
1025 1025 1025 1025 1025 1025 1025 1025 1025 
1025 1025 1025 1025 1025 1025 1025 1025 1025 
1025 1025 1025 1025 1025 1025 1025 1025 1025 
1025 1025 1025 1025 1025 1025 1025 1025 1025 
1025 1025 1025 1025 1025 1025 1025 1025 1025 
1025 1025 1025 1025 1025 1025 1025 1025 1025 
1025 1025 1025 1025 1025 1025 1025 1025 1025 
1025 1025 1025 1025 1025 1025 1025 1025 1025 
1025 1025 1025 1025 1025 1025 1025 1025 1025 
1025 1025 1025 1025 1025 1025 1025 1025 1025 
1025 1025 1025 1025 1025 1025 1025 1025 1025 
1025 1025 1025 1025 1025 1025 1025 1025 1025 
1025 1025 1025 1025 1025 1025 1025 1025 1025 
1025 1025 1025 1025 1025 1025 1025 1025 1025 
1025 1025 1025 1025 1025 1025 1025 1025 1025 
1025 1025 1025 1025 1025 1025 1025 1025 1025 
1025 1025 1025 1025 1025 1025 1025 1025 1025 
1025 1025 1025 1025 1025 1025 1025 1025 1025 
1025 1025 1025 1025 1025 1025 1025 1025 1025 
1025 1025 1025 1025 1025 1025 1025 1025 1025 
1025 1025 1025 1025 1025 1025 1025 1025 1025 
1025 1025 1025 1025 1025 1025 1025 1025 1025 
1025 1025 1025 1025 1025 1025 1025 1025 1025 
1025 1025 1025 1025 1025 1025 1025 1025 1025 
1025 1025 1025 1025 1025 1025 1025 1025 1025 
1025 1025 1025 1025 1025 1025 1025 1025 1025 
1025 1025 1025 1025 1025 1025 1025 1025 1025 
1025 1025 1025 1025 1025 1025 1025 1025 1025 
1025 1025 1025 1025 1025 1025 1025 1025 1025 
1025 1025 1025 1025 1025 1025 1025 1025 1025 
1025 1025 1025 1025 1025 1025 1025 1025 1025 
1025 1025 1025 1025 1025 1025 1025 1025 1025 
1025 1025 1025 1025 1025 1025 1025 1025 1025 
1025 1025 1025 1025 1025 1025 1025 1025 1025 
1025 1025 1025 1025 1025 1025 1025 1025 1025 
1025 1025 1025 1025 1025 1025 1025 1025 1025 
1025 1025 1025 1025 1025 1025 1025 1025 1025 
1025 1025 1025 1025 1025 1025 1025 1025 1025 
1025 1025 1025 1025 1025 1025 1025 1025 1025 
1025 1025 1025 1025 1025 1025 1025 1025 1025 
1025 1025 1025 1025 1025 1025 1025 1025 1025 
1025 1025 1025 1025 1025 1025 1025 1025 1025 
1025 1025 1025 1025 1025 1025 1025 1025 1025 
1025 1025 1025 1025 1025 1025 1025 1025 1025 
1025 1025 1025 1025 1025 1025 1025 1025 1025 
1025 1025 1025 1025 1025 1025 1025 1025 1025 
1025 1025 1025 1025 1025 1025 1025 1025 1025 
1025 1025 1025 1025 1025 1025 1025 1025 1025 
1025 1025 1025 1025 1025 1025 1025 1025 1025 
1025 1025 1025 1025 1025 1025 1025 1025 1025 
1025 1025 1025 1025 1025 1025 1025 1025 1025 
1025 1025 1025 1025 1025 1025 1025 1025 1025 
1025 1025 1025 1025 1025 1025 1025 1025 1025 
1025 1025 1025 1025 1025 1025 1025 1025 1025 
1025 1025 1025 1025 1025 1025 1025 1025 1025 
1025 1025 1025 1025 1025 1025 1025 1025 1025 
1025 1025 1025 1025 1025 1025 1025 1025 1025 
1025 1025 1025 1025 1025 1025 1025 1025 1025 
1025 1025 1025 1025 1025 1025 1025 1025 1025 
1025 1025 1025 1025 1025 1025 1025 1025 1025 
1025 1025 1025 1025 1025 1025 1025 1025 1025 