# vtk DataFile Version 4.2
vtk output
ASCII
DATASET POLYDATA
POINTS 5910 float
13.4688 -11.4636 -26.8511 13.6901 -11.8893 -26.6558 13.2814 -11.6835 -26.4919 
12.8449 -11.7529 -26.4753 12.8046 -11.4472 -26.7316 12.1872 -11.6689 -26.5182 
12.191 -11.4432 -26.7308 11.7291 -11.6967 -26.5518 11.5637 -11.4998 -26.7623 
11.4075 -11.6686 -26.662 13.3871 -12.0909 -26.5119 13.6235 -12.351 -26.7232 
13.0835 -12.1896 -26.6078 12.6097 -12.0327 -26.641 12.0237 -11.9566 -26.6578 
11.5413 -11.8605 -26.698 13.3286 -12.4568 -26.7242 12.8193 -13.9243 -26.6911 
12.9379 -14.1092 -26.6472 12.6105 -14.0812 -26.5466 12.3558 -13.9679 -26.7205 
12.2664 -14.1455 -26.5488 12.0762 -14.1303 -26.6334 12.6986 -14.3326 -26.7968 
12.1826 -14.2365 -26.644 14.6025 -15.9559 -26.5442 14.739 -15.7251 -26.7237 
14.6965 -16.0109 -26.7786 14.4409 -15.8344 -26.6454 14.4212 -16.0908 -26.7862 
14.5507 -11.252 -27.0914 14.573 -10.926 -27.4645 14.9125 -11.1574 -27.2627 
14.2592 -11.0055 -27.3518 15.014 -11.6328 -27.0724 15.3319 -11.3851 -27.4585 
15.484 -11.8664 -27.2665 14.5325 -11.753 -26.9613 13.9987 -11.2564 -27.1365 
14.0834 -11.6021 -26.9031 13.4646 -11.3047 -27.3386 12.8311 -11.4736 -27.2765 
12.2209 -11.4293 -27.2108 11.6931 -11.3527 -27.2154 11.1392 -11.336 -27.2295 
11.0045 -11.7812 -26.9289 10.2121 -11.7432 -27.0405 10.534 -11.3656 -27.2651 
9.66947 -11.6721 -27.0595 9.83465 -11.3624 -27.3217 9.33565 -11.8288 -27.1263 
9.33738 -11.5136 -27.2657 9.01645 -11.7395 -27.4673 15.1285 -12.2753 -27.0374 
15.5321 -12.4539 -27.2439 14.6122 -12.2722 -26.9696 14.0265 -12.2391 -26.8935 
12.8452 -12.5217 -26.8748 12.2109 -12.3877 -26.8909 11.5184 -12.2788 -26.9001 
10.8734 -12.4008 -26.9532 10.3543 -12.3096 -26.9527 9.75707 -12.2186 -27.0303 
9.36241 -12.238 -27.1987 9.16336 -11.9888 -27.2674 15.1464 -12.8921 -27.0499 
15.5316 -13.0543 -27.2702 14.6125 -12.9055 -26.9727 14.0125 -12.9153 -26.9812 
13.3684 -12.8352 -26.9361 12.8037 -12.9427 -27.0003 12.3787 -12.9457 -27.0814 
11.7624 -12.8066 -27.0851 11.0512 -12.8923 -27.0466 10.3824 -12.9216 -26.9592 
9.85752 -12.9333 -27.0336 9.45193 -12.8703 -27.3085 15.2075 -13.3549 -27.1346 
15.4164 -13.5475 -27.3402 14.6831 -13.4962 -27.0578 14.0247 -13.5192 -26.9895 
13.4864 -13.4327 -26.9884 12.7909 -13.5082 -26.9943 12.4468 -13.3055 -27.445 
12.0323 -13.0582 -27.3478 11.4687 -13.1607 -27.3503 10.9238 -13.3055 -27.215 
10.6018 -13.6292 -27.2896 10.4719 -13.3762 -27.0764 9.94337 -13.4765 -27.0839 
9.60499 -13.4281 -27.257 15.0057 -13.7732 -27.2971 14.5707 -13.9196 -27.2747 
14.2589 -14.2071 -27.3906 14.1315 -13.9593 -27.1361 13.3637 -14.0164 -26.9491 
12.3493 -13.9447 -27.2159 12.255 -14.2198 -26.8631 10.1322 -13.8134 -27.3812 
9.72894 -13.734 -27.3961 15.6348 -14.7781 -27.0492 15.8135 -14.3776 -27.3503 
16.0174 -14.7338 -27.3123 15.0694 -14.8706 -27.0813 15.4041 -14.4289 -27.277 
14.9449 -14.6017 -27.3504 13.7855 -14.377 -27.3121 13.264 -14.5252 -27.1804 
12.8927 -14.6695 -27.1662 13.0996 -14.7539 -27.3167 12.4636 -14.5234 -27.2229 
15.8306 -15.1496 -27.0643 16.0248 -15.2308 -27.448 15.2479 -15.3507 -26.9854 
14.6031 -14.9057 -27.2598 14.4857 -15.3501 -26.9358 13.8503 -15.3297 -27.071 
14.1093 -14.9903 -27.3028 13.4877 -15.4823 -27.146 13.5633 -15.0582 -27.3018 
12.7869 -14.874 -27.3821 13.1867 -15.2385 -27.3395 15.6473 -15.5049 -27.3217 
15.2931 -15.6351 -27.299 14.92 -15.8645 -27.2891 14.0158 -15.7942 -26.9353 
13.6393 -15.8606 -27.2638 13.2311 -15.6136 -27.5028 14.5158 -16.1757 -27.2724 
14.0587 -16.1309 -27.2921 14.6248 -10.8368 -28.0438 14.9702 -11.0544 -27.6641 
13.8144 -11.0383 -27.5213 14.0327 -10.8334 -27.8501 13.2964 -11.0985 -27.6565 
13.3959 -10.8488 -27.9411 12.7185 -11.1325 -27.7539 12.9273 -10.8522 -27.8771 
12.0873 -11.1005 -27.7443 12.3835 -10.7407 -27.9605 11.4782 -11.1421 -27.6002 
11.6653 -10.7743 -27.9328 10.8211 -11.0859 -27.5773 11.0805 -10.8927 -27.8697 
10.2162 -11.0838 -27.5943 10.4704 -10.7923 -28.0128 9.72063 -11.1216 -27.6805 
9.84367 -10.9058 -27.968 9.43069 -11.0454 -27.9751 15.7298 -11.6778 -27.5821 
15.7395 -11.3703 -27.8936 16.0087 -11.7335 -27.9438 15.3742 -11.2038 -27.8645 
13.0211 -11.6494 -27.7456 12.6325 -11.8278 -27.5788 12.6891 -11.4581 -27.93 
12.1401 -11.4227 -27.9954 12.1388 -11.7754 -27.5917 11.8644 -11.4787 -27.691 
9.2699 -11.3306 -27.6779 8.84917 -11.561 -27.8687 15.8904 -12.2226 -27.5572 
16.2141 -12.2642 -27.9119 12.8189 -12.3585 -27.6373 13.1985 -12.3199 -27.8598 
12.2791 -12.2063 -27.6083 11.6694 -11.9129 -27.8515 11.7842 -12.3462 -27.7502 
11.4159 -12.1718 -27.9637 8.98905 -12.3571 -27.4716 8.61325 -11.9344 -27.7648 
8.43241 -12.309 -27.6662 8.0631 -12.4527 -27.7416 8.13761 -12.1457 -27.9393 
7.84652 -12.3275 -27.8755 16.2243 -12.8242 -27.713 16.4535 -12.5711 -27.9668 
16.5322 -12.8702 -28.073 15.835 -12.7996 -27.4612 13.2898 -12.7471 -27.7336 
13.5916 -12.9769 -27.9007 13.5385 -12.6239 -28.0707 12.8634 -12.9719 -27.6263 
12.2764 -12.7932 -27.5598 11.8423 -13.0033 -27.7176 11.4826 -12.54 -27.9541 
9.15499 -13.0171 -27.6035 8.64521 -12.8082 -27.6815 8.21566 -12.7619 -27.8609 
7.88744 -12.4947 -27.852 16.297 -13.2026 -27.9 16.103 -13.575 -27.9652 
15.8366 -13.4086 -27.587 13.2371 -13.1613 -27.8573 12.7132 -13.2787 -27.8557 
12.0717 -13.5944 -27.6065 12.2053 -13.2397 -27.8669 11.5385 -13.5407 -27.5885 
11.0141 -13.6024 -27.4443 9.4989 -13.4656 -27.6681 9.21003 -13.2726 -27.9978 
8.71641 -13.0906 -28.0423 15.7429 -13.9955 -27.5932 16.1031 -14.1923 -27.9327 
15.2039 -14.0922 -27.4807 14.6236 -14.1988 -27.4977 12.0741 -14.2857 -27.5094 
11.666 -14.0311 -27.6136 11.1335 -14.1558 -27.6638 10.5299 -14.0487 -27.6214 
10.1094 -14.0408 -27.9507 9.84357 -13.7788 -27.8493 16.1378 -14.8214 -27.7703 
14.5525 -14.6072 -27.5024 14.0138 -14.6131 -27.4918 13.3078 -14.8375 -27.4152 
12.2656 -14.8736 -27.5142 11.6637 -14.7453 -27.6903 11.2813 -14.6068 -27.9783 
10.7581 -14.4163 -27.9991 10.3449 -14.3075 -28.0742 16.0514 -15.2511 -28.0499 
12.77 -15.2366 -27.528 12.1842 -15.3013 -27.7071 11.8668 -15.293 -27.8438 
11.6242 -15.0359 -27.929 15.7618 -15.5575 -27.8846 15.241 -15.7156 -27.8202 
14.805 -15.9039 -27.9715 13.6992 -15.9634 -27.708 13.4738 -15.7401 -28.0497 
12.8313 -15.5417 -27.9494 12.2666 -15.4831 -27.9345 14.5919 -16.1039 -27.7817 
14.1835 -16.1446 -27.8239 11.9984 -10.4336 -28.2064 12.0147 -10.3183 -28.6382 
12.3346 -10.4818 -28.3652 11.5438 -10.4958 -28.2612 11.7206 -10.2921 -28.4848 
11.3347 -10.4703 -28.7036 10.2936 -10.5355 -28.3248 10.3446 -10.3613 -28.6854 
10.5758 -10.5458 -28.4212 10.0455 -10.4325 -28.5658 15.6197 -11.0777 -28.2322 
15.7382 -10.9126 -28.6992 16.0016 -11.2604 -28.3652 15.1642 -11.0095 -28.0692 
15.138 -10.8514 -28.5156 14.5065 -10.7766 -28.5872 14.087 -10.7735 -28.391 
13.4666 -10.85 -28.46 12.7778 -10.7342 -28.3134 11.0177 -10.663 -28.3859 
9.9251 -10.6671 -28.3083 8.95721 -11.1753 -28.1407 9.34791 -10.7864 -28.3642 
8.57081 -11.2151 -28.3398 8.63709 -10.7683 -28.5901 8.32597 -11.1024 -28.6388 
16.2314 -11.7297 -28.4023 12.8106 -11.7601 -28.1586 12.4018 -11.6831 -28.2431 
11.8887 -11.7485 -28.5426 11.5626 -11.5347 -28.4272 11.4611 -11.7161 -28.1076 
10.9609 -11.5014 -28.5627 10.8222 -11.7271 -28.2344 10.3686 -11.4227 -28.539 
10.307 -11.6496 -28.2446 9.82812 -11.4597 -28.5302 9.9606 -11.8059 -28.3122 
9.54299 -11.608 -28.5635 8.52137 -11.6727 -28.1479 8.45148 -11.5987 -28.587 
7.36375 -11.7113 -28.3645 7.30392 -11.531 -28.5625 7.59612 -11.6677 -28.5601 
7.07933 -11.7768 -28.6273 16.3919 -12.2187 -28.2028 16.4453 -11.9427 -28.5652 
16.5985 -12.3751 -28.4422 13.0845 -12.1892 -28.2616 12.6087 -12.0459 -28.4882 
12.1934 -12.0001 -28.5923 11.0626 -12.3556 -28.1285 10.4107 -12.2059 -28.2312 
10.0232 -12.2313 -28.4085 9.7164 -11.9191 -28.5089 8.28723 -12.2216 -28.4183 
8.02099 -12.4646 -28.0309 7.34183 -11.9564 -28.5045 16.6591 -12.8467 -28.5528 
13.8922 -12.9899 -28.1524 14.3002 -13.0876 -28.4339 13.9834 -12.7029 -28.5794 
13.2835 -12.5337 -28.6058 11.5617 -13.0023 -28.1109 11.0135 -12.8966 -28.207 
10.517 -12.9659 -28.3038 10.0358 -12.8005 -28.4641 8.41985 -12.7839 -28.2109 
8.84253 -12.9251 -28.5188 8.52579 -12.6112 -28.6771 16.4112 -13.2339 -28.2782 
16.2716 -13.6451 -28.3386 14.0293 -13.3471 -28.3014 14.2785 -13.4123 -28.4752 
13.5068 -13.4511 -28.1687 12.8189 -13.5726 -28.1087 12.1359 -13.5094 -28.142 
11.5991 -13.4986 -28.2297 11.1095 -13.459 -28.3331 10.6474 -13.4026 -28.5113 
10.2803 -13.365 -28.4939 9.8581 -13.3738 -28.2382 10.094 -13.7474 -28.4349 
9.59271 -13.2074 -28.5303 9.12654 -13.1941 -28.5121 16.3281 -13.9935 -28.3616 
16.4854 -13.8302 -28.5501 16.5229 -14.1742 -28.5562 13.9724 -13.7069 -28.5782 
13.3547 -13.8837 -28.4498 12.8233 -14.0788 -28.2808 13.1095 -14.3081 -28.5181 
12.1948 -14.1255 -28.2109 11.5294 -14.1016 -28.2522 11.1352 -14.0366 -28.5037 
10.8884 -13.7516 -28.61 10.1933 -14.1439 -28.413 16.3321 -14.3421 -28.406 
16.1538 -14.7952 -28.3814 12.6607 -14.749 -28.3037 13.0579 -14.8945 -28.5257 
12.2563 -14.6378 -28.2066 11.7513 -14.723 -28.1196 11.025 -14.3807 -28.3692 
10.5403 -14.3322 -28.4665 15.9483 -15.2498 -28.5707 12.6574 -15.2934 -28.2078 
13.0641 -15.3496 -28.4168 12.1001 -15.1712 -28.0826 15.8051 -15.4892 -28.3848 
15.3746 -15.5764 -28.4288 14.7568 -15.6495 -28.4482 14.3956 -15.9492 -28.212 
14.0315 -15.6492 -28.486 13.929 -15.9255 -28.1434 13.4219 -15.5255 -28.4477 
12.2757 -10.6889 -28.7532 11.8257 -10.587 -29.1785 11.6271 -10.3295 -28.9291 
11.3586 -10.522 -29.1848 10.4078 -10.3044 -29.1931 10.6637 -10.5037 -28.9186 
9.60793 -10.4698 -28.7048 9.98515 -10.1781 -29.0868 9.02533 -10.487 -28.7741 
9.25364 -10.1779 -29.1319 8.62689 -10.4734 -28.8389 8.61883 -10.3033 -29.1529 
8.28053 -10.4613 -29.0695 15.6902 -10.7931 -29.1445 16.1302 -11.1011 -28.9394 
15.2194 -10.7862 -29.1128 14.6967 -10.7848 -29.0063 14.039 -10.7758 -29.0506 
13.4301 -11.0693 -28.8931 13.6658 -11.0002 -29.3106 12.8318 -11.067 -28.7727 
12.3036 -11.1439 -28.9425 12.014 -10.9848 -29.124 11.0369 -10.647 -29.1967 
7.94629 -11.2364 -28.8195 7.98589 -10.7573 -29.0808 7.63746 -11.0106 -29.1429 
[...]
CELL_DATA 11904
SCALARS scalars float
LOOKUP_TABLE default
2005 2005 2005 2005 2005 2005 2005 2005 2005 
2005 2005 2005 2005 2005 2005 2005 2005 2005 
2005 2005 2005 2005 2005 2005 2005 2005 2005 
2005 2005 2005 2005 2005 2005 2005 2005 2005 
2005 2005 2005 2005 2005 2005 2005 2005 2005 
2005 2005 2005 2005 2005 2005 2005 2005 2005 
2005 2005 2005 2005 2005 2005 2005 2005 2005 
2005 2005 2005 2005 2005 2005 2005 2005 2005 
2005 2005 2005 2005 2005 2005 2005 2005 2005 
2005 2005 2005 2005 2005 2005 2005 2005 2005 
2005 2005 2005 2005 2005 2005 2005 2005 2005 
2005 2005 2005 2005 2005 2005 2005 2005 2005 
2005 2005 2005 2005 2005 2005 2005 2005 2005 
2005 2005 2005 2005 2005 2005 2005 2005 2005 
2005 2005 2005 2005 2005 2005 2005 2005 2005 
2005 2005 2005 2005 2005 2005 2005 2005 2005 
2005 2005 2005 2005 2005 2005 2005 2005 2005 
2005 2005 2005 2005 2005 2005 2005 2005 2005 
2005 2005 2005 2005 2005 2005 2005 2005 2005 
2005 2005 2005 2005 2005 2005 2005 2005 2005 
2005 2005 2005 2005 2005 2005 2005 2005 2005 
2005 2005 2005 2005 2005 2005 2005 2005 2005 
2005 2005 2005 2005 2005 2005 2005 2005 2005 
2005 2005 2005 2005 2005 2005 2005 2005 2005 
2005 2005 2005 2005 2005 2005 2005 2005 2005 
2005 2005 2005 2005 2005 2005 2005 2005 2005 
2005 2005 2005 2005 2005 2005 2005 2005 2005 
2005 2005 2005 2005 2005 2005 2005 2005 2005 
2005 2005 2005 2005 2005 2005 2005 2005 2005 
2005 2005 2005 2005 2005 2005 2005 2005 2005 
2005 2005 2005 2005 2005 2005 2005 2005 2005 
2005 2005 2005 2005 2005 2005 2005 2005 2005 
2005 2005 2005 2005 2005 2005 2005 2005 2005 
2005 2005 2005 2005 2005 2005 2005 2005 2005 
2005 2005 2005 2005 2005 2005 2005 2005 2005 
2005 2005 2005 2005 2005 2005 2005 2005 2005 
2005 2005 2005 2005 2005 2005 2005 2005 2005 
2005 2005 2005 2005 2005 2005 2005 2005 2005 
2005 2005 2005 2005 2005 2005 2005 2005 2005 
2005 2005 2005 2005 2005 2005 2005 2005 2005 
2005 2005 2005 2005 2005 2005 2005 2005 2005 
2005 2005 2005 2005 2005 2005 2005 2005 2005 
2005 2005 2005 2005 2005 2005 2005 2005 2005 
2005 2005 2005 2005 2005 2005 2005 2005 2005 
2005 2005 2005 2005 2005 2005 2005 2005 2005 
2005 2005 2005 2005 2005 2005 2005 2005 2005 
2005 2005 2005 2005 2005 2005 2005 2005 2005 
2005 2005 2005 2005 2005 2005 2005 2005 2005 
2005 2005 2005 2005 2005 2005 2005 2005 2005 
2005 2005 2005 2005 2005 2005 2005 2005 2005 
2005 2005 2005 2005 2005 2005 2005 2005 2005 
2005 2005 2005 2005 2005 2005 2005 2005 2005 
2005 2005 2005 2005 2005 2005 2005 2005 2005 
2005 2005 2005 2005 2005 2005 2005 2005 2005 
2005 2005 2005 2005 2005 2005 2005 2005 2005 
2005 2005 2005 2005 2005 2005 2005 2005 2005 
2005 2005 2005 2005 2005 2005 2005 2005 2005 
2005 2005 2005 2005 2005 2005 2005 2005 2005 
2005 2005 2005 2005 2005 2005 2005 2005 2005 
2005 2005 2005 2005 2005 2005 2005 2005 2005 
2005 2005 2005 2005 2005 2005 2005 2005 2005 
2005 2005 2005 2005 2005 2005 2005 2005 2005 
2005 2005 2005 2005 2005 2005 2005 2005 2005 
2005 2005 2005 2005 2005 2005 2005 2005 2005 
2005 2005 2005 2005 2005 2005 2005 2005 2005 
2005 2005 2005 2005 2005 2005 2005 2005 2005 
2005 2005 2005 2005 2005 2005 2005 2005 2005 
2005 2005 2005 2005 2005 2005 2005 2005 2005 
2005 2005 2005 2005 2005 2005 2005 2005 2005 
2005 2005 2005 2005 2005 2005 2005 2005 2005 
2005 2005 2005 2005 2005 2005 2005 2005 2005 
2005 2005 2005 2005 2005 2005 2005 2005 2005 
2005 2005 2005 2005 2005 2005 2005 2005 2005 
2005 2005 2005 2005 2005 2005 2005 2005 2005 
2005 2005 2005 2005 2005 2005 2005 2005 2005 
2005 2005 2005 2005 2005 2005 2005 2005 2005 
2005 2005 2005 2005 2005 2005 2005 2005 2005 
2005 2005 2005 2005 2005 2005 2005 2005 2005 
2005 2005 2005 2005 2005 2005 2005 2005 2005 
2005 2005 2005 2005 2005 2005 2005 2005 2005 
2005 2005 2005 2005 2005 2005 2005 2005 2005 
2005 2005 2005 2005 2005 2005 2005 2005 2005 
2005 2005 2005 2005 2005 2005 2005 2005 2005 
2005 2005 2005 2005 2005 2005 2005 2005 2005 
2005 2005 2005 2005 2005 2005 2005 2005 2005 
2005 2005 2005 2005 2005 2005 2005 2005 2005 
2005 2005 2005 2005 2005 2005 2005 2005 2005 
2005 2005 2005 2005 2005 2005 2005 2005 2005 
2005 2005 2005 2005 2005 2005 2005 2005 2005 
2005 2005 2005 2005 2005 2005 2005 2005 2005 
2005 2005 2005 2005 2005 2005 2005 2005 2005 
2005 2005 2005 2005 2005 2005 2005 2005 2005 
2005 2005 2005 2005 2005 2005 2005 2005 2005 
2005 2005 2005 2005 2005 2005 2005 2005 2005 
2005 2005 2005 2005 2005 2005 2005 2005 2005 
2005 2005 2005 2005 2005 2005 2005 2005 2005 
2005 2005 2005 2005 2005 2005 2005 2005 2005 
2005 2005 2005 2005 2005 2005 2005 2005 2005 
2005 2005 2005 2005 2005 2005 2005 2005 2005 
2005 2005 2005 2005 2005 2005 2005 2005 2005 
2005 2005 2005 2005 2005 2005 2005 2005 2005 
2005 2005 2005 2005 2005 2005 2005 2005 2005 
2005 2005 2005 2005 2005 2005 2005 2005 2005 
2005 2005 2005 2005 2005 2005 2005 2005 2005 
2005 2005 2005 2005 2005 2005 2005 2005 2005 
2005 2005 2005 2005 2005 2005 2005 2005 2005 
2005 2005 2005 2005 2005 2005 2005 2005 2005 
2005 2005 2005 2005 2005 2005 2005 2005 2005 
2005 2005 2005 2005 2005 2005 2005 2005 2005 
2005 2005 2005 2005 2005 2005 2005 2005 2005 
2005 2005 2005 2005 2005 2005 2005 2005 2005 
2005 2005 2005 2005 2005 2005 2005 2005 2005 
2005 2005 2005 2005 2005 2005 2005 2005 2005 
2005 2005 2005 2005 2005 2005 2005 2005 2005 
2005 2005 2005 2005 2005 2005 2005 2005 2005 
2005 2005 2005 2005 2005 2005 2005 2005 2005 
2005 2005 2005 2005 2005 2005 2005 2005 2005 
2005 2005 2005 2005 2005 2005 2005 2005 2005 
2005 2005 2005 2005 2005 2005 2005 2005 2005 
2005 2005 2005 2005 2005 2005 2005 2005 2005 
2005 2005 2005 2005 2005 2005 2005 2005 2005 
2005 2005 2005 2005 2005 2005 2005 2005 2005 
2005 2005 2005 2005 2005 2005 2005 2005 2005 
2005 2005 2005 2005 2005 2005 2005 2005 2005 
2005 2005 2005 2005 2005 2005 2005 2005 2005 
2005 2005 2005 2005 2005 2005 2005 2005 2005 
2005 2005 2005 2005 2005 2005 2005 2005 2005 
2005 2005 2005 2005 2005 2005 2005 2005 2005 
2005 2005 2005 2005 2005 2005 2005 2005 2005 
2005 2005 2005 2005 2005 2005 2005 2005 2005 
2005 2005 2005 2005 2005 2005 2005 2005 2005 
2005 2005 2005 2005 2005 2005 2005 2005 2005 
2005 2005 2005 2005 2005 2005 2005 2005 2005 
2005 2005 2005 2005 2005 2005 2005 2005 2005 
2005 2005 2005 2005 2005 2005 2005 2005 2005 
2005 2005 2005 2005 2005 2005 2005 2005 2005 
2005 2005 2005 2005 2005 2005 2005 2005 2005 
2005 2005 2005 2005 2005 2005 2005 2005 2005 
2005 2005 2005 2005 2005 2005 2005 2005 2005 
2005 2005 2005 2005 2005 2005 2005 2005 2005 
2005 2005 2005 2005 2005 2005 2005 2005 2005 
2005 2005 2005 2005 2005 2005 2005 2005 2005 
2005 2005 2005 2005 2005 2005 2005 2005 2005 
2005 2005 2005 2005 2005 2005 2005 2005 2005 
2005 2005 2005 2005 2005 2005 2005 2005 2005 
2005 2005 2005 2005 2005 2005 2005 2005 2005 
2005 2005 2005 2005 2005 2005 2005 2005 2005 
2005 2005 2005 2005 2005 2005 2005 2005 2005 
2005 2005 2005 2005 2005 2005 2005 2005 2005 
2005 2005 2005 2005 2005 2005 2005 2005 2005 
2005 2005 2005 2005 2005 2005 2005 2005 2005 
2005 2005 2005 2005 2005 2005 2005 2005 2005 
2005 2005 2005 2005 2005 2005 2005 2005 2005 
2005 2005 2005 2005 2005 2005 2005 2005 2005 
2005 2005 2005 2005 2005 2005 2005 2005 2005 
2005 2005 2005 2005 2005 2005 2005 2005 2005 
2005 2005 2005 2005 2005 2005 2005 2005 2005 
2005 2005 2005 2005 2005 2005 2005 2005 2005 
2005 2005 2005 2005 2005 2005 2005 2005 2005 
2005 2005 2005 2005 2005 2005 2005 2005 2005 
2005 2005 2005 2005 2005 2005 2005 2005 2005 
2005 2005 2005 2005 2005 2005 2005 2005 2005 
2005 2005 2005 2005 2005 2005 2005 2005 2005 
2005 2005 2005 2005 2005 2005 2005 2005 2005 
2005 2005 2005 2005 2005 2005 2005 2005 2005 
2005 2005 2005 2005 2005 2005 2005 2005 2005 
2005 2005 2005 2005 2005 2005 2005 2005 2005 
2005 2005 2005 2005 2005 2005 2005 2005 2005 
2005 2005 2005 2005 2005 2005 2005 2005 2005 
2005 2005 2005 2005 2005 2005 2005 2005 2005 
2005 2005 2005 2005 2005 2005 2005 2005 2005 
2005 2005 2005 2005 2005 2005 2005 2005 2005 
2005 2005 2005 2005 2005 2005 2005 2005 2005 
2005 2005 2005 2005 2005 2005 2005 2005 2005 
2005 2005 2005 2005 2005 2005 2005 2005 2005 
2005 2005 2005 2005 2005 2005 2005 2005 2005 
2005 2005 2005 2005 2005 2005 2005 2005 2005 
2005 2005 2005 2005 2005 2005 2005 2005 2005 
2005 2005 2005 2005 2005 2005 2005 2005 2005 
2005 2005 2005 2005 2005 2005 2005 2005 2005 
2005 2005 2005 2005 2005 2005 2005 2005 2005 
2005 2005 2005 2005 2005 2005 2005 2005 2005 
2005 2005 2005 2005 2005 2005 2005 2005 2005 
2005 2005 2005 2005 2005 2005 2005 2005 2005 
2005 2005 2005 2005 2005 2005 2005 2005 2005 
2005 2005 2005 2005 2005 2005 2005 2005 2005 
2005 2005 2005 2005 2005 2005 2005 2005 2005 
2005 2005 2005 2005 2005 2005 2005 2005 2005 
2005 2005 2005 2005 2005 2005 2005 2005 2005 
2005 2005 2005 2005 2005 2005 2005 2005 2005 
2005 2005 2005 2005 2005 2005 2005 2005 2005 
2005 2005 2005 2005 2005 2005 2005 2005 2005 
2005 2005 2005 2005 2005 2005 2005 2005 2005 
2005 2005 2005 2005 2005 2005 2005 2005 2005 
2005 2005 2005 2005 2005 2005 2005 2005 2005 
2005 2005 2005 2005 2005 2005 2005 2005 2005 
2005 2005 2005 2005 2005 2005 2005 2005 2005 
2005 2005 2005 2005 2005 2005 2005 2005 2005 
2005 2005 2005 2005 2005 2005 2005 2005 2005 
2005 2005 2005 2005 2005 2005 2005 2005 2005 
2005 2005 2005 2005 2005 2005 2005 2005 2005 
2005 2005 2005 2005 2005 2005 2005 2005 2005 
2005 2005 2005 2005 2005 2005 2005 2005 2005 
2005 2005 2005 2005 2005 2005 2005 2005 2005 
2005 2005 2005 2005 2005 2005 2005 2005 2005 
2005 2005 2005 2005 2005 2005 2005 2005 2005 
2005 2005 2005 2005 2005 2005 2005 2005 2005 
2005 2005 2005 2005 2005 2005 2005 2005 2005 
2005 2005 2005 2005 2005 2005 2005 2005 2005 
2005 2005 2005 2005 2005 2005 2005 2005 2005 
2005 2005 2005 2005 2005 2005 2005 2005 2005 
2005 2005 2005 2005 2005 2005 2005 2005 2005 
2005 2005 2005 2005 2005 2005 2005 2005 2005 
2005 2005 2005 2005 2005 2005 2005 2005 2005 
2005 2005 2005 2005 2005 2005 2005 2005 2005 
2005 2005 2005 2005 2005 2005 2005 2005 2005 
2005 2005 2005 2005 2005 2005 2005 2005 2005 
2005 2005 2005 2005 2005 2005 2005 2005 2005 
2005 2005 2005 2005 2005 2005 2005 2005 2005 
2005 2005 2005 2005 2005 2005 2005 2005 2005 
2005 2005 2005 2005 2005 2005 2005 2005 2005 
2005 2005 2005 2005 2005 2005 2005 2005 2005 
2005 2005 2005 2005 2005 2005 2005 2005 2005 
2005 2005 2005 2005 2005 2005 2005 2005 2005 
2005 2005 2005 2005 2005 2005 2005 2005 2005 
2005 2005 2005 2005 2005 2005 2005 2005 2005 
2005 2005 2005 2005 2005 2005 2005 2005 2005 
2005 2005 2005 2005 2005 2005 2005 2005 2005 
2005 2005 2005 2005 2005 2005 2005 2005 2005 
2005 2005 2005 2005 2005 2005 2005 2005 2005 
2005 2005 2005 2005 2005 2005 2005 2005 2005 
2005 2005 2005 2005 2005 2005 2005 2005 2005 
2005 2005 2005 2005 2005 2005 2005 2005 2005 
2005 2005 2005 2005 2005 2005 2005 2005 2005 
2005 2005 2005 2005 2005 2005 2005 2005 2005 
2005 2005 2005 2005 2005 2005 2005 2005 2005 
2005 2005 2005 2005 2005 2005 2005 2005 2005 
2005 2005 2005 2005 2005 2005 2005 2005 2005 
2005 2005 2005 2005 2005 2005 2005 2005 2005 
2005 2005 2005 2005 2005 2005 2005 2005 2005 
2005 2005 2005 2005 2005 2005 2005 2005 2005 
2005 2005 2005 2005 2005 2005 2005 2005 2005 
2005 2005 2005 2005 2005 2005 2005 2005 2005 
2005 2005 2005 2005 2005 2005 2005 2005 2005 
2005 2005 2005 2005 2005 2005 2005 2005 2005 
2005 2005 2005 2005 2005 2005 2005 2005 2005 
2005 2005 2005 2005 2005 2005 2005 2005 2005 
2005 2005 2005 2005 2005 2005 2005 2005 2005 
2005 2005 2005 2005 2005 2005 2005 2005 2005 
2005 2005 2005 2005 2005 2005 2005 2005 2005 
2005 2005 2005 2005 2005 2005 2005 2005 2005 
2005 2005 2005 2005 2005 2005 2005 2005 2005 
2005 2005 2005 2005 2005 2005 2005 2005 2005 
2005 2005 2005 2005 2005 2005 2005 2005 2005 
2005 2005 2005 2005 2005 2005 2005 2005 2005 
2005 2005 2005 2005 2005 2005 2005 2005 2005 
2005 2005 2005 2005 2005 2005 2005 2005 2005 
2005 2005 2005 2005 2005 2005 2005 2005 2005 
2005 2005 2005 2005 2005 2005 2005 2005 2005 
2005 2005 2005 2005 2005 2005 2005 2005 2005 
2005 2005 2005 2005 2005 2005 2005 2005 2005 
2005 2005 2005 2005 2005 2005 2005 2005 2005 
2005 2005 2005 2005 2005 2005 2005 2005 2005 
2005 2005 2005 2005 2005 2005 2005 2005 2005 
2005 2005 2005 2005 2005 2005 2005 2005 2005 
2005 2005 2005 2005 2005 2005 2005 2005 2005 
2005 2005 2005 2005 2005 2005 2005 2005 2005 
2005 2005 2005 2005 2005 2005 2005 2005 2005 
2005 2005 2005 2005 2005 2005 2005 2005 2005 
2005 2005 2005 2005 2005 2005 2005 2005 2005 
2005 2005 2005 2005 2005 2005 2005 2005 2005 
2005 2005 2005 2005 2005 2005 2005 2005 2005 
2005 2005 2005 2005 2005 2005 2005 2005 2005 
2005 2005 2005 2005 2005 2005 2005 2005 2005 
2005 2005 2005 2005 2005 2005 2005 2005 2005 
2005 2005 2005 2005 2005 2005 2005 2005 2005 
2005 2005 2005 2005 2005 2005 2005 2005 2005 
2005 2005 2005 2005 2005 2005 2005 2005 2005 
2005 2005 2005 2005 2005 2005 2005 2005 2005 
2005 2005 2005 2005 2005 2005 2005 2005 2005 
2005 2005 2005 2005 2005 2005 2005 2005 2005 
2005 2005 2005 2005 2005 2005 2005 2005 2005 
2005 2005 2005 2005 2005 2005 2005 2005 2005 
2005 2005 2005 2005 2005 2005 2005 2005 2005 
2005 2005 2005 2005 2005 2005 2005 2005 2005 
2005 2005 2005 2005 2005 2005 2005 2005 2005 
2005 2005 2005 2005 2005 2005 2005 2005 2005 
2005 2005 2005 2005 2005 2005 2005 2005 2005 
2005 2005 2005 2005 2005 2005 2005 2005 2005 
2005 2005 2005 2005 2005 2005 2005 2005 2005 
2005 2005 2005 2005 2005 2005 2005 2005 2005 
2005 2005 2005 2005 2005 2005 2005 2005 2005 
2005 2005 2005 2005 2005 2005 2005 2005 2005 
2005 2005 2005 2005 2005 2005 2005 2005 2005 
2005 2005 2005 2005 2005 2005 2005 2005 2005 
2005 2005 2005 2005 2005 2005 2005 2005 2005 
2005 2005 2005 2005 2005 2005 2005 2005 2005 
2005 2005 2005 2005 2005 2005 2005 2005 2005 
2005 2005 2005 2005 2005 2005 2005 2005 2005 
2005 2005 2005 2005 2005 2005 2005 2005 2005 
2005 2005 2005 2005 2005 2005 2005 2005 2005 
2005 2005 2005 2005 2005 2005 2005 2005 2005 
2005 2005 2005 2005 2005 2005 2005 2005 2005 
2005 2005 2005 2005 2005 2005 2005 2005 2005 
2005 2005 2005 2005 2005 2005 2005 2005 2005 
2005 2005 2005 2005 2005 2005 2005 2005 2005 
2005 2005 2005 2005 2005 2005 2005 2005 2005 
2005 2005 2005 2005 2005 2005 2005 2005 2005 
2005 2005 2005 2005 2005 2005 2005 2005 2005 
2005 2005 2005 2005 2005 2005 2005 2005 2005 
2005 2005 2005 2005 2005 2005 2005 2005 2005 
2005 2005 2005 2005 2005 2005 2005 2005 2005 
2005 2005 2005 2005 2005 2005 2005 2005 2005 
2005 2005 2005 2005 2005 2005 2005 2005 2005 
2005 2005 2005 2005 2005 2005 2005 2005 2005 
2005 2005 2005 2005 2005 2005 2005 2005 2005 
2005 2005 2005 2005 2005 2005 2005 2005 2005 
2005 2005 2005 2005 2005 2005 2005 2005 2005 
2005 2005 2005 2005 2005 2005 2005 2005 2005 
2005 2005 2005 2005 2005 2005 2005 2005 2005 
2005 2005 2005 2005 2005 2005 2005 2005 2005 
2005 2005 2005 2005 2005 2005 2005 2005 2005 
2005 2005 2005 2005 2005 2005 2005 2005 2005 
2005 2005 2005 2005 2005 2005 2005 2005 2005 
2005 2005 2005 2005 2005 2005 2005 2005 2005 
2005 2005 2005 2005 2005 2005 2005 2005 2005 
2005 2005 2005 2005 2005 2005 2005 2005 2005 
2005 2005 2005 2005 2005 2005 2005 2005 2005 
2005 2005 2005 2005 2005 2005 2005 2005 2005 
2005 2005 2005 2005 2005 2005 2005 2005 2005 
2005 2005 2005 2005 2005 2005 2005 2005 2005 
2005 2005 2005 2005 2005 2005 2005 2005 2005 
2005 2005 2005 2005 2005 2005 2005 2005 2005 
2005 2005 2005 2005 2005 2005 2005 2005 2005 
2005 2005 2005 2005 2005 2005 2005 2005 2005 
2005 2005 2005 2005 2005 2005 2005 2005 2005 
2005 2005 2005 2005 2005 2005 2005 2005 2005 
2005 2005 2005 2005 2005 2005 2005 2005 2005 
2005 2005 2005 2005 2005 2005 2005 2005 2005 
2005 2005 2005 2005 2005 2005 2005 2005 2005 
2005 2005 2005 2005 2005 2005 2005 2005 2005 
2005 2005 2005 2005 2005 2005 2005 2005 2005 
2005 2005 2005 2005 2005 2005 2005 2005 2005 
2005 2005 2005 2005 2005 2005 2005 2005 2005 
2005 2005 2005 2005 2005 2005 2005 2005 2005 
2005 2005 2005 2005 2005 2005 2005 2005 2005 
2005 2005 2005 2005 2005 2005 2005 2005 2005 
2005 2005 2005 2005 2005 2005 2005 2005 2005 
2005 2005 2005 2005 2005 2005 2005 2005 2005 
2005 2005 2005 2005 2005 2005 2005 2005 2005 
2005 2005 2005 2005 2005 2005 2005 2005 2005 
2005 2005 2005 2005 2005 2005 2005 2005 2005 
2005 2005 2005 2005 2005 2005 2005 2005 2005 
2005 2005 2005 2005 2005 2005 2005 2005 2005 
2005 2005 2005 2005 2005 2005 2005 2005 2005 
2005 2005 2005 2005 2005 2005 2005 2005 2005 
2005 2005 2005 2005 2005 2005 2005 2005 2005 
2005 2005 2005 2005 2005 2005 2005 2005 2005 
2005 2005 2005 2005 2005 2005 2005 2005 2005 
2005 2005 2005 2005 2005 2005 2005 2005 2005 
2005 2005 2005 2005 2005 2005 2005 2005 2005 
2005 2005 2005 2005 2005 2005 2005 2005 2005 
2005 2005 2005 2005 2005 2005 2005 2005 2005 
2005 2005 2005 2005 2005 2005 2005 2005 2005 
2005 2005 2005 2005 2005 2005 2005 2005 2005 
2005 2005 2005 2005 2005 2005 2005 2005 2005 
2005 2005 2005 2005 2005 2005 2005 2005 2005 
2005 2005 2005 2005 2005 2005 2005 2005 2005 
2005 2005 2005 2005 2005 2005 2005 2005 2005 
2005 2005 2005 2005 2005 2005 2005 2005 2005 
2005 2005 2005 2005 2005 2005 2005 2005 2005 
2005 2005 2005 2005 2005 2005 2005 2005 2005 
2005 2005 2005 2005 2005 2005 2005 2005 2005 
2005 2005 2005 2005 2005 2005 2005 2005 2005 
2005 2005 2005 2005 2005 2005 2005 2005 2005 
2005 2005 2005 2005 2005 2005 2005 2005 2005 
2005 2005 2005 2005 2005 2005 2005 2005 2005 
2005 2005 2005 2005 2005 2005 2005 2005 2005 
2005 2005 2005 2005 2005 2005 2005 2005 2005 
2005 2005 2005 2005 2005 2005 2005 2005 2005 
2005 2005 2005 2005 2005 2005 2005 2005 2005 
2005 2005 2005 2005 2005 2005 2005 2005 2005 
2005 2005 2005 2005 2005 2005 2005 2005 2005 
2005 2005 2005 2005 2005 2005 2005 2005 2005 
2005 2005 2005 2005 2005 2005 2005 2005 2005 
2005 2005 2005 2005 2005 2005 2005 2005 2005 
2005 2005 2005 2005 2005 2005 2005 2005 2005 
2005 2005 2005 2005 2005 2005 2005 2005 2005 
2005 2005 2005 2005 2005 2005 2005 2005 2005 
2005 2005 2005 2005 2005 2005 2005 2005 2005 
2005 2005 2005 2005 2005 2005 2005 2005 2005 
2005 2005 2005 2005 2005 2005 2005 2005 2005 
2005 2005 2005 2005 2005 2005 2005 2005 2005 
2005 2005 2005 2005 2005 2005 2005 2005 2005 
2005 2005 2005 2005 2005 2005 2005 2005 2005 
2005 2005 2005 2005 2005 2005 2005 2005 2005 
2005 2005 2005 2005 2005 2005 2005 2005 2005 
2005 2005 2005 2005 2005 2005 2005 2005 2005 
2005 2005 2005 2005 2005 2005 2005 2005 2005 
2005 2005 2005 2005 2005 2005 2005 2005 2005 
2005 2005 2005 2005 2005 2005 2005 2005 2005 
2005 2005 2005 2005 2005 2005 2005 2005 2005 
2005 2005 2005 2005 2005 2005 2005 2005 2005 
2005 2005 2005 2005 2005 2005 2005 2005 2005 
2005 2005 2005 2005 2005 2005 2005 2005 2005 
2005 2005 2005 2005 2005 2005 2005 2005 2005 
2005 2005 2005 2005 2005 2005 2005 2005 2005 
2005 2005 2005 2005 2005 2005 2005 2005 2005 
2005 2005 2005 2005 2005 2005 2005 2005 2005 
2005 2005 2005 2005 2005 2005 2005 2005 2005 
2005 2005 2005 2005 2005 2005 2005 2005 2005 
2005 2005 2005 2005 2005 2005 2005 2005 2005 
2005 2005 2005 2005 2005 2005 2005 2005 2005 
2005 2005 2005 2005 2005 2005 2005 2005 2005 
2005 2005 2005 2005 2005 2005 2005 2005 2005 
2005 2005 2005 2005 2005 2005 2005 2005 2005 
2005 2005 2005 2005 2005 2005 2005 2005 2005 
2005 2005 2005 2005 2005 2005 2005 2005 2005 
2005 2005 2005 2005 2005 2005 2005 2005 2005 
2005 2005 2005 2005 2005 2005 2005 2005 2005 
2005 2005 2005 2005 2005 2005 2005 2005 2005 
2005 2005 2005 2005 2005 2005 2005 2005 2005 
2005 2005 2005 2005 2005 2005 2005 2005 2005 
2005 2005 2005 2005 2005 2005 2005 2005 2005 
2005 2005 2005 2005 2005 2005 2005 2005 2005 
2005 2005 2005 2005 2005 2005 2005 2005 2005 
2005 2005 2005 2005 2005 2005 2005 2005 2005 
2005 2005 2005 2005 2005 2005 2005 2005 2005 
2005 2005 2005 2005 2005 2005 2005 2005 2005 
2005 2005 2005 2005 2005 2005 2005 2005 2005 
2005 2005 2005 2005 2005 2005 2005 2005 2005 
2005 2005 2005 2005 2005 2005 2005 2005 2005 
2005 2005 2005 2005 2005 2005 2005 2005 2005 