# vtk DataFile Version 4.2
vtk output
ASCII
DATASET POLYDATA
POINTS 7514 float
-24.7655 43.7597 47.3055 -24.6241 43.3491 47.7314 -24.4111 43.577 47.2241 
-25.1758 43.3576 47.672 -24.6938 43.8166 46.4923 -24.2097 43.3092 46.32 
-25.2311 43.5839 46.7384 -24.4653 43.3851 45.3438 -24.6533 43.7077 45.6682 
-25.2362 43.3532 45.5296 -23.7186 43.6924 44.494 -23.7485 43.2805 44.6161 
-23.4852 43.2683 44.2183 -24.8108 43.3808 44.9895 -23.9768 43.5926 44.5004 
-23.8414 43.5276 44.2557 -25.6654 42.7753 48.2063 -25.4938 42.2077 48.7863 
-25.2628 42.4862 48.5448 -26.0038 42.2517 48.5381 -24.9255 42.8062 48.1354 
-24.1907 42.7829 47.468 -25.7612 43.0768 47.2038 -26.0424 42.4266 47.5977 
-23.7616 42.7285 46.6435 -23.6193 42.3086 47.0494 -23.413 42.2349 46.5634 
-25.7592 43.0611 46.1594 -26.0335 42.6389 46.5951 -23.5842 42.4383 45.9971 
-24.0679 42.8084 45.4193 -25.7736 42.89 45.5064 -26.1476 42.3773 45.7685 
-23.6826 42.6006 44.8917 -23.1973 42.4419 44.2866 -24.3744 43.0844 44.4471 
-25.2468 42.7702 44.5621 -25.8582 42.5358 45.0672 -23.8275 43.0125 43.7209 
-23.3642 42.3682 43.3808 -24.4228 42.6977 43.4474 -25.1376 42.456 43.749 
-26.8066 42.5892 43.4771 -26.7374 42.3081 43.8213 -26.5141 42.5066 43.4401 
-27.0663 42.2477 43.6212 -24.0004 42.4407 43.0187 -24.762 42.3397 43.0996 
-25.7322 42.5273 42.7434 -25.3458 42.4807 42.2804 -25.7945 42.686 42.2427 
-26.7405 42.2458 43.283 -26.007 42.3643 42.5173 -22.9811 42.8354 41.3796 
-22.8841 42.2688 41.8164 -22.456 42.5507 41.2773 -23.8895 42.8391 41.2551 
-23.4168 42.537 41.8941 -24.0992 42.4341 41.6885 -25.6715 42.6727 41.6777 
-25.3581 42.5189 41.5429 -26.0727 42.2772 41.5709 -22.7765 42.8502 40.5572 
-22.4468 42.4025 40.7186 -23.6845 43.0735 40.4341 -24.6115 42.5727 41.0456 
-24.6213 42.8647 40.3325 -25.6953 42.3203 41.0383 -25.1642 42.3297 40.3109 
-22.8363 42.4243 40.0988 -23.2389 42.3659 39.5541 -23.4896 42.8545 39.6741 
-24.4204 42.892 39.5108 -25.0639 42.5487 39.5961 -21.8607 42.7526 38.5994 
-21.6322 42.3988 39.0278 -21.3763 42.3431 38.6809 -22.4571 42.7695 38.4083 
-22.3469 42.5563 38.9222 -23.9637 42.3367 38.9608 -23.1298 42.2938 38.3922 
-24.8114 42.3241 39.0841 -21.7822 42.4546 38.0366 -22.7247 42.4232 37.9498 
-24.6802 42.1155 48.3996 -24.9607 41.6444 48.9573 -24.1873 41.4616 48.5186 
-25.6548 41.6395 49.066 -26.118 41.5425 48.5076 -23.8421 41.9052 47.7193 
-23.4865 41.3849 47.8896 -23.2154 41.6444 47.0948 -25.673 41.1837 47.9028 
-25.8162 41.8693 47.5397 -25.4443 41.5237 47.2045 -23.0492 41.745 46.2874 
-25.8805 41.9856 46.5921 -25.4738 41.265 46.7068 -22.9476 41.8476 45.5819 
-22.5933 41.3294 46.0143 -22.4041 41.2994 45.3737 -23.475 42.2476 45.3309 
-25.8434 41.5195 46.2719 -26.4329 41.4788 45.8168 -26.6166 41.8734 45.1205 
-27.0159 41.3546 45.2392 -22.8894 41.9133 44.8231 -22.3847 41.1061 44.4109 
-25.9279 42.1591 44.3815 -26.5745 41.9618 44.3587 -27.0694 41.6478 44.3296 
-22.7455 41.6383 44.0504 -22.9672 41.6144 43.379 -25.9043 42.1743 43.2498 
-27.0608 41.7258 43.47 -23.6664 42.0906 42.2911 -23.1282 41.5019 42.4799 
-24.6508 42.1891 42.5735 -26.6371 41.6557 43.0815 -26.2146 41.5807 42.3627 
-30.7573 41.6539 42.4552 -30.5945 41.5326 42.7309 -30.3667 41.3731 42.2631 
-30.9889 41.2929 42.745 -22.6204 42.0257 41.1661 -22.9964 41.5477 41.5496 
-24.9064 42.2606 41.4412 -26.0967 41.5174 41.2102 -30.8189 41.2892 42.2915 
-22.6302 42.0684 40.5592 -22.8577 41.7772 40.3558 -25.603 41.9171 40.3384 
-26.0046 41.7386 40.5994 -21.9823 41.229 39.7965 -21.4242 41.7721 39.216 
-22.0015 41.9479 39.4892 -22.4745 41.5343 39.9859 -22.9684 42.1343 39.3033 
-25.3073 41.6293 39.5841 -25.7319 41.3155 40.0875 -21.2047 41.7116 38.4751 
-23.6378 42.0422 38.5473 -24.1346 41.4564 38.3124 -24.6704 41.3878 38.8533 
-20.9851 41.886 37.5286 -20.8138 41.1742 37.9008 -20.3623 41.246 37.1864 
-21.658 42.1986 37.378 -22.3953 42.0255 37.2614 -23.2863 41.5358 37.4062 
-23.7674 41.5316 37.908 -20.7811 41.6305 36.8694 -21.1099 41.5549 36.449 
-21.551 41.8343 36.7712 -22.3439 41.3425 36.3423 -22.852 41.3941 36.8147 
-21.5023 41.2618 36.0148 -24.8662 40.9891 49.355 -24.8729 40.1464 49.8428 
-24.2088 40.5206 49.3589 -26.0823 40.9649 49.4761 -25.8063 40.3686 49.9298 
-26.7239 40.6739 49.5953 -26.5949 40.4773 49.852 -27.0847 40.1511 49.4399 
-22.9064 40.7439 48.4942 -22.7909 40.117 48.7755 -22.4262 40.478 48.2382 
-23.6503 40.9853 48.6177 -23.5258 40.371 49.0161 -26.6207 40.7215 49.058 
-26.2126 40.7578 48.4432 -22.8183 40.9859 47.7514 -22.2817 40.3788 47.4814 
-25.1588 40.6207 47.3737 -25.51 40.2051 47.9937 -26.5369 40.2471 47.4925 
-26.7031 40.6287 47.4022 -26.7284 40.5438 47.6871 -27.0135 40.3065 47.598 
-28.6646 40.6375 47.5274 -28.7511 40.1801 47.7387 -28.5063 40.3343 47.4425 
-29.1366 40.2771 47.4173 -22.6398 41.0674 46.7652 -22.1458 40.5314 46.3061 
-25.5238 40.2775 46.8132 -25.9161 40.979 46.2772 -26.7711 40.2501 47.2382 
-26.0224 40.3656 46.3454 -28.6649 40.4891 47.3256 -22.0692 40.4246 45.1471 
-26.298 40.5087 45.5439 -26.8317 41.0391 45.4255 -31.0186 40.8066 45.4258 
-30.6068 40.4726 45.8491 -30.3676 40.5653 45.5124 -31.9504 40.8725 45.2754 
-31.4115 40.4205 45.7871 -32.0502 40.5458 45.5303 -22.2057 40.4259 44.4244 
-26.864 40.9385 44.7546 -26.2875 40.4422 44.2288 -30.5664 40.429 44.9957 
-31.1096 40.558 44.4912 -31.6871 40.9097 44.6343 -32.4758 40.4243 45.0059 
-32.6844 40.8673 44.4521 -33.0399 40.2484 44.2273 -22.6227 41.1155 43.5364 
-22.3346 40.4515 43.5419 -26.6593 41.0644 43.4751 -26.0818 40.4998 43.3523 
-29.8136 40.8427 43.3915 -29.5277 40.2549 43.8049 -29.0932 40.5942 43.3467 
-30.6099 41.0869 43.2384 -30.4247 40.3087 43.6972 -31.5614 40.4313 43.9982 
-31.0017 40.5491 43.2451 -32.1215 40.5189 43.1457 -32.8048 40.8911 43.5258 
-33.328 40.3695 43.4529 -22.7249 40.9454 42.7225 -22.2392 40.3432 42.3253 
-25.9458 40.799 42.6279 -25.419 40.2953 42.3496 -25.637 40.2825 43.016 
-29.0507 40.7896 42.6271 -28.5087 40.4413 42.9112 -28.4017 40.4068 42.3268 
-29.9589 41.2102 42.7076 -31.0972 40.6012 42.579 -32.9013 40.9503 42.4385 
-32.3124 40.4693 42.2515 -33.669 40.6107 42.8983 -33.7116 40.8773 42.4025 
-34.0741 40.2518 42.213 -22.7403 40.9115 41.7305 -22.2504 40.2784 41.1501 
-25.776 40.9362 41.6671 -25.379 40.2927 41.3958 -28.8406 40.5488 41.8797 
-29.1057 40.5085 41.1256 -29.8243 40.8354 41.5821 -30.6521 40.6669 41.9553 
-30.3788 40.4828 41.4615 -32.8312 40.8521 41.4637 -32.4928 40.3619 41.5991 
-33.6202 40.9313 41.4184 -34.1611 40.5147 41.5941 -22.5747 40.9513 40.5977 
-22.3702 40.3013 40.4396 -25.782 41.0152 40.6986 -25.3918 40.4984 40.3111 
-29.7417 40.8975 40.2964 -29.0698 40.5833 40.3515 -30.5326 40.5207 41.0377 
-30.5433 40.764 40.4021 -31.0474 40.3908 40.5535 -32.9741 40.3139 40.9873 
-33.4544 40.3658 40.3547 -33.4405 40.7594 40.6066 -33.9579 40.3707 40.7059 
-21.6954 41.0335 39.1405 -22.2098 40.4057 39.7406 -25.0563 40.5364 39.5134 
-29.0611 40.8857 39.469 -28.5491 40.449 39.8709 -28.2403 40.566 39.1055 
-29.7344 41.066 39.4164 -30.3742 40.8701 39.375 -31.1445 40.4712 39.7726 
-33.7211 40.5165 40.1939 -21.4876 40.9974 38.4836 -21.9563 40.4083 38.7831 
-24.3949 40.4604 38.5234 -24.6839 40.3625 39.0715 -28.6752 40.8329 38.6338 
-28.2232 40.5871 38.4994 -29.5417 40.8877 38.6554 -30.3108 40.6237 38.5656 
-30.9022 40.4584 38.9912 -20.9407 40.3967 37.8011 -20.3122 40.5503 37.3089 
-21.4722 40.6366 38.2005 -23.8049 40.9958 37.3989 -24.1041 40.5251 37.7339 
-28.7415 40.2492 37.9935 -29.8953 40.2647 38.0988 -20.6783 41.1737 36.4797 
-20.2933 40.4797 36.5939 -22.794 41.0006 36.396 -23.1492 40.7048 36.6026 
-23.7103 40.3158 37.0193 -20.8933 40.647 35.8965 -21.5405 40.7662 35.4313 
-21.2578 40.1449 35.3583 -22.0965 40.7257 35.5436 -22.706 40.357 35.9681 
-21.7971 40.2981 35.1529 -24.5684 39.2889 49.8986 -24.1397 39.8224 49.5448 
-25.6261 39.499 49.9307 -26.6412 39.8313 49.8561 -27.1661 39.4089 49.4647 
-22.6812 39.2856 48.8448 -22.2939 39.737 48.3136 -23.3681 39.4041 49.2001 
-26.7817 40.1028 48.2996 -27.5649 39.4171 48.9667 -27.7195 39.6577 48.5112 
-27.9782 39.1532 48.4437 -21.9782 39.6055 47.4078 -24.7162 39.801 47.5962 
-24.4746 39.3552 47.5127 -24.9065 39.4034 47.7167 -25.7145 39.5679 47.9021 
-26.1834 39.612 47.6332 -27.5924 39.6758 47.9715 -27.2152 39.7451 47.379 
-28.412 39.6257 47.4454 -28.6396 39.4006 47.8516 -30.0384 39.8876 47.2794 
-29.4232 39.6195 47.7991 -30.1372 39.5256 47.5608 -21.7302 39.8546 46.5401 
-21.5873 39.3269 47.0323 -21.3739 39.3641 46.3808 -24.8169 39.6588 47.2792 
-25.3512 39.4 47.0676 -26.0246 39.5074 46.3544 -26.6563 39.5065 47.1869 
-28.7676 39.8739 47.0089 -29.6045 39.9462 46.6894 -29.0897 39.4442 46.1354 
-30.4818 39.3586 47.0385 -30.6352 39.945 46.3749 -30.9484 39.3693 46.2951 
-21.6899 39.9334 45.7688 -21.3576 39.1468 45.3915 -25.8217 39.8084 45.6027 
-25.2875 39.4865 45.1993 -25.4507 39.2369 45.901 -29.9271 39.9827 45.719 
-29.3602 39.306 45.3457 -31.3891 39.5871 45.6178 -31.9356 40.1021 45.4593 
-21.7534 39.6477 45.0133 -22.0214 39.7203 44.2695 -25.7674 39.9654 44.7419 
-25.1951 39.4934 44.2298 -27.9534 39.7159 44.2259 -27.5356 39.3598 44.727 
-27.2447 39.3166 44.1583 -28.145 39.3916 44.6053 -30.0731 39.3278 44.9086 
-30.6521 40.0004 44.4555 -30.3908 39.4675 44.4397 -32.0912 39.6773 44.9384 
-32.6557 39.8872 44.5406 -32.3185 39.4545 44.4785 -22.0057 39.73 43.2273 
-25.7001 40.0244 43.7499 -25.1818 39.6327 43.1627 -27.7126 39.8206 43.6606 
-27.3335 39.4944 43.3226 -28.826 39.6837 44.1316 -28.5149 40.1347 43.5678 
-29.7294 39.4707 44.0841 -30.8925 39.6489 44.0365 -30.7906 40.0061 43.4914 
-30.3861 39.2618 43.3915 -31.4015 39.9092 43.4242 -31.1555 39.0914 43.4626 
-32.5822 39.3935 44.0613 -33.1255 39.5389 43.483 -35.958 39.7572 43.5305 
-35.6406 39.4784 43.8171 -35.4591 39.4841 43.3292 -36.5168 39.7701 43.3978 
-36.4088 39.567 43.8972 -37.0461 39.2361 43.588 -21.773 39.8351 42.5114 
-21.637 39.3225 43.0162 -21.4085 39.352 42.3842 -25.0733 39.5724 42.1652 
-27.9174 39.9876 42.6458 -27.1966 39.3863 42.3375 -31.0282 39.7765 43.1013 
-31.5523 40.0865 42.4211 -33.4741 39.9268 42.3494 -33.2872 39.4798 42.7631 
[...]
CELL_DATA 15088
SCALARS scalars float
LOOKUP_TABLE default
1003 1003 1003 1003 1003 1003 1003 1003 1003 
1003 1003 1003 1003 1003 1003 1003 1003 1003 
1003 1003 1003 1003 1003 1003 1003 1003 1003 
1003 1003 1003 1003 1003 1003 1003 1003 1003 
1003 1003 1003 1003 1003 1003 1003 1003 1003 
1003 1003 1003 1003 1003 1003 1003 1003 1003 
1003 1003 1003 1003 1003 1003 1003 1003 1003 
1003 1003 1003 1003 1003 1003 1003 1003 1003 
1003 1003 1003 1003 1003 1003 1003 1003 1003 
1003 1003 1003 1003 1003 1003 1003 1003 1003 
1003 1003 1003 1003 1003 1003 1003 1003 1003 
1003 1003 1003 1003 1003 1003 1003 1003 1003 
1003 1003 1003 1003 1003 1003 1003 1003 1003 
1003 1003 1003 1003 1003 1003 1003 1003 1003 
1003 1003 1003 1003 1003 1003 1003 1003 1003 
1003 1003 1003 1003 1003 1003 1003 1003 1003 
1003 1003 1003 1003 1003 1003 1003 1003 1003 
1003 1003 1003 1003 1003 1003 1003 1003 1003 
1003 1003 1003 1003 1003 1003 1003 1003 1003 
1003 1003 1003 1003 1003 1003 1003 1003 1003 
1003 1003 1003 1003 1003 1003 1003 1003 1003 
1003 1003 1003 1003 1003 1003 1003 1003 1003 
1003 1003 1003 1003 1003 1003 1003 1003 1003 
1003 1003 1003 1003 1003 1003 1003 1003 1003 
1003 1003 1003 1003 1003 1003 1003 1003 1003 
1003 1003 1003 1003 1003 1003 1003 1003 1003 
1003 1003 1003 1003 1003 1003 1003 1003 1003 
1003 1003 1003 1003 1003 1003 1003 1003 1003 
1003 1003 1003 1003 1003 1003 1003 1003 1003 
1003 1003 1003 1003 1003 1003 1003 1003 1003 
1003 1003 1003 1003 1003 1003 1003 1003 1003 
1003 1003 1003 1003 1003 1003 1003 1003 1003 
1003 1003 1003 1003 1003 1003 1003 1003 1003 
1003 1003 1003 1003 1003 1003 1003 1003 1003 
1003 1003 1003 1003 1003 1003 1003 1003 1003 
1003 1003 1003 1003 1003 1003 1003 1003 1003 
1003 1003 1003 1003 1003 1003 1003 1003 1003 
1003 1003 1003 1003 1003 1003 1003 1003 1003 
1003 1003 1003 1003 1003 1003 1003 1003 1003 
1003 1003 1003 1003 1003 1003 1003 1003 1003 
1003 1003 1003 1003 1003 1003 1003 1003 1003 
1003 1003 1003 1003 1003 1003 1003 1003 1003 
1003 1003 1003 1003 1003 1003 1003 1003 1003 
1003 1003 1003 1003 1003 1003 1003 1003 1003 
1003 1003 1003 1003 1003 1003 1003 1003 1003 
1003 1003 1003 1003 1003 1003 1003 1003 1003 
1003 1003 1003 1003 1003 1003 1003 1003 1003 
1003 1003 1003 1003 1003 1003 1003 1003 1003 
1003 1003 1003 1003 1003 1003 1003 1003 1003 
1003 1003 1003 1003 1003 1003 1003 1003 1003 
1003 1003 1003 1003 1003 1003 1003 1003 1003 
1003 1003 1003 1003 1003 1003 1003 1003 1003 
1003 1003 1003 1003 1003 1003 1003 1003 1003 
1003 1003 1003 1003 1003 1003 1003 1003 1003 
1003 1003 1003 1003 1003 1003 1003 1003 1003 
1003 1003 1003 1003 1003 1003 1003 1003 1003 
1003 1003 1003 1003 1003 1003 1003 1003 1003 
1003 1003 1003 1003 1003 1003 1003 1003 1003 
1003 1003 1003 1003 1003 1003 1003 1003 1003 
1003 1003 1003 1003 1003 1003 1003 1003 1003 
1003 1003 1003 1003 1003 1003 1003 1003 1003 
1003 1003 1003 1003 1003 1003 1003 1003 1003 
1003 1003 1003 1003 1003 1003 1003 1003 1003 
1003 1003 1003 1003 1003 1003 1003 1003 1003 
1003 1003 1003 1003 1003 1003 1003 1003 1003 
1003 1003 1003 1003 1003 1003 1003 1003 1003 
1003 1003 1003 1003 1003 1003 1003 1003 1003 
1003 1003 1003 1003 1003 1003 1003 1003 1003 
1003 1003 1003 1003 1003 1003 1003 1003 1003 
1003 1003 1003 1003 1003 1003 1003 1003 1003 
1003 1003 1003 1003 1003 1003 1003 1003 1003 
1003 1003 1003 1003 1003 1003 1003 1003 1003 
1003 1003 1003 1003 1003 1003 1003 1003 1003 
1003 1003 1003 1003 1003 1003 1003 1003 1003 
1003 1003 1003 1003 1003 1003 1003 1003 1003 
1003 1003 1003 1003 1003 1003 1003 1003 1003 
1003 1003 1003 1003 1003 1003 1003 1003 1003 
1003 1003 1003 1003 1003 1003 1003 1003 1003 
1003 1003 1003 1003 1003 1003 1003 1003 1003 
1003 1003 1003 1003 1003 1003 1003 1003 1003 
1003 1003 1003 1003 1003 1003 1003 1003 1003 
1003 1003 1003 1003 1003 1003 1003 1003 1003 
1003 1003 1003 1003 1003 1003 1003 1003 1003 
1003 1003 1003 1003 1003 1003 1003 1003 1003 
1003 1003 1003 1003 1003 1003 1003 1003 1003 
1003 1003 1003 1003 1003 1003 1003 1003 1003 
1003 1003 1003 1003 1003 1003 1003 1003 1003 
1003 1003 1003 1003 1003 1003 1003 1003 1003 
1003 1003 1003 1003 1003 1003 1003 1003 1003 
1003 1003 1003 1003 1003 1003 1003 1003 1003 
1003 1003 1003 1003 1003 1003 1003 1003 1003 
1003 1003 1003 1003 1003 1003 1003 1003 1003 
1003 1003 1003 1003 1003 1003 1003 1003 1003 
1003 1003 1003 1003 1003 1003 1003 1003 1003 
1003 1003 1003 1003 1003 1003 1003 1003 1003 
1003 1003 1003 1003 1003 1003 1003 1003 1003 
1003 1003 1003 1003 1003 1003 1003 1003 1003 
1003 1003 1003 1003 1003 1003 1003 1003 1003 
1003 1003 1003 1003 1003 1003 1003 1003 1003 
1003 1003 1003 1003 1003 1003 1003 1003 1003 
1003 1003 1003 1003 1003 1003 1003 1003 1003 
1003 1003 1003 1003 1003 1003 1003 1003 1003 
1003 1003 1003 1003 1003 1003 1003 1003 1003 
1003 1003 1003 1003 1003 1003 1003 1003 1003 
1003 1003 1003 1003 1003 1003 1003 1003 1003 
1003 1003 1003 1003 1003 1003 1003 1003 1003 
1003 1003 1003 1003 1003 1003 1003 1003 1003 
1003 1003 1003 1003 1003 1003 1003 1003 1003 
1003 1003 1003 1003 1003 1003 1003 1003 1003 
1003 1003 1003 1003 1003 1003 1003 1003 1003 
1003 1003 1003 1003 1003 1003 1003 1003 1003 
1003 1003 1003 1003 1003 1003 1003 1003 1003 
1003 1003 1003 1003 1003 1003 1003 1003 1003 
1003 1003 1003 1003 1003 1003 1003 1003 1003 
1003 1003 1003 1003 1003 1003 1003 1003 1003 
1003 1003 1003 1003 1003 1003 1003 1003 1003 
1003 1003 1003 1003 1003 1003 1003 1003 1003 
1003 1003 1003 1003 1003 1003 1003 1003 1003 
1003 1003 1003 1003 1003 1003 1003 1003 1003 
1003 1003 1003 1003 1003 1003 1003 1003 1003 
1003 1003 1003 1003 1003 1003 1003 1003 1003 
1003 1003 1003 1003 1003 1003 1003 1003 1003 
1003 1003 1003 1003 1003 1003 1003 1003 1003 
1003 1003 1003 1003 1003 1003 1003 1003 1003 
1003 1003 1003 1003 1003 1003 1003 1003 1003 
1003 1003 1003 1003 1003 1003 1003 1003 1003 
1003 1003 1003 1003 1003 1003 1003 1003 1003 
1003 1003 1003 1003 1003 1003 1003 1003 1003 
1003 1003 1003 1003 1003 1003 1003 1003 1003 
1003 1003 1003 1003 1003 1003 1003 1003 1003 
1003 1003 1003 1003 1003 1003 1003 1003 1003 
1003 1003 1003 1003 1003 1003 1003 1003 1003 
1003 1003 1003 1003 1003 1003 1003 1003 1003 
1003 1003 1003 1003 1003 1003 1003 1003 1003 
1003 1003 1003 1003 1003 1003 1003 1003 1003 
1003 1003 1003 1003 1003 1003 1003 1003 1003 
1003 1003 1003 1003 1003 1003 1003 1003 1003 
1003 1003 1003 1003 1003 1003 1003 1003 1003 
1003 1003 1003 1003 1003 1003 1003 1003 1003 
1003 1003 1003 1003 1003 1003 1003 1003 1003 
1003 1003 1003 1003 1003 1003 1003 1003 1003 
1003 1003 1003 1003 1003 1003 1003 1003 1003 
1003 1003 1003 1003 1003 1003 1003 1003 1003 
1003 1003 1003 1003 1003 1003 1003 1003 1003 
1003 1003 1003 1003 1003 1003 1003 1003 1003 
1003 1003 1003 1003 1003 1003 1003 1003 1003 
1003 1003 1003 1003 1003 1003 1003 1003 1003 
1003 1003 1003 1003 1003 1003 1003 1003 1003 
1003 1003 1003 1003 1003 1003 1003 1003 1003 
1003 1003 1003 1003 1003 1003 1003 1003 1003 
1003 1003 1003 1003 1003 1003 1003 1003 1003 
1003 1003 1003 1003 1003 1003 1003 1003 1003 
1003 1003 1003 1003 1003 1003 1003 1003 1003 
1003 1003 1003 1003 1003 1003 1003 1003 1003 
1003 1003 1003 1003 1003 1003 1003 1003 1003 
1003 1003 1003 1003 1003 1003 1003 1003 1003 
1003 1003 1003 1003 1003 1003 1003 1003 1003 
1003 1003 1003 1003 1003 1003 1003 1003 1003 
1003 1003 1003 1003 1003 1003 1003 1003 1003 
1003 1003 1003 1003 1003 1003 1003 1003 1003 
1003 1003 1003 1003 1003 1003 1003 1003 1003 
1003 1003 1003 1003 1003 1003 1003 1003 1003 
1003 1003 1003 1003 1003 1003 1003 1003 1003 
1003 1003 1003 1003 1003 1003 1003 1003 1003 
1003 1003 1003 1003 1003 1003 1003 1003 1003 
1003 1003 1003 1003 1003 1003 1003 1003 1003 
1003 1003 1003 1003 1003 1003 1003 1003 1003 
1003 1003 1003 1003 1003 1003 1003 1003 1003 
1003 1003 1003 1003 1003 1003 1003 1003 1003 
1003 1003 1003 1003 1003 1003 1003 1003 1003 
1003 1003 1003 1003 1003 1003 1003 1003 1003 
1003 1003 1003 1003 1003 1003 1003 1003 1003 
1003 1003 1003 1003 1003 1003 1003 1003 1003 
1003 1003 1003 1003 1003 1003 1003 1003 1003 
1003 1003 1003 1003 1003 1003 1003 1003 1003 
1003 1003 1003 1003 1003 1003 1003 1003 1003 
1003 1003 1003 1003 1003 1003 1003 1003 1003 
1003 1003 1003 1003 1003 1003 1003 1003 1003 
1003 1003 1003 1003 1003 1003 1003 1003 1003 
1003 1003 1003 1003 1003 1003 1003 1003 1003 
1003 1003 1003 1003 1003 1003 1003 1003 1003 
1003 1003 1003 1003 1003 1003 1003 1003 1003 
1003 1003 1003 1003 1003 1003 1003 1003 1003 
1003 1003 1003 1003 1003 1003 1003 1003 1003 
1003 1003 1003 1003 1003 1003 1003 1003 1003 
1003 1003 1003 1003 1003 1003 1003 1003 1003 
1003 1003 1003 1003 1003 1003 1003 1003 1003 
1003 1003 1003 1003 1003 1003 1003 1003 1003 
1003 1003 1003 1003 1003 1003 1003 1003 1003 
1003 1003 1003 1003 1003 1003 1003 1003 1003 
1003 1003 1003 1003 1003 1003 1003 1003 1003 
1003 1003 1003 1003 1003 1003 1003 1003 1003 
1003 1003 1003 1003 1003 1003 1003 1003 1003 
1003 1003 1003 1003 1003 1003 1003 1003 1003 
1003 1003 1003 1003 1003 1003 1003 1003 1003 
1003 1003 1003 1003 1003 1003 1003 1003 1003 
1003 1003 1003 1003 1003 1003 1003 1003 1003 
1003 1003 1003 1003 1003 1003 1003 1003 1003 
1003 1003 1003 1003 1003 1003 1003 1003 1003 
1003 1003 1003 1003 1003 1003 1003 1003 1003 
1003 1003 1003 1003 1003 1003 1003 1003 1003 
1003 1003 1003 1003 1003 1003 1003 1003 1003 
1003 1003 1003 1003 1003 1003 1003 1003 1003 
1003 1003 1003 1003 1003 1003 1003 1003 1003 
1003 1003 1003 1003 1003 1003 1003 1003 1003 
1003 1003 1003 1003 1003 1003 1003 1003 1003 
1003 1003 1003 1003 1003 1003 1003 1003 1003 
1003 1003 1003 1003 1003 1003 1003 1003 1003 
1003 1003 1003 1003 1003 1003 1003 1003 1003 
1003 1003 1003 1003 1003 1003 1003 1003 1003 
1003 1003 1003 1003 1003 1003 1003 1003 1003 
1003 1003 1003 1003 1003 1003 1003 1003 1003 
1003 1003 1003 1003 1003 1003 1003 1003 1003 
1003 1003 1003 1003 1003 1003 1003 1003 1003 
1003 1003 1003 1003 1003 1003 1003 1003 1003 
1003 1003 1003 1003 1003 1003 1003 1003 1003 
1003 1003 1003 1003 1003 1003 1003 1003 1003 
1003 1003 1003 1003 1003 1003 1003 1003 1003 
1003 1003 1003 1003 1003 1003 1003 1003 1003 
1003 1003 1003 1003 1003 1003 1003 1003 1003 
1003 1003 1003 1003 1003 1003 1003 1003 1003 
1003 1003 1003 1003 1003 1003 1003 1003 1003 
1003 1003 1003 1003 1003 1003 1003 1003 1003 
1003 1003 1003 1003 1003 1003 1003 1003 1003 
1003 1003 1003 1003 1003 1003 1003 1003 1003 
1003 1003 1003 1003 1003 1003 1003 1003 1003 
1003 1003 1003 1003 1003 1003 1003 1003 1003 
1003 1003 1003 1003 1003 1003 1003 1003 1003 
1003 1003 1003 1003 1003 1003 1003 1003 1003 
1003 1003 1003 1003 1003 1003 1003 1003 1003 
1003 1003 1003 1003 1003 1003 1003 1003 1003 
1003 1003 1003 1003 1003 1003 1003 1003 1003 
1003 1003 1003 1003 1003 1003 1003 1003 1003 
1003 1003 1003 1003 1003 1003 1003 1003 1003 
1003 1003 1003 1003 1003 1003 1003 1003 1003 
1003 1003 1003 1003 1003 1003 1003 1003 1003 
1003 1003 1003 1003 1003 1003 1003 1003 1003 
1003 1003 1003 1003 1003 1003 1003 1003 1003 
1003 1003 1003 1003 1003 1003 1003 1003 1003 
1003 1003 1003 1003 1003 1003 1003 1003 1003 
1003 1003 1003 1003 1003 1003 1003 1003 1003 
1003 1003 1003 1003 1003 1003 1003 1003 1003 
1003 1003 1003 1003 1003 1003 1003 1003 1003 
1003 1003 1003 1003 1003 1003 1003 1003 1003 
1003 1003 1003 1003 1003 1003 1003 1003 1003 
1003 1003 1003 1003 1003 1003 1003 1003 1003 
1003 1003 1003 1003 1003 1003 1003 1003 1003 
1003 1003 1003 1003 1003 1003 1003 1003 1003 
1003 1003 1003 1003 1003 1003 1003 1003 1003 
1003 1003 1003 1003 1003 1003 1003 1003 1003 
1003 1003 1003 1003 1003 1003 1003 1003 1003 
1003 1003 1003 1003 1003 1003 1003 1003 1003 
1003 1003 1003 1003 1003 1003 1003 1003 1003 
1003 1003 1003 1003 1003 1003 1003 1003 1003 
1003 1003 1003 1003 1003 1003 1003 1003 1003 
1003 1003 1003 1003 1003 1003 1003 1003 1003 
1003 1003 1003 1003 1003 1003 1003 1003 1003 
1003 1003 1003 1003 1003 1003 1003 1003 1003 
1003 1003 1003 1003 1003 1003 1003 1003 1003 
1003 1003 1003 1003 1003 1003 1003 1003 1003 
1003 1003 1003 1003 1003 1003 1003 1003 1003 
1003 1003 1003 1003 1003 1003 1003 1003 1003 
1003 1003 1003 1003 1003 1003 1003 1003 1003 
1003 1003 1003 1003 1003 1003 1003 1003 1003 
1003 1003 1003 1003 1003 1003 1003 1003 1003 
1003 1003 1003 1003 1003 1003 1003 1003 1003 
1003 1003 1003 1003 1003 1003 1003 1003 1003 
1003 1003 1003 1003 1003 1003 1003 1003 1003 
1003 1003 1003 1003 1003 1003 1003 1003 1003 
1003 1003 1003 1003 1003 1003 1003 1003 1003 
1003 1003 1003 1003 1003 1003 1003 1003 1003 
1003 1003 1003 1003 1003 1003 1003 1003 1003 
1003 1003 1003 1003 1003 1003 1003 1003 1003 
1003 1003 1003 1003 1003 1003 1003 1003 1003 
1003 1003 1003 1003 1003 1003 1003 1003 1003 
1003 1003 1003 1003 1003 1003 1003 1003 1003 
1003 1003 1003 1003 1003 1003 1003 1003 1003 
1003 1003 1003 1003 1003 1003 1003 1003 1003 
1003 1003 1003 1003 1003 1003 1003 1003 1003 
1003 1003 1003 1003 1003 1003 1003 1003 1003 
1003 1003 1003 1003 1003 1003 1003 1003 1003 
1003 1003 1003 1003 1003 1003 1003 1003 1003 
1003 1003 1003 1003 1003 1003 1003 1003 1003 
1003 1003 1003 1003 1003 1003 1003 1003 1003 
1003 1003 1003 1003 1003 1003 1003 1003 1003 
1003 1003 1003 1003 1003 1003 1003 1003 1003 
1003 1003 1003 1003 1003 1003 1003 1003 1003 
1003 1003 1003 1003 1003 1003 1003 1003 1003 
1003 1003 1003 1003 1003 1003 1003 1003 1003 
1003 1003 1003 1003 1003 1003 1003 1003 1003 
1003 1003 1003 1003 1003 1003 1003 1003 1003 
1003 1003 1003 1003 1003 1003 1003 1003 1003 
1003 1003 1003 1003 1003 1003 1003 1003 1003 
1003 1003 1003 1003 1003 1003 1003 1003 1003 
1003 1003 1003 1003 1003 1003 1003 1003 1003 
1003 1003 1003 1003 1003 1003 1003 1003 1003 
1003 1003 1003 1003 1003 1003 1003 1003 1003 
1003 1003 1003 1003 1003 1003 1003 1003 1003 
1003 1003 1003 1003 1003 1003 1003 1003 1003 
1003 1003 1003 1003 1003 1003 1003 1003 1003 
1003 1003 1003 1003 1003 1003 1003 1003 1003 
1003 1003 1003 1003 1003 1003 1003 1003 1003 
1003 1003 1003 1003 1003 1003 1003 1003 1003 
1003 1003 1003 1003 1003 1003 1003 1003 1003 
1003 1003 1003 1003 1003 1003 1003 1003 1003 
1003 1003 1003 1003 1003 1003 1003 1003 1003 
1003 1003 1003 1003 1003 1003 1003 1003 1003 
1003 1003 1003 1003 1003 1003 1003 1003 1003 
1003 1003 1003 1003 1003 1003 1003 1003 1003 
1003 1003 1003 1003 1003 1003 1003 1003 1003 
1003 1003 1003 1003 1003 1003 1003 1003 1003 
1003 1003 1003 1003 1003 1003 1003 1003 1003 
1003 1003 1003 1003 1003 1003 1003 1003 1003 
1003 1003 1003 1003 1003 1003 1003 1003 1003 
1003 1003 1003 1003 1003 1003 1003 1003 1003 
1003 1003 1003 1003 1003 1003 1003 1003 1003 
1003 1003 1003 1003 1003 1003 1003 1003 1003 
1003 1003 1003 1003 1003 1003 1003 1003 1003 
1003 1003 1003 1003 1003 1003 1003 1003 1003 
1003 1003 1003 1003 1003 1003 1003 1003 1003 
1003 1003 1003 1003 1003 1003 1003 1003 1003 
1003 1003 1003 1003 1003 1003 1003 1003 1003 
1003 1003 1003 1003 1003 1003 1003 1003 1003 
1003 1003 1003 1003 1003 1003 1003 1003 1003 
1003 1003 1003 1003 1003 1003 1003 1003 1003 
1003 1003 1003 1003 1003 1003 1003 1003 1003 
1003 1003 1003 1003 1003 1003 1003 1003 1003 
1003 1003 1003 1003 1003 1003 1003 1003 1003 
1003 1003 1003 1003 1003 1003 1003 1003 1003 
1003 1003 1003 1003 1003 1003 1003 1003 1003 
1003 1003 1003 1003 1003 1003 1003 1003 1003 
1003 1003 1003 1003 1003 1003 1003 1003 1003 
1003 1003 1003 1003 1003 1003 1003 1003 1003 
1003 1003 1003 1003 1003 1003 1003 1003 1003 
1003 1003 1003 1003 1003 1003 1003 1003 1003 
1003 1003 1003 1003 1003 1003 1003 1003 1003 
1003 1003 1003 1003 1003 1003 1003 1003 1003 
1003 1003 1003 1003 1003 1003 1003 1003 1003 
1003 1003 1003 1003 1003 1003 1003 1003 1003 
1003 1003 1003 1003 1003 1003 1003 1003 1003 
1003 1003 1003 1003 1003 1003 1003 1003 1003 
1003 1003 1003 1003 1003 1003 1003 1003 1003 
1003 1003 1003 1003 1003 1003 1003 1003 1003 
1003 1003 1003 1003 1003 1003 1003 1003 1003 
1003 1003 1003 1003 1003 1003 1003 1003 1003 
1003 1003 1003 1003 1003 1003 1003 1003 1003 
1003 1003 1003 1003 1003 1003 1003 1003 1003 
1003 1003 1003 1003 1003 1003 1003 1003 1003 
1003 1003 1003 1003 1003 1003 1003 1003 1003 
1003 1003 1003 1003 1003 1003 1003 1003 1003 
1003 1003 1003 1003 1003 1003 1003 1003 1003 
1003 1003 1003 1003 1003 1003 1003 1003 1003 
1003 1003 1003 1003 1003 1003 1003 1003 1003 
1003 1003 1003 1003 1003 1003 1003 1003 1003 
1003 1003 1003 1003 1003 1003 1003 1003 1003 
1003 1003 1003 1003 1003 1003 1003 1003 1003 
1003 1003 1003 1003 1003 1003 1003 1003 1003 
1003 1003 1003 1003 1003 1003 1003 1003 1003 
1003 1003 1003 1003 1003 1003 1003 1003 1003 
1003 1003 1003 1003 1003 1003 1003 1003 1003 
1003 1003 1003 1003 1003 1003 1003 1003 1003 
1003 1003 1003 1003 1003 1003 1003 1003 1003 
1003 1003 1003 1003 1003 1003 1003 1003 1003 
1003 1003 1003 1003 1003 1003 1003 1003 1003 
1003 1003 1003 1003 1003 1003 1003 1003 1003 
1003 1003 1003 1003 1003 1003 1003 1003 1003 
1003 1003 1003 1003 1003 1003 1003 1003 1003 
1003 1003 1003 1003 1003 1003 1003 1003 1003 
1003 1003 1003 1003 1003 1003 1003 1003 1003 
1003 1003 1003 1003 1003 1003 1003 1003 1003 
1003 1003 1003 1003 1003 1003 1003 1003 1003 
1003 1003 1003 1003 1003 1003 1003 1003 1003 
1003 1003 1003 1003 1003 1003 1003 1003 1003 
1003 1003 1003 1003 1003 1003 1003 1003 1003 
1003 1003 1003 1003 1003 1003 1003 1003 1003 
1003 1003 1003 1003 1003 1003 1003 1003 1003 
1003 1003 1003 1003 1003 1003 1003 1003 1003 
1003 1003 1003 1003 1003 1003 1003 1003 1003 
1003 1003 1003 1003 1003 1003 1003 1003 1003 
1003 1003 1003 1003 1003 1003 1003 1003 1003 
1003 1003 1003 1003 1003 1003 1003 1003 1003 
1003 1003 1003 1003 1003 1003 1003 1003 1003 
1003 1003 1003 1003 1003 1003 1003 1003 1003 
1003 1003 1003 1003 1003 1003 1003 1003 1003 
1003 1003 1003 1003 1003 1003 1003 1003 1003 
1003 1003 1003 1003 1003 1003 1003 1003 1003 
1003 1003 1003 1003 1003 1003 1003 1003 1003 
1003 1003 1003 1003 1003 1003 1003 1003 1003 
1003 1003 1003 1003 1003 1003 1003 1003 1003 
1003 1003 1003 1003 1003 1003 1003 1003 1003 
1003 1003 1003 1003 1003 1003 1003 1003 1003 
1003 1003 1003 1003 1003 1003 1003 1003 1003 
1003 1003 1003 1003 1003 1003 1003 1003 1003 
1003 1003 1003 1003 1003 1003 1003 1003 1003 
1003 1003 1003 1003 1003 1003 1003 1003 1003 
1003 1003 1003 1003 1003 1003 1003 1003 1003 
1003 1003 1003 1003 1003 1003 1003 1003 1003 
1003 1003 1003 1003 1003 1003 1003 1003 1003 
1003 1003 1003 1003 1003 1003 1003 1003 1003 
1003 1003 1003 1003 1003 1003 1003 1003 1003 
1003 1003 1003 1003 1003 1003 1003 1003 1003 
1003 1003 1003 1003 1003 1003 1003 1003 1003 
1003 1003 1003 1003 1003 1003 1003 1003 1003 
1003 1003 1003 1003 1003 1003 1003 1003 1003 
1003 1003 1003 1003 1003 1003 1003 1003 1003 
1003 1003 1003 1003 1003 1003 1003 1003 1003 
1003 1003 1003 1003 1003 1003 1003 1003 1003 
1003 1003 1003 1003 1003 1003 1003 1003 1003 
1003 1003 1003 1003 1003 1003 1003 1003 1003 
1003 1003 1003 1003 1003 1003 1003 1003 1003 
1003 1003 1003 1003 1003 1003 1003 1003 1003 
1003 1003 1003 1003 1003 1003 1003 1003 1003 
1003 1003 1003 1003 1003 1003 1003 1003 1003 
1003 1003 1003 1003 1003 1003 1003 1003 1003 
1003 1003 1003 1003 1003 1003 1003 1003 1003 
1003 1003 1003 1003 1003 1003 1003 1003 1003 
1003 1003 1003 1003 1003 1003 1003 1003 1003 
1003 1003 1003 1003 1003 1003 1003 1003 1003 
1003 1003 1003 1003 1003 1003 1003 1003 1003 
1003 1003 1003 1003 1003 1003 1003 1003 1003 
1003 1003 1003 1003 1003 1003 1003 1003 1003 
1003 1003 1003 1003 1003 1003 1003 1003 1003 
1003 1003 1003 1003 1003 1003 1003 1003 1003 
1003 1003 1003 1003 1003 1003 1003 1003 1003 
1003 1003 1003 1003 1003 1003 1003 1003 1003 
1003 1003 1003 1003 1003 1003 1003 1003 1003 
1003 1003 1003 1003 1003 1003 1003 1003 1003 
1003 1003 1003 1003 1003 1003 1003 1003 1003 
1003 1003 1003 1003 1003 1003 1003 1003 1003 
1003 1003 1003 1003 1003 1003 1003 1003 1003 
1003 1003 1003 1003 1003 1003 1003 1003 1003 
1003 1003 1003 1003 1003 1003 1003 1003 1003 
1003 1003 1003 1003 1003 1003 1003 1003 1003 