# vtk DataFile Version 4.2
vtk output
ASCII
DATASET POLYDATA
POINTS 11196 float
-13.2729 -24.6945 75.7722 -13.4078 -24.2835 75.3444 -13.6453 -24.7476 75.6108 
-13.0371 -24.4433 75.3166 -13.4249 -25.2815 75.8102 -13.7112 -25.427 75.2772 
-12.8614 -25.1729 75.4106 -13.0604 -25.8097 75.3452 -13.2404 -24.2792 74.7849 
-13.7011 -24.7294 74.7258 -12.8799 -24.6249 74.7744 -13.7704 -25.5478 74.3632 
-12.5553 -24.9344 74.3828 -12.2046 -25.6171 74.9934 -11.4632 -25.68 74.7056 
-11.6132 -25.1446 74.529 -10.9916 -25.4039 74.4358 -13.2404 -25.9738 74.5252 
-12.1314 -25.9996 74.5373 -11.1446 -25.8241 74.3505 -10.3077 -26.2695 74.5369 
-10.4987 -26.6455 74.2368 -10.3006 -26.5235 74.6424 -10.0752 -26.3873 74.4816 
-10.1662 -26.7757 74.454 -9.05698 -27.1132 74.3842 -9.55149 -27.3828 74.4624 
-8.94284 -27.6112 74.8014 -8.27419 -27.7717 74.8288 -8.51535 -27.2836 74.5478 
-8.05871 -27.5468 74.3231 -9.42931 -28.0652 74.4695 -8.90377 -28.636 74.3988 
-8.53511 -28.2952 74.8163 -7.82655 -28.4319 74.2955 -8.42358 -28.8151 74.3404 
-11.2438 -22.7882 73.8393 -11.4061 -22.2629 73.3158 -11.8666 -22.6136 73.4907 
-10.8108 -22.2893 73.3969 -11.9847 -23.3948 73.8658 -12.3405 -23.0522 73.1642 
-12.5854 -23.7281 73.4925 -11.1436 -23.6264 74.0548 -10.4907 -22.9072 73.665 
-10.2433 -23.5946 73.8839 -9.84559 -23.3539 73.2177 -13.2557 -24.6919 74.1594 
-12.1811 -24.3714 74.0226 -12.8336 -24.3897 73.4914 -11.229 -24.5456 74.1727 
-10.2696 -24.4849 74.0638 -9.16339 -23.9273 73.412 -9.11942 -24.4829 73.9248 
-8.22291 -24.7252 73.7717 -8.41446 -24.2153 73.5634 -7.94566 -24.4854 73.2932 
-13.2985 -24.8343 73.4679 -13.6823 -25.3065 73.4254 -10.4182 -25.7687 74.1442 
-9.45397 -25.3512 74.0295 -8.59771 -25.5666 73.8179 -7.88413 -25.4252 73.2088 
-13.2657 -25.9328 73.4569 -12.3348 -26.0925 73.4973 -11.3168 -26.0393 73.6961 
-10.8455 -26.4151 73.4085 -9.43992 -26.552 74.1132 -8.54812 -26.3955 73.5918 
-8.24637 -26.0387 73.4665 -10.1402 -27.3738 74.1679 -10.668 -27.4894 73.2976 
-8.46799 -26.9862 73.8677 -7.81564 -27.5251 73.6517 -10.123 -28.1417 73.7221 
-9.49553 -28.5382 73.9404 -9.9241 -28.6551 73.3413 -7.2246 -28.0578 73.3917 
-7.05075 -28.8337 73.9244 -6.73863 -28.488 73.3625 -9.15978 -28.931 73.5832 
-8.29286 -29.1821 73.6802 -7.42315 -29.3392 73.9595 -7.90993 -29.6448 73.4089 
-6.40225 -28.9105 73.6716 -6.41399 -29.4868 73.8927 -5.51534 -29.6635 73.7651 
-5.64436 -29.1117 73.601 -4.96255 -29.3797 73.3079 -7.10377 -29.9247 73.3429 
-5.96026 -29.9845 73.4349 -5.21413 -29.8549 73.3231 -10.3621 -21.7997 72.8501 
-10.2429 -21.1656 72.5141 -10.634 -21.3199 72.4824 -9.94515 -21.2876 72.2625 
-11.0649 -21.8794 72.7872 -11.8776 -22.6097 72.4198 -10.241 -22.5922 73.252 
-9.88727 -22.427 72.5438 -12.2961 -23.1118 72.5277 -12.7344 -23.7329 72.6502 
-9.66611 -23.4234 72.2346 -13.2836 -24.4387 72.895 -13.3612 -24.1604 72.2749 
-13.8361 -24.9203 72.4765 -9.14493 -23.8981 72.5106 -8.36729 -24.1282 72.8061 
-7.88988 -24.6416 72.4901 -13.694 -25.5724 72.2723 -7.64493 -25.3901 72.188 
-13.1972 -25.9032 72.4386 -12.4887 -26.0735 72.6075 -11.5196 -26.2071 72.625 
-10.9411 -26.8314 72.418 -7.91819 -26.5847 73.1956 -7.28045 -26.0528 72.475 
-7.12896 -26.5726 72.8236 -6.37979 -26.73 72.7674 -6.4909 -26.2356 72.4925 
-5.5427 -26.6103 72.6665 -5.63616 -26.0968 72.3748 -4.9681 -26.2964 72.2949 
-0.358413 -26.8517 72.8308 -0.0466226 -26.0216 72.3208 -0.810757 -26.4648 72.6307 
0.299363 -26.6456 72.3338 -10.807 -27.5534 72.486 -7.31045 -27.2156 73.0663 
-6.71622 -27.4896 72.67 -5.98142 -27.1209 72.2827 -5.30125 -26.788 72.2631 
-1.04524 -27.3116 72.8415 -1.31493 -26.9684 72.6446 -1.51522 -27.5429 72.44 
-0.529432 -27.5932 72.8186 -0.0235336 -27.3316 72.5908 -10.4291 -28.4211 73.0543 
-10.6948 -28.4819 72.2951 -5.99843 -28.5275 73.0985 -6.38093 -28.043 72.5645 
-4.97013 -28.6392 72.9747 -5.35601 -28.1501 72.3112 -3.98329 -28.612 72.8567 
-4.31655 -28.1512 72.3684 -3.26379 -28.7631 72.8131 -3.50635 -28.2628 72.5581 
-2.83794 -28.4241 72.3539 -0.933594 -28.0706 72.3567 -0.265662 -27.8568 72.3522 
-10.0344 -29.0346 72.6572 -9.1387 -29.2946 72.7772 -8.49459 -29.5234 72.9397 
-8.96791 -29.6523 72.328 -4.26061 -29.2148 72.485 -4.81464 -29.6497 72.7235 
-3.52012 -29.5815 72.3855 -3.49282 -29.3125 72.7693 -2.99851 -29.2739 72.4365 
-8.13343 -29.9286 72.4428 -7.14074 -30.1164 72.3723 -6.27417 -30.1177 72.5186 
-5.36591 -29.9633 72.5496 -3.24611 -29.7269 72.5453 -21.3632 -15.4388 71.7058 
-21.2992 -15.2063 71.2762 -21.6021 -15.7219 71.3477 -20.9454 -15.354 71.4811 
-21.1697 -15.7242 71.5494 -10.3216 -20.7731 71.9924 -10.2027 -20.2322 71.4024 
-10.7794 -20.4203 71.3638 -9.90543 -20.5613 71.4225 -14.019 -21.5975 71.7473 
-14.1825 -21.3152 71.3729 -14.4331 -21.4996 71.5349 -13.1272 -21.8074 71.794 
-13.57 -21.2483 71.4369 -12.8481 -21.3973 71.438 -11.2277 -21.4937 71.9868 
-11.3986 -21.11 71.3876 -11.8113 -21.7125 71.5512 -9.73217 -21.4502 71.4952 
-14.2223 -21.918 71.6338 -14.0355 -22.421 71.3896 -13.6149 -22.4878 71.8969 
-12.3849 -21.8189 71.5684 -12.3801 -22.3861 71.8716 -9.75898 -22.5342 71.5037 
-14.0956 -23.3896 71.8392 -14.3359 -23.1544 71.2168 -14.6067 -23.8077 71.556 
-13.1619 -23.5184 71.8464 -12.2208 -23.355 72.0026 -12.3019 -23.2378 71.5734 
-12.5267 -23.6219 71.3826 -12.0887 -23.3897 71.5412 -9.66029 -23.4217 71.2219 
-14.189 -24.2553 71.968 -14.6712 -24.4236 71.2309 -12.5527 -23.7356 71.6639 
-9.29911 -23.9036 71.6642 -8.51904 -24.2292 71.7195 -7.94443 -24.783 71.6898 
-14.3177 -24.9143 71.6219 -13.8749 -25.4876 71.355 -7.66472 -25.2881 71.3158 
-4.8942 -25.6066 71.9279 -5.29816 -25.177 71.1819 -5.69558 -25.5881 71.6909 
-4.297 -25.4559 71.7657 -4.33295 -25.1714 71.4072 -3.86303 -25.4037 71.3771 
-0.440673 -25.6645 71.9948 -0.309083 -25.2434 71.2756 -0.730298 -25.6039 71.534 
0.187783 -25.4835 71.3167 -13.184 -25.9143 71.43 -12.214 -26.1433 71.7049 
-11.3656 -26.4246 71.8411 -11.6354 -26.4775 71.1019 -7.28874 -25.7849 71.696 
-6.49245 -25.8713 71.7643 -4.29127 -25.9504 71.6617 -4.81148 -26.5919 71.7751 
-1.29438 -26.4801 72.0702 -1.41929 -26.0279 71.1655 -1.94169 -26.8424 71.2699 
0.760485 -26.6607 71.7687 0.646354 -26.0783 71.7302 1.03112 -26.4346 71.2708 
-11.1282 -26.8111 71.5237 -10.8776 -27.5227 71.6238 -6.22485 -27.6281 72.0176 
-5.7695 -27.4703 71.5632 -5.29748 -27.0577 71.5927 -2.2136 -27.6167 71.93 
-2.31457 -27.2312 71.4532 -2.72208 -27.6729 71.4027 0.248067 -27.3988 71.8764 
0.667651 -27.024 71.0857 -10.8013 -28.4014 71.3641 -5.61222 -27.8399 71.6517 
-4.55243 -27.9659 71.4052 -3.37933 -28.043 71.6857 -2.42885 -28.7275 72.0038 
-1.62181 -28.4688 71.9284 -0.907742 -28.4591 71.5336 -0.363782 -28.071 71.7837 
-10.3946 -29.4319 71.9771 -10.6846 -29.3419 71.3337 -9.71598 -29.6065 72.0554 
-4.86429 -29.5692 71.8291 -4.51639 -29.1923 71.2402 -3.40883 -29.1218 71.6 
-3.24257 -29.6623 72.2495 -2.30697 -28.894 71.4628 -1.54784 -28.8153 71.3424 
-10.089 -29.9007 71.3762 -9.1056 -29.9728 71.5387 -8.18126 -30.0765 71.3389 
-7.33133 -30.093 71.4853 -6.5017 -30.1068 71.6343 -5.64617 -29.8902 71.4161 
-21.1891 -15.0726 70.3131 -21.7141 -15.4848 70.7387 -20.2643 -15.822 71.0609 
-20.5811 -15.1335 70.7573 -19.8031 -15.4448 70.2078 -21.0991 -16.3994 71.1046 
-21.9027 -16.2759 70.4551 -20.1069 -16.7057 71.1126 -19.3705 -16.0081 70.5336 
-19.3576 -16.6217 70.8683 -18.9449 -16.507 70.3129 -21.3694 -17.0256 70.4295 
-20.831 -17.6814 70.4485 -20.5187 -17.3499 70.959 -19.5796 -17.6003 70.9249 
-18.9137 -17.3574 70.2998 -20.2019 -18.4214 70.8755 -20.6962 -18.535 70.4566 
-19.5826 -18.522 70.6857 -19.1666 -18.1515 70.4464 -20.4005 -19.3143 70.7666 
-20.6908 -19.5988 70.2418 -19.8126 -19.4699 70.3988 -15.0369 -19.6355 70.8547 
-15.2702 -19.0896 70.5829 -15.7237 -19.6892 70.5188 -14.0644 -19.6595 70.9087 
-14.5981 -18.967 70.5815 -13.0109 -19.6395 70.8683 -13.4276 -18.9696 70.4294 
-12.0125 -19.6149 70.8554 -12.2967 -19.0941 70.3982 -11.1076 -19.6906 70.8362 
-11.4853 -19.1939 70.4711 -10.7912 -19.4314 70.1351 -20.2934 -20.012 70.4204 
-15.3622 -20.2913 70.8108 -15.7477 -20.4418 70.5895 -14.4943 -20.5181 70.8621 
-13.294 -20.6694 71.0826 -12.4193 -20.3384 71.0164 -11.5772 -20.4114 71.0994 
-10.2992 -19.961 70.7433 -9.83827 -20.578 70.481 -16.5019 -21.217 70.3816 
-16.4654 -21.6486 70.3242 -16.2889 -21.5912 70.6548 -15.2954 -20.772 70.4682 
-16.1484 -21.4451 70.4055 -14.5587 -20.8724 70.2567 -14.2691 -21.6508 71.2969 
-13.9247 -21.2736 70.6828 -12.1618 -21.2001 71.2256 -9.7426 -21.5303 70.468 
-17.2737 -22.5404 70.6929 -17.2848 -22.3292 70.2204 -17.5064 -22.7999 70.2983 
-16.2025 -21.7666 70.2922 -17.0265 -22.6439 70.3428 -13.9856 -22.3893 70.5707 
-9.78777 -22.5718 70.4691 -17.2266 -22.9642 70.4307 -14.3549 -22.9 70.4329 
-14.7196 -23.6057 70.6418 -12.2508 -23.5972 71.2475 -9.69386 -23.4481 70.2172 
-14.7366 -24.6427 70.1952 -9.15311 -24.0499 70.7598 -8.27099 -24.6569 70.9143 
-8.72734 -24.5212 70.1674 -14.3833 -25.1355 70.8063 -14.0095 -25.6407 70.384 
-8.20837 -24.8367 70.3975 -7.40635 -25.179 70.3544 -6.98778 -25.5268 71.0492 
-6.2148 -25.4441 71.1553 -6.19063 -25.144 70.4471 -5.1481 -24.9629 70.3394 
-4.47366 -24.9627 70.6776 -3.27096 -25.8529 70.9659 -3.64681 -25.0093 70.5113 
-2.85136 -25.3389 70.4096 -0.377125 -25.1689 70.3702 -0.80618 -25.4526 70.7973 
0.337995 -25.6737 70.1252 -13.4444 -25.9251 70.4145 -12.4774 -26.2036 70.5878 
-11.8288 -26.5001 70.5112 -4.23414 -26.7724 71.1239 -3.26787 -26.5388 70.9684 
-2.19382 -25.8673 70.6641 -2.43035 -26.4605 70.9452 -1.4911 -25.7267 70.4905 
0.844069 -26.0356 70.8395 1.03463 -26.594 70.6891 -11.4053 -26.9832 70.5603 
-10.951 -27.8847 70.4754 -5.04635 -27.4946 71.1632 -4.24441 -27.6261 70.8812 
-3.31703 -27.3232 70.7296 -2.14324 -27.7326 70.9861 -2.33167 -27.2079 70.2026 
-3.04173 -27.5432 70.4184 -1.79093 -27.3395 70.6042 -0.26394 -27.8153 71.075 
-0.812189 -27.7587 70.4931 -0.24681 -27.2796 70.2844 0.580791 -26.8757 70.2109 
-10.8196 -28.7462 70.6888 -3.67137 -28.1899 70.5148 -2.95437 -28.4085 71.1304 
-3.3535 -27.8147 70.4401 -2.09884 -28.6148 71.0675 -1.42701 -27.7721 70.5187 
[...]
CELL_DATA 22428
SCALARS scalars float
LOOKUP_TABLE default
2012 2012 2012 2012 2012 2012 2012 2012 2012 
2012 2012 2012 2012 2012 2012 2012 2012 2012 
2012 2012 2012 2012 2012 2012 2012 2012 2012 
2012 2012 2012 2012 2012 2012 2012 2012 2012 
2012 2012 2012 2012 2012 2012 2012 2012 2012 
2012 2012 2012 2012 2012 2012 2012 2012 2012 
2012 2012 2012 2012 2012 2012 2012 2012 2012 
2012 2012 2012 2012 2012 2012 2012 2012 2012 
2012 2012 2012 2012 2012 2012 2012 2012 2012 
2012 2012 2012 2012 2012 2012 2012 2012 2012 
2012 2012 2012 2012 2012 2012 2012 2012 2012 
2012 2012 2012 2012 2012 2012 2012 2012 2012 
2012 2012 2012 2012 2012 2012 2012 2012 2012 
2012 2012 2012 2012 2012 2012 2012 2012 2012 
2012 2012 2012 2012 2012 2012 2012 2012 2012 
2012 2012 2012 2012 2012 2012 2012 2012 2012 
2012 2012 2012 2012 2012 2012 2012 2012 2012 
2012 2012 2012 2012 2012 2012 2012 2012 2012 
2012 2012 2012 2012 2012 2012 2012 2012 2012 
2012 2012 2012 2012 2012 2012 2012 2012 2012 
2012 2012 2012 2012 2012 2012 2012 2012 2012 
2012 2012 2012 2012 2012 2012 2012 2012 2012 
2012 2012 2012 2012 2012 2012 2012 2012 2012 
2012 2012 2012 2012 2012 2012 2012 2012 2012 
2012 2012 2012 2012 2012 2012 2012 2012 2012 
2012 2012 2012 2012 2012 2012 2012 2012 2012 
2012 2012 2012 2012 2012 2012 2012 2012 2012 
2012 2012 2012 2012 2012 2012 2012 2012 2012 
2012 2012 2012 2012 2012 2012 2012 2012 2012 
2012 2012 2012 2012 2012 2012 2012 2012 2012 
2012 2012 2012 2012 2012 2012 2012 2012 2012 
2012 2012 2012 2012 2012 2012 2012 2012 2012 
2012 2012 2012 2012 2012 2012 2012 2012 2012 
2012 2012 2012 2012 2012 2012 2012 2012 2012 
2012 2012 2012 2012 2012 2012 2012 2012 2012 
2012 2012 2012 2012 2012 2012 2012 2012 2012 
2012 2012 2012 2012 2012 2012 2012 2012 2012 
2012 2012 2012 2012 2012 2012 2012 2012 2012 
2012 2012 2012 2012 2012 2012 2012 2012 2012 
2012 2012 2012 2012 2012 2012 2012 2012 2012 
2012 2012 2012 2012 2012 2012 2012 2012 2012 
2012 2012 2012 2012 2012 2012 2012 2012 2012 
2012 2012 2012 2012 2012 2012 2012 2012 2012 
2012 2012 2012 2012 2012 2012 2012 2012 2012 
2012 2012 2012 2012 2012 2012 2012 2012 2012 
2012 2012 2012 2012 2012 2012 2012 2012 2012 
2012 2012 2012 2012 2012 2012 2012 2012 2012 
2012 2012 2012 2012 2012 2012 2012 2012 2012 
2012 2012 2012 2012 2012 2012 2012 2012 2012 
2012 2012 2012 2012 2012 2012 2012 2012 2012 
2012 2012 2012 2012 2012 2012 2012 2012 2012 
2012 2012 2012 2012 2012 2012 2012 2012 2012 
2012 2012 2012 2012 2012 2012 2012 2012 2012 
2012 2012 2012 2012 2012 2012 2012 2012 2012 
2012 2012 2012 2012 2012 2012 2012 2012 2012 
2012 2012 2012 2012 2012 2012 2012 2012 2012 
2012 2012 2012 2012 2012 2012 2012 2012 2012 
2012 2012 2012 2012 2012 2012 2012 2012 2012 
2012 2012 2012 2012 2012 2012 2012 2012 2012 
2012 2012 2012 2012 2012 2012 2012 2012 2012 
2012 2012 2012 2012 2012 2012 2012 2012 2012 
2012 2012 2012 2012 2012 2012 2012 2012 2012 
2012 2012 2012 2012 2012 2012 2012 2012 2012 
2012 2012 2012 2012 2012 2012 2012 2012 2012 
2012 2012 2012 2012 2012 2012 2012 2012 2012 
2012 2012 2012 2012 2012 2012 2012 2012 2012 
2012 2012 2012 2012 2012 2012 2012 2012 2012 
2012 2012 2012 2012 2012 2012 2012 2012 2012 
2012 2012 2012 2012 2012 2012 2012 2012 2012 
2012 2012 2012 2012 2012 2012 2012 2012 2012 
2012 2012 2012 2012 2012 2012 2012 2012 2012 
2012 2012 2012 2012 2012 2012 2012 2012 2012 
2012 2012 2012 2012 2012 2012 2012 2012 2012 
2012 2012 2012 2012 2012 2012 2012 2012 2012 
2012 2012 2012 2012 2012 2012 2012 2012 2012 
2012 2012 2012 2012 2012 2012 2012 2012 2012 
2012 2012 2012 2012 2012 2012 2012 2012 2012 
2012 2012 2012 2012 2012 2012 2012 2012 2012 
2012 2012 2012 2012 2012 2012 2012 2012 2012 
2012 2012 2012 2012 2012 2012 2012 2012 2012 
2012 2012 2012 2012 2012 2012 2012 2012 2012 
2012 2012 2012 2012 2012 2012 2012 2012 2012 
2012 2012 2012 2012 2012 2012 2012 2012 2012 
2012 2012 2012 2012 2012 2012 2012 2012 2012 
2012 2012 2012 2012 2012 2012 2012 2012 2012 
2012 2012 2012 2012 2012 2012 2012 2012 2012 
2012 2012 2012 2012 2012 2012 2012 2012 2012 
2012 2012 2012 2012 2012 2012 2012 2012 2012 
2012 2012 2012 2012 2012 2012 2012 2012 2012 
2012 2012 2012 2012 2012 2012 2012 2012 2012 
2012 2012 2012 2012 2012 2012 2012 2012 2012 
2012 2012 2012 2012 2012 2012 2012 2012 2012 
2012 2012 2012 2012 2012 2012 2012 2012 2012 
2012 2012 2012 2012 2012 2012 2012 2012 2012 
2012 2012 2012 2012 2012 2012 2012 2012 2012 
2012 2012 2012 2012 2012 2012 2012 2012 2012 
2012 2012 2012 2012 2012 2012 2012 2012 2012 
2012 2012 2012 2012 2012 2012 2012 2012 2012 
2012 2012 2012 2012 2012 2012 2012 2012 2012 
2012 2012 2012 2012 2012 2012 2012 2012 2012 
2012 2012 2012 2012 2012 2012 2012 2012 2012 
2012 2012 2012 2012 2012 2012 2012 2012 2012 
2012 2012 2012 2012 2012 2012 2012 2012 2012 
2012 2012 2012 2012 2012 2012 2012 2012 2012 
2012 2012 2012 2012 2012 2012 2012 2012 2012 
2012 2012 2012 2012 2012 2012 2012 2012 2012 
2012 2012 2012 2012 2012 2012 2012 2012 2012 
2012 2012 2012 2012 2012 2012 2012 2012 2012 
2012 2012 2012 2012 2012 2012 2012 2012 2012 
2012 2012 2012 2012 2012 2012 2012 2012 2012 
2012 2012 2012 2012 2012 2012 2012 2012 2012 
2012 2012 2012 2012 2012 2012 2012 2012 2012 
2012 2012 2012 2012 2012 2012 2012 2012 2012 
2012 2012 2012 2012 2012 2012 2012 2012 2012 
2012 2012 2012 2012 2012 2012 2012 2012 2012 
2012 2012 2012 2012 2012 2012 2012 2012 2012 
2012 2012 2012 2012 2012 2012 2012 2012 2012 
2012 2012 2012 2012 2012 2012 2012 2012 2012 
2012 2012 2012 2012 2012 2012 2012 2012 2012 
2012 2012 2012 2012 2012 2012 2012 2012 2012 
2012 2012 2012 2012 2012 2012 2012 2012 2012 
2012 2012 2012 2012 2012 2012 2012 2012 2012 
2012 2012 2012 2012 2012 2012 2012 2012 2012 
2012 2012 2012 2012 2012 2012 2012 2012 2012 
2012 2012 2012 2012 2012 2012 2012 2012 2012 
2012 2012 2012 2012 2012 2012 2012 2012 2012 
2012 2012 2012 2012 2012 2012 2012 2012 2012 
2012 2012 2012 2012 2012 2012 2012 2012 2012 
2012 2012 2012 2012 2012 2012 2012 2012 2012 
2012 2012 2012 2012 2012 2012 2012 2012 2012 
2012 2012 2012 2012 2012 2012 2012 2012 2012 
2012 2012 2012 2012 2012 2012 2012 2012 2012 
2012 2012 2012 2012 2012 2012 2012 2012 2012 
2012 2012 2012 2012 2012 2012 2012 2012 2012 
2012 2012 2012 2012 2012 2012 2012 2012 2012 
2012 2012 2012 2012 2012 2012 2012 2012 2012 
2012 2012 2012 2012 2012 2012 2012 2012 2012 
2012 2012 2012 2012 2012 2012 2012 2012 2012 
2012 2012 2012 2012 2012 2012 2012 2012 2012 
2012 2012 2012 2012 2012 2012 2012 2012 2012 
2012 2012 2012 2012 2012 2012 2012 2012 2012 
2012 2012 2012 2012 2012 2012 2012 2012 2012 
2012 2012 2012 2012 2012 2012 2012 2012 2012 
2012 2012 2012 2012 2012 2012 2012 2012 2012 
2012 2012 2012 2012 2012 2012 2012 2012 2012 
2012 2012 2012 2012 2012 2012 2012 2012 2012 
2012 2012 2012 2012 2012 2012 2012 2012 2012 
2012 2012 2012 2012 2012 2012 2012 2012 2012 
2012 2012 2012 2012 2012 2012 2012 2012 2012 
2012 2012 2012 2012 2012 2012 2012 2012 2012 
2012 2012 2012 2012 2012 2012 2012 2012 2012 
2012 2012 2012 2012 2012 2012 2012 2012 2012 
2012 2012 2012 2012 2012 2012 2012 2012 2012 
2012 2012 2012 2012 2012 2012 2012 2012 2012 
2012 2012 2012 2012 2012 2012 2012 2012 2012 
2012 2012 2012 2012 2012 2012 2012 2012 2012 
2012 2012 2012 2012 2012 2012 2012 2012 2012 
2012 2012 2012 2012 2012 2012 2012 2012 2012 
2012 2012 2012 2012 2012 2012 2012 2012 2012 
2012 2012 2012 2012 2012 2012 2012 2012 2012 
2012 2012 2012 2012 2012 2012 2012 2012 2012 
2012 2012 2012 2012 2012 2012 2012 2012 2012 
2012 2012 2012 2012 2012 2012 2012 2012 2012 
2012 2012 2012 2012 2012 2012 2012 2012 2012 
2012 2012 2012 2012 2012 2012 2012 2012 2012 
2012 2012 2012 2012 2012 2012 2012 2012 2012 
2012 2012 2012 2012 2012 2012 2012 2012 2012 
2012 2012 2012 2012 2012 2012 2012 2012 2012 
2012 2012 2012 2012 2012 2012 2012 2012 2012 
2012 2012 2012 2012 2012 2012 2012 2012 2012 
2012 2012 2012 2012 2012 2012 2012 2012 2012 
2012 2012 2012 2012 2012 2012 2012 2012 2012 
2012 2012 2012 2012 2012 2012 2012 2012 2012 
2012 2012 2012 2012 2012 2012 2012 2012 2012 
2012 2012 2012 2012 2012 2012 2012 2012 2012 
2012 2012 2012 2012 2012 2012 2012 2012 2012 
2012 2012 2012 2012 2012 2012 2012 2012 2012 
2012 2012 2012 2012 2012 2012 2012 2012 2012 
2012 2012 2012 2012 2012 2012 2012 2012 2012 
2012 2012 2012 2012 2012 2012 2012 2012 2012 
2012 2012 2012 2012 2012 2012 2012 2012 2012 
2012 2012 2012 2012 2012 2012 2012 2012 2012 
2012 2012 2012 2012 2012 2012 2012 2012 2012 
2012 2012 2012 2012 2012 2012 2012 2012 2012 
2012 2012 2012 2012 2012 2012 2012 2012 2012 
2012 2012 2012 2012 2012 2012 2012 2012 2012 
2012 2012 2012 2012 2012 2012 2012 2012 2012 
2012 2012 2012 2012 2012 2012 2012 2012 2012 
2012 2012 2012 2012 2012 2012 2012 2012 2012 
2012 2012 2012 2012 2012 2012 2012 2012 2012 
2012 2012 2012 2012 2012 2012 2012 2012 2012 
2012 2012 2012 2012 2012 2012 2012 2012 2012 
2012 2012 2012 2012 2012 2012 2012 2012 2012 
2012 2012 2012 2012 2012 2012 2012 2012 2012 
2012 2012 2012 2012 2012 2012 2012 2012 2012 
2012 2012 2012 2012 2012 2012 2012 2012 2012 
2012 2012 2012 2012 2012 2012 2012 2012 2012 
2012 2012 2012 2012 2012 2012 2012 2012 2012 
2012 2012 2012 2012 2012 2012 2012 2012 2012 
2012 2012 2012 2012 2012 2012 2012 2012 2012 
2012 2012 2012 2012 2012 2012 2012 2012 2012 
2012 2012 2012 2012 2012 2012 2012 2012 2012 
2012 2012 2012 2012 2012 2012 2012 2012 2012 
2012 2012 2012 2012 2012 2012 2012 2012 2012 
2012 2012 2012 2012 2012 2012 2012 2012 2012 
2012 2012 2012 2012 2012 2012 2012 2012 2012 
2012 2012 2012 2012 2012 2012 2012 2012 2012 
2012 2012 2012 2012 2012 2012 2012 2012 2012 
2012 2012 2012 2012 2012 2012 2012 2012 2012 
2012 2012 2012 2012 2012 2012 2012 2012 2012 
2012 2012 2012 2012 2012 2012 2012 2012 2012 
2012 2012 2012 2012 2012 2012 2012 2012 2012 
2012 2012 2012 2012 2012 2012 2012 2012 2012 
2012 2012 2012 2012 2012 2012 2012 2012 2012 
2012 2012 2012 2012 2012 2012 2012 2012 2012 
2012 2012 2012 2012 2012 2012 2012 2012 2012 
2012 2012 2012 2012 2012 2012 2012 2012 2012 
2012 2012 2012 2012 2012 2012 2012 2012 2012 
2012 2012 2012 2012 2012 2012 2012 2012 2012 
2012 2012 2012 2012 2012 2012 2012 2012 2012 
2012 2012 2012 2012 2012 2012 2012 2012 2012 
2012 2012 2012 2012 2012 2012 2012 2012 2012 
2012 2012 2012 2012 2012 2012 2012 2012 2012 
2012 2012 2012 2012 2012 2012 2012 2012 2012 
2012 2012 2012 2012 2012 2012 2012 2012 2012 
2012 2012 2012 2012 2012 2012 2012 2012 2012 
2012 2012 2012 2012 2012 2012 2012 2012 2012 
2012 2012 2012 2012 2012 2012 2012 2012 2012 
2012 2012 2012 2012 2012 2012 2012 2012 2012 
2012 2012 2012 2012 2012 2012 2012 2012 2012 
2012 2012 2012 2012 2012 2012 2012 2012 2012 
2012 2012 2012 2012 2012 2012 2012 2012 2012 
2012 2012 2012 2012 2012 2012 2012 2012 2012 
2012 2012 2012 2012 2012 2012 2012 2012 2012 
2012 2012 2012 2012 2012 2012 2012 2012 2012 
2012 2012 2012 2012 2012 2012 2012 2012 2012 
2012 2012 2012 2012 2012 2012 2012 2012 2012 
2012 2012 2012 2012 2012 2012 2012 2012 2012 
2012 2012 2012 2012 2012 2012 2012 2012 2012 
2012 2012 2012 2012 2012 2012 2012 2012 2012 
2012 2012 2012 2012 2012 2012 2012 2012 2012 
2012 2012 2012 2012 2012 2012 2012 2012 2012 
2012 2012 2012 2012 2012 2012 2012 2012 2012 
2012 2012 2012 2012 2012 2012 2012 2012 2012 
2012 2012 2012 2012 2012 2012 2012 2012 2012 
2012 2012 2012 2012 2012 2012 2012 2012 2012 
2012 2012 2012 2012 2012 2012 2012 2012 2012 
2012 2012 2012 2012 2012 2012 2012 2012 2012 
2012 2012 2012 2012 2012 2012 2012 2012 2012 
2012 2012 2012 2012 2012 2012 2012 2012 2012 
2012 2012 2012 2012 2012 2012 2012 2012 2012 
2012 2012 2012 2012 2012 2012 2012 2012 2012 
2012 2012 2012 2012 2012 2012 2012 2012 2012 
2012 2012 2012 2012 2012 2012 2012 2012 2012 
2012 2012 2012 2012 2012 2012 2012 2012 2012 
2012 2012 2012 2012 2012 2012 2012 2012 2012 
2012 2012 2012 2012 2012 2012 2012 2012 2012 
2012 2012 2012 2012 2012 2012 2012 2012 2012 
2012 2012 2012 2012 2012 2012 2012 2012 2012 
2012 2012 2012 2012 2012 2012 2012 2012 2012 
2012 2012 2012 2012 2012 2012 2012 2012 2012 
2012 2012 2012 2012 2012 2012 2012 2012 2012 
2012 2012 2012 2012 2012 2012 2012 2012 2012 
2012 2012 2012 2012 2012 2012 2012 2012 2012 
2012 2012 2012 2012 2012 2012 2012 2012 2012 
2012 2012 2012 2012 2012 2012 2012 2012 2012 
2012 2012 2012 2012 2012 2012 2012 2012 2012 
2012 2012 2012 2012 2012 2012 2012 2012 2012 
2012 2012 2012 2012 2012 2012 2012 2012 2012 
2012 2012 2012 2012 2012 2012 2012 2012 2012 
2012 2012 2012 2012 2012 2012 2012 2012 2012 
2012 2012 2012 2012 2012 2012 2012 2012 2012 
2012 2012 2012 2012 2012 2012 2012 2012 2012 
2012 2012 2012 2012 2012 2012 2012 2012 2012 
2012 2012 2012 2012 2012 2012 2012 2012 2012 
2012 2012 2012 2012 2012 2012 2012 2012 2012 
2012 2012 2012 2012 2012 2012 2012 2012 2012 
2012 2012 2012 2012 2012 2012 2012 2012 2012 
2012 2012 2012 2012 2012 2012 2012 2012 2012 
2012 2012 2012 2012 2012 2012 2012 2012 2012 
2012 2012 2012 2012 2012 2012 2012 2012 2012 
2012 2012 2012 2012 2012 2012 2012 2012 2012 
2012 2012 2012 2012 2012 2012 2012 2012 2012 
2012 2012 2012 2012 2012 2012 2012 2012 2012 
2012 2012 2012 2012 2012 2012 2012 2012 2012 
2012 2012 2012 2012 2012 2012 2012 2012 2012 
2012 2012 2012 2012 2012 2012 2012 2012 2012 
2012 2012 2012 2012 2012 2012 2012 2012 2012 
2012 2012 2012 2012 2012 2012 2012 2012 2012 
2012 2012 2012 2012 2012 2012 2012 2012 2012 
2012 2012 2012 2012 2012 2012 2012 2012 2012 
2012 2012 2012 2012 2012 2012 2012 2012 2012 
2012 2012 2012 2012 2012 2012 2012 2012 2012 
2012 2012 2012 2012 2012 2012 2012 2012 2012 
2012 2012 2012 2012 2012 2012 2012 2012 2012 
2012 2012 2012 2012 2012 2012 2012 2012 2012 
2012 2012 2012 2012 2012 2012 2012 2012 2012 
2012 2012 2012 2012 2012 2012 2012 2012 2012 
2012 2012 2012 2012 2012 2012 2012 2012 2012 
2012 2012 2012 2012 2012 2012 2012 2012 2012 
2012 2012 2012 2012 2012 2012 2012 2012 2012 
2012 2012 2012 2012 2012 2012 2012 2012 2012 
2012 2012 2012 2012 2012 2012 2012 2012 2012 
2012 2012 2012 2012 2012 2012 2012 2012 2012 
2012 2012 2012 2012 2012 2012 2012 2012 2012 
2012 2012 2012 2012 2012 2012 2012 2012 2012 
2012 2012 2012 2012 2012 2012 2012 2012 2012 
2012 2012 2012 2012 2012 2012 2012 2012 2012 
2012 2012 2012 2012 2012 2012 2012 2012 2012 
2012 2012 2012 2012 2012 2012 2012 2012 2012 
2012 2012 2012 2012 2012 2012 2012 2012 2012 
2012 2012 2012 2012 2012 2012 2012 2012 2012 
2012 2012 2012 2012 2012 2012 2012 2012 2012 
2012 2012 2012 2012 2012 2012 2012 2012 2012 
2012 2012 2012 2012 2012 2012 2012 2012 2012 
2012 2012 2012 2012 2012 2012 2012 2012 2012 
2012 2012 2012 2012 2012 2012 2012 2012 2012 
2012 2012 2012 2012 2012 2012 2012 2012 2012 
2012 2012 2012 2012 2012 2012 2012 2012 2012 
2012 2012 2012 2012 2012 2012 2012 2012 2012 
2012 2012 2012 2012 2012 2012 2012 2012 2012 
2012 2012 2012 2012 2012 2012 2012 2012 2012 
2012 2012 2012 2012 2012 2012 2012 2012 2012 
2012 2012 2012 2012 2012 2012 2012 2012 2012 
2012 2012 2012 2012 2012 2012 2012 2012 2012 
2012 2012 2012 2012 2012 2012 2012 2012 2012 
2012 2012 2012 2012 2012 2012 2012 2012 2012 
2012 2012 2012 2012 2012 2012 2012 2012 2012 
2012 2012 2012 2012 2012 2012 2012 2012 2012 
2012 2012 2012 2012 2012 2012 2012 2012 2012 
2012 2012 2012 2012 2012 2012 2012 2012 2012 
2012 2012 2012 2012 2012 2012 2012 2012 2012 
2012 2012 2012 2012 2012 2012 2012 2012 2012 
2012 2012 2012 2012 2012 2012 2012 2012 2012 
2012 2012 2012 2012 2012 2012 2012 2012 2012 
2012 2012 2012 2012 2012 2012 2012 2012 2012 
2012 2012 2012 2012 2012 2012 2012 2012 2012 
2012 2012 2012 2012 2012 2012 2012 2012 2012 
2012 2012 2012 2012 2012 2012 2012 2012 2012 
2012 2012 2012 2012 2012 2012 2012 2012 2012 
2012 2012 2012 2012 2012 2012 2012 2012 2012 
2012 2012 2012 2012 2012 2012 2012 2012 2012 
2012 2012 2012 2012 2012 2012 2012 2012 2012 
2012 2012 2012 2012 2012 2012 2012 2012 2012 
2012 2012 2012 2012 2012 2012 2012 2012 2012 
2012 2012 2012 2012 2012 2012 2012 2012 2012 
2012 2012 2012 2012 2012 2012 2012 2012 2012 
2012 2012 2012 2012 2012 2012 2012 2012 2012 
2012 2012 2012 2012 2012 2012 2012 2012 2012 
2012 2012 2012 2012 2012 2012 2012 2012 2012 
2012 2012 2012 2012 2012 2012 2012 2012 2012 
2012 2012 2012 2012 2012 2012 2012 2012 2012 
2012 2012 2012 2012 2012 2012 2012 2012 2012 
2012 2012 2012 2012 2012 2012 2012 2012 2012 
2012 2012 2012 2012 2012 2012 2012 2012 2012 
2012 2012 2012 2012 2012 2012 2012 2012 2012 
2012 2012 2012 2012 2012 2012 2012 2012 2012 
2012 2012 2012 2012 2012 2012 2012 2012 2012 
2012 2012 2012 2012 2012 2012 2012 2012 2012 
2012 2012 2012 2012 2012 2012 2012 2012 2012 
2012 2012 2012 2012 2012 2012 2012 2012 2012 
2012 2012 2012 2012 2012 2012 2012 2012 2012 
2012 2012 2012 2012 2012 2012 2012 2012 2012 
2012 2012 2012 2012 2012 2012 2012 2012 2012 
2012 2012 2012 2012 2012 2012 2012 2012 2012 
2012 2012 2012 2012 2012 2012 2012 2012 2012 
2012 2012 2012 2012 2012 2012 2012 2012 2012 
2012 2012 2012 2012 2012 2012 2012 2012 2012 
2012 2012 2012 2012 2012 2012 2012 2012 2012 
2012 2012 2012 2012 2012 2012 2012 2012 2012 
2012 2012 2012 2012 2012 2012 2012 2012 2012 
2012 2012 2012 2012 2012 2012 2012 2012 2012 
2012 2012 2012 2012 2012 2012 2012 2012 2012 
2012 2012 2012 2012 2012 2012 2012 2012 2012 
2012 2012 2012 2012 2012 2012 2012 2012 2012 
2012 2012 2012 2012 2012 2012 2012 2012 2012 
2012 2012 2012 2012 2012 2012 2012 2012 2012 
2012 2012 2012 2012 2012 2012 2012 2012 2012 
2012 2012 2012 2012 2012 2012 2012 2012 2012 
2012 2012 2012 2012 2012 2012 2012 2012 2012 
2012 2012 2012 2012 2012 2012 2012 2012 2012 
2012 2012 2012 2012 2012 2012 2012 2012 2012 
2012 2012 2012 2012 2012 2012 2012 2012 2012 
2012 2012 2012 2012 2012 2012 2012 2012 2012 
2012 2012 2012 2012 2012 2012 2012 2012 2012 
2012 2012 2012 2012 2012 2012 2012 2012 2012 
2012 2012 2012 2012 2012 2012 2012 2012 2012 
2012 2012 2012 2012 2012 2012 2012 2012 2012 
2012 2012 2012 2012 2012 2012 2012 2012 2012 
2012 2012 2012 2012 2012 2012 2012 2012 2012 
2012 2012 2012 2012 2012 2012 2012 2012 2012 
2012 2012 2012 2012 2012 2012 2012 2012 2012 
2012 2012 2012 2012 2012 2012 2012 2012 2012 
2012 2012 2012 2012 2012 2012 2012 2012 2012 
2012 2012 2012 2012 2012 2012 2012 2012 2012 
2012 2012 2012 2012 2012 2012 2012 2012 2012 
2012 2012 2012 2012 2012 2012 2012 2012 2012 
2012 2012 2012 2012 2012 2012 2012 2012 2012 
2012 2012 2012 2012 2012 2012 2012 2012 2012 
2012 2012 2012 2012 2012 2012 2012 2012 2012 
2012 2012 2012 2012 2012 2012 2012 2012 2012 
2012 2012 2012 2012 2012 2012 2012 2012 2012 
2012 2012 2012 2012 2012 2012 2012 2012 2012 
2012 2012 2012 2012 2012 2012 2012 2012 2012 
2012 2012 2012 2012 2012 2012 2012 2012 2012 
2012 2012 2012 2012 2012 2012 2012 2012 2012 
2012 2012 2012 2012 2012 2012 2012 2012 2012 
2012 2012 2012 2012 2012 2012 2012 2012 2012 
2012 2012 2012 2012 2012 2012 2012 2012 2012 
2012 2012 2012 2012 2012 2012 2012 2012 2012 
2012 2012 2012 2012 2012 2012 2012 2012 2012 
2012 2012 2012 2012 2012 2012 2012 2012 2012 
2012 2012 2012 2012 2012 2012 2012 2012 2012 
2012 2012 2012 2012 2012 2012 2012 2012 2012 
2012 2012 2012 2012 2012 2012 2012 2012 2012 
2012 2012 2012 2012 2012 2012 2012 2012 2012 
2012 2012 2012 2012 2012 2012 2012 2012 2012 
2012 2012 2012 2012 2012 2012 2012 2012 2012 
2012 2012 2012 2012 2012 2012 2012 2012 2012 
2012 2012 2012 2012 2012 2012 2012 2012 2012 
2012 2012 2012 2012 2012 2012 2012 2012 2012 
2012 2012 2012 2012 2012 2012 2012 2012 2012 
2012 2012 2012 2012 2012 2012 2012 2012 2012 
2012 2012 2012 2012 2012 2012 2012 2012 2012 
2012 2012 2012 2012 2012 2012 2012 2012 2012 
2012 2012 2012 2012 2012 2012 2012 2012 2012 
2012 2012 2012 2012 2012 2012 2012 2012 2012 
2012 2012 2012 2012 2012 2012 2012 2012 2012 
2012 2012 2012 2012 2012 2012 2012 2012 2012 
2012 2012 2012 2012 2012 2012 2012 2012 2012 
2012 2012 2012 2012 2012 2012 2012 2012 2012 
2012 2012 2012 2012 2012 2012 2012 2012 2012 
2012 2012 2012 2012 2012 2012 2012 2012 2012 