# vtk DataFile Version 4.2
vtk output
ASCII
DATASET POLYDATA
POINTS 19208 float
-11.933 8.61346 -15.1139 -11.7527 8.93652 -15.4695 -11.5041 8.56154 -15.2348 
-12.2211 8.61714 -15.4673 -13.0937 8.61949 -15.0667 -13.1001 8.88563 -15.3365 
-12.737 8.61183 -15.394 -13.7333 8.61981 -15.0872 -13.4316 8.88646 -15.2313 
-13.7489 8.74794 -15.3903 -11.8561 8.14798 -15.0225 -11.4578 7.97703 -15.2395 
-12.3345 8.45289 -15.2999 -12.454 8.24578 -15.0167 -13.0919 8.04059 -14.9475 
-13.6337 8.13879 -14.9384 -14.2275 8.50765 -15.4238 -14.3145 8.14506 -15.0095 
-14.8671 7.99147 -15.1005 -14.7224 8.31786 -15.2554 -15.0427 8.14241 -15.3906 
-11.8769 7.48905 -15.0317 -11.4876 7.34614 -15.2587 -12.4 7.51416 -14.942 
-13.008 7.49159 -14.9459 -13.6131 7.49183 -14.9475 -14.125 7.60838 -14.9355 
-14.6592 7.47672 -15.0457 -15.1981 7.60069 -15.4552 -11.8838 6.91268 -15.0773 
-11.5587 6.93837 -15.2578 -12.4128 6.87169 -14.9525 -13.0112 6.85161 -14.9536 
-13.53 6.9466 -14.9744 -14.1189 6.91703 -15.0541 -14.5999 6.97386 -15.2025 
-14.9175 7.15713 -15.3432 -11.7312 6.58976 -15.3153 -12.0813 6.27501 -15.2605 
-12.2808 6.42523 -15.0799 -12.8655 6.3285 -15.0479 -13.5357 6.38371 -15.0876 
-13.9956 6.37065 -15.2439 -14.3535 6.62612 -15.2981 -12.445 6.01688 -15.3441 
-13.1913 5.94804 -15.2713 -13.6971 6.0618 -15.3167 -11.1918 8.69609 -15.5548 
-11.3645 8.98899 -15.9825 -10.9054 8.66603 -15.8744 -11.8601 9.10032 -15.878 
-12.4821 8.76788 -15.6835 -12.2552 8.93048 -15.808 -13.031 8.7806 -15.5637 
-12.5336 8.76 -15.8542 -13.3819 8.79654 -15.5574 -10.7862 8.21353 -15.7097 
-10.5814 8.36526 -16.087 -10.4529 7.93314 -16.0385 -11.1605 8.26614 -15.4406 
-12.4805 8.02732 -15.5905 -12.1664 8.0296 -15.9172 -12.422 8.5753 -15.7729 
-13.1442 8.4581 -15.8466 -12.7343 8.24336 -15.7209 -13.792 8.47939 -15.8338 
-14.3539 8.36407 -15.9106 -14.7814 8.33405 -15.6766 -15.1247 8.04186 -15.7288 
-10.6826 7.74601 -15.8346 -10.8358 7.28558 -15.9826 -11.07 7.69056 -15.5572 
-12.3845 7.57976 -15.6913 -12.2315 7.44853 -15.9918 -12.9142 7.83437 -15.8319 
-12.7908 7.51014 -15.7278 -13.1561 7.55835 -15.9445 -15.3071 7.73492 -15.9177 
-15.4931 7.50129 -15.6955 -15.5366 7.48165 -15.8575 -11.2615 7.02491 -15.5687 
-11.0436 6.88013 -16.0222 -12.5313 7.29077 -15.8626 -12.9611 7.24206 -15.9917 
-14.7482 6.68484 -15.5181 -15.2272 7.0184 -15.9438 -15.4495 7.35397 -15.7661 
-11.3535 6.5936 -15.7993 -11.7995 6.27081 -15.5574 -11.5193 6.20233 -16.0884 
-14.1958 6.20981 -15.4593 -14.6657 6.15002 -15.68 -15.0255 6.33953 -15.946 
-11.9479 5.9556 -15.7576 -12.4269 5.64893 -15.6568 -12.0777 5.71166 -15.8701 
-13.0133 5.59504 -15.486 -13.6254 5.75115 -15.4724 -14.1549 5.6562 -15.6642 
-14.6119 5.63799 -15.9618 -14.8932 5.93512 -15.9586 -12.3169 5.40507 -15.9558 
-12.7679 5.001 -15.9147 -12.894 5.24454 -15.6974 -13.5258 5.22905 -15.6602 
-13.9944 5.04727 -15.9726 -14.2848 5.33391 -15.9374 -13.2272 4.82119 -15.854 
-13.6431 4.76274 -15.9519 -8.82809 18.9538 -16.3745 -8.91543 19.2206 -16.6342 
-8.65193 18.995 -16.5739 -9.06995 18.9484 -16.5117 -8.77292 18.7181 -16.5622 
-11.1264 8.99017 -16.615 -10.8517 8.75035 -16.2965 -11.8204 8.96812 -16.3715 
-12.2698 8.62259 -16.0922 -11.9816 8.61256 -16.4335 -10.4783 8.4311 -16.4674 
-10.2793 8.02288 -16.4056 -11.9451 8.25189 -16.3134 -11.7116 8.2595 -16.6682 
-11.8244 8.41276 -16.5031 -13.1781 7.94594 -16.0416 -13.6295 8.02963 -16.1401 
-14.142 8.12747 -16.1387 -14.7255 8.01616 -16.1411 -10.5285 7.55935 -16.1231 
-10.3152 7.63217 -16.3663 -11.921 7.91955 -16.5494 -12.1446 7.5678 -16.4465 
-13.453 7.42837 -16.1288 -14.0844 7.52314 -16.2948 -14.5183 7.69789 -16.5988 
-14.9541 7.85123 -16.4885 -15.3495 7.48061 -16.0991 -15.185 7.47632 -16.6492 
-10.4539 7.24753 -16.5076 -10.7919 6.9125 -16.4622 -12.5517 7.21682 -16.4407 
-13.1225 6.88779 -16.2332 -12.8508 6.91425 -16.5628 -13.6947 6.85029 -16.2293 
-13.9701 6.90884 -16.4528 -14.2132 7.24215 -16.6969 -15.414 7.04987 -16.3938 
-15.4204 6.79105 -16.3377 -15.5126 6.88054 -16.4838 -11.1321 6.59685 -16.4276 
-11.3835 6.28826 -16.6169 -13.1052 6.59793 -16.4059 -13.5126 6.26902 -16.2625 
-13.2941 6.26426 -16.5424 -13.848 6.39955 -16.5006 -15.2451 6.45486 -16.4683 
-15.419 6.73259 -16.5969 -11.8296 5.75613 -16.1058 -11.5797 5.74806 -16.6219 
-13.5754 5.73948 -16.3238 -13.4378 5.68383 -16.6351 -13.7967 5.81129 -16.5158 
-14.8674 5.67019 -16.1696 -15.054 5.87534 -16.4456 -11.9375 5.3607 -16.358 
-12.4067 4.99576 -16.1752 -12.0552 4.89203 -16.4741 -13.6724 5.48042 -16.5642 
-14.2233 5.07985 -16.1467 -14.4459 5.19446 -16.3296 -14.797 5.43701 -16.5691 
-12.4804 4.52529 -16.2893 -12.1547 4.53925 -16.4853 -12.9172 4.59534 -16.0732 
-13.4433 4.35549 -16.1761 -13.8713 4.4898 -16.4471 -14.1892 4.83901 -16.5649 
-12.3339 4.18052 -16.5274 -12.6581 3.81395 -16.5622 -12.9529 4.07232 -16.2857 
-13.4003 3.92598 -16.411 -13.6865 4.08448 -16.5519 -13.1241 3.67792 -16.669 
-8.84191 19.5003 -16.8882 -8.72516 19.6574 -17.1064 -8.54566 19.2912 -16.9553 
-9.07271 19.5529 -17.0163 -8.36843 18.7235 -17.0758 -9.32766 18.6847 -16.764 
-9.33138 19.1605 -16.8763 -9.63004 19.0091 -17.2148 -8.3698 18.3368 -16.8243 
-8.15128 18.4941 -17.066 -8.04309 18.2156 -17.0269 -8.97939 18.2507 -16.693 
-9.43121 18.1756 -16.844 -9.65935 18.4477 -17.1552 -8.23666 17.7504 -16.845 
-8.01107 17.7368 -17.0672 -8.79655 17.7045 -16.7444 -9.3398 17.6788 -16.8326 
-9.64948 17.8572 -17.1468 -8.2385 17.1386 -16.8446 -7.99011 17.0635 -17.1351 
-8.78287 17.0891 -16.7472 -9.32972 17.0714 -16.8367 -9.64703 17.2513 -17.15 
-8.25584 16.5141 -16.8349 -7.95154 16.4362 -17.0733 -8.81584 16.4788 -16.7362 
-9.36235 16.4622 -16.8287 -9.66774 16.6376 -17.1542 -8.2548 15.9084 -16.8305 
-7.92956 15.9167 -17.1533 -8.81182 15.8756 -16.7282 -9.36921 15.8636 -16.8184 
-9.68192 16.0292 -17.1419 -8.26783 15.299 -16.8294 -7.93362 15.3082 -17.1586 
-8.71156 15.3713 -16.7249 -9.2381 15.2421 -16.838 -9.62445 15.474 -17.1497 
-8.28618 14.6674 -16.8056 -7.95161 14.6986 -17.1305 -8.82078 14.7423 -16.7899 
-9.19774 14.7303 -17.0484 -9.44636 15.0252 -17.2689 -8.26714 14.0622 -16.7837 
-7.95463 14.0826 -17.1163 -8.73512 14.0616 -16.8053 -9.06855 14.2301 -17.1185 
-8.20541 13.5936 -16.8486 -7.99552 13.4354 -17.2361 -8.63195 13.5163 -16.8324 
-9.03626 13.5656 -17.2046 -8.40844 13.1601 -17.0198 -8.83659 13.126 -17.1309 
-10.1445 8.73849 -16.9344 -9.94451 8.93483 -17.2907 -9.70574 8.52009 -17.0758 
-10.5653 8.72734 -16.7099 -10.6159 8.97063 -17.0391 -11.2584 8.94078 -17.0373 
-11.7121 8.67113 -16.7122 -11.4888 8.59694 -17.1047 -10.0854 8.27358 -16.774 
-9.65952 7.9112 -17.1639 -11.7521 8.31715 -17.188 -11.7918 8.07564 -16.7966 
-12.0734 8.06179 -17.0704 -14.8863 8.08693 -16.9106 -14.8033 8.24344 -17.1492 
-14.686 8.02668 -16.9708 -14.9459 7.97182 -17.1179 -10.0524 7.6226 -16.7725 
-9.8179 7.46349 -17.2359 -12.3494 7.46978 -16.808 -12.2556 7.73475 -16.9496 
-12.6035 7.52114 -17.0697 -14.5172 7.62333 -17.0317 -15.0353 7.42551 -17.1343 
-10.1768 7.17938 -17.0993 -10.4853 6.93347 -16.8454 -10.4337 6.92683 -17.2053 
-13.03 6.77939 -16.7234 -12.8581 7.15633 -16.9468 -13.17 6.93027 -17.1439 
-14.3612 7.2824 -17.2934 -14.0058 6.87064 -17.0168 -15.4126 6.99141 -16.653 
-15.1645 6.77591 -17.0659 -10.7857 6.73367 -17.0237 -11.1842 6.50947 -16.9825 
-11.4103 6.22863 -17.1058 -13.2878 6.22948 -17.0907 -13.918 6.22743 -17.0706 
-15.1599 6.1494 -16.9901 -11.5154 5.81191 -17.2078 -13.4202 5.76805 -17.2113 
-13.7993 5.67865 -17.0067 -15.0222 5.72676 -17.0708 -11.7395 5.15408 -16.6798 
-11.5653 5.17806 -17.1041 -13.5829 5.49108 -16.9108 -14.5096 5.1368 -17.0092 
-14.7999 5.44426 -17.154 -11.8548 4.62004 -16.7792 -11.5901 4.43307 -17.2884 
-14.0348 4.47286 -16.9968 -14.222 4.77517 -17.2577 -11.9421 4.13247 -16.9582 
-12.2915 3.89365 -16.7984 -12.0879 3.86995 -17.0518 -13.5693 3.79781 -16.7297 
-13.8462 4.06024 -17.049 -12.4823 3.59382 -17.1324 -13.1562 3.54308 -17.1788 
-13.5558 3.67789 -17.1292 -14.2536 2.03911 -16.8358 -14.0721 2.31465 -17.2197 
-13.8458 2.06155 -16.9968 -14.6832 1.95834 -16.8752 -14.6189 2.39026 -17.1377 
-15.0168 2.19307 -17.2353 -13.8148 1.55861 -16.8282 -13.5429 1.90212 -17.1486 
-13.4005 1.47841 -17.1415 -14.3099 1.5132 -16.7926 -14.6178 1.47021 -17.0549 
-14.8891 1.76392 -17.1346 -13.6697 0.888556 -16.8144 -13.2862 0.830823 -17.1241 
-14.119 0.896164 -16.8058 -14.4253 1.00756 -17.0195 -13.6134 0.403931 -16.8674 
-13.4004 0.228204 -17.0784 -14.0199 0.340778 -16.8522 -14.4141 0.376666 -17.1813 
-13.8131 -0.00856934 -17.0319 -14.2309 -0.0563965 -17.1369 -8.21749 21.5708 -17.805 
-7.81169 21.24 -17.5852 -8.27185 21.1247 -17.4924 -8.56161 21.3828 -17.7429 
-7.75369 20.7419 -17.4493 -7.54421 21.0342 -17.617 -7.40338 20.6519 -17.7209 
-8.2864 20.6095 -17.3504 -8.85474 21.0996 -17.7773 -8.86328 20.6429 -17.4637 
-9.19434 20.7712 -17.7468 -7.64041 20.1524 -17.4897 -7.45442 20.1685 -17.7571 
-8.07252 20.2139 -17.3569 -8.78388 20.0152 -17.2996 -9.36239 20.4616 -17.6293 
-9.36723 20.0602 -17.4857 -9.63178 20.2082 -17.8379 -7.65905 19.8389 -17.6321 
-7.88846 19.5453 -17.8002 -8.16473 19.6693 -17.3643 -9.416 19.5384 -17.2734 
-9.69376 19.5711 -17.6919 -8.18272 19.0806 -17.4154 -8.06335 19.0364 -17.8582 
-9.81539 18.9297 -17.7073 -8.18765 18.2177 -17.2966 -8.24202 18.7147 -17.5943 
-8.38971 18.4541 -17.7432 -9.82215 18.2796 -17.5854 -8.16636 17.5715 -17.3684 
-8.42155 17.883 -17.7429 -9.81686 17.6776 -17.5817 -8.12871 17.0686 -17.4717 
-8.3958 17.2251 -17.8106 -9.82093 17.0701 -17.5916 -8.21931 16.7728 -17.7872 
-7.95222 16.4983 -17.5621 -9.81127 16.4099 -17.6654 -7.84677 15.8511 -17.5864 
-9.74837 15.7974 -17.558 -7.85446 15.3404 -17.6944 -9.65814 15.3062 -17.7508 
-7.85977 14.7198 -17.6823 -9.2507 14.5517 -17.5664 -9.45987 14.901 -17.7467 
-7.8679 14.0998 -17.6779 -9.15737 13.9909 -17.5877 -7.8742 13.5895 -17.7692 
-9.15087 13.5708 -17.7791 -8.2277 12.9174 -17.333 -7.96764 12.9659 -17.6785 
-8.65085 12.8245 -17.3744 -9.00016 13.0486 -17.6115 -8.41763 12.6128 -17.7163 
-8.77549 12.7131 -17.6681 -9.4403 8.73539 -17.3603 -9.48953 9.04781 -17.732 
[...]
CELL_DATA 38548
SCALARS scalars float
LOOKUP_TABLE default
1029 1029 1029 1029 1029 1029 1029 1029 1029 
1029 1029 1029 1029 1029 1029 1029 1029 1029 
1029 1029 1029 1029 1029 1029 1029 1029 1029 
1029 1029 1029 1029 1029 1029 1029 1029 1029 
1029 1029 1029 1029 1029 1029 1029 1029 1029 
1029 1029 1029 1029 1029 1029 1029 1029 1029 
1029 1029 1029 1029 1029 1029 1029 1029 1029 
1029 1029 1029 1029 1029 1029 1029 1029 1029 
1029 1029 1029 1029 1029 1029 1029 1029 1029 
1029 1029 1029 1029 1029 1029 1029 1029 1029 
1029 1029 1029 1029 1029 1029 1029 1029 1029 
1029 1029 1029 1029 1029 1029 1029 1029 1029 
1029 1029 1029 1029 1029 1029 1029 1029 1029 
1029 1029 1029 1029 1029 1029 1029 1029 1029 
1029 1029 1029 1029 1029 1029 1029 1029 1029 
1029 1029 1029 1029 1029 1029 1029 1029 1029 
1029 1029 1029 1029 1029 1029 1029 1029 1029 
1029 1029 1029 1029 1029 1029 1029 1029 1029 
1029 1029 1029 1029 1029 1029 1029 1029 1029 
1029 1029 1029 1029 1029 1029 1029 1029 1029 
1029 1029 1029 1029 1029 1029 1029 1029 1029 
1029 1029 1029 1029 1029 1029 1029 1029 1029 
1029 1029 1029 1029 1029 1029 1029 1029 1029 
1029 1029 1029 1029 1029 1029 1029 1029 1029 
1029 1029 1029 1029 1029 1029 1029 1029 1029 
1029 1029 1029 1029 1029 1029 1029 1029 1029 
1029 1029 1029 1029 1029 1029 1029 1029 1029 
1029 1029 1029 1029 1029 1029 1029 1029 1029 
1029 1029 1029 1029 1029 1029 1029 1029 1029 
1029 1029 1029 1029 1029 1029 1029 1029 1029 
1029 1029 1029 1029 1029 1029 1029 1029 1029 
1029 1029 1029 1029 1029 1029 1029 1029 1029 
1029 1029 1029 1029 1029 1029 1029 1029 1029 
1029 1029 1029 1029 1029 1029 1029 1029 1029 
1029 1029 1029 1029 1029 1029 1029 1029 1029 
1029 1029 1029 1029 1029 1029 1029 1029 1029 
1029 1029 1029 1029 1029 1029 1029 1029 1029 
1029 1029 1029 1029 1029 1029 1029 1029 1029 
1029 1029 1029 1029 1029 1029 1029 1029 1029 
1029 1029 1029 1029 1029 1029 1029 1029 1029 
1029 1029 1029 1029 1029 1029 1029 1029 1029 
1029 1029 1029 1029 1029 1029 1029 1029 1029 
1029 1029 1029 1029 1029 1029 1029 1029 1029 
1029 1029 1029 1029 1029 1029 1029 1029 1029 
1029 1029 1029 1029 1029 1029 1029 1029 1029 
1029 1029 1029 1029 1029 1029 1029 1029 1029 
1029 1029 1029 1029 1029 1029 1029 1029 1029 
1029 1029 1029 1029 1029 1029 1029 1029 1029 
1029 1029 1029 1029 1029 1029 1029 1029 1029 
1029 1029 1029 1029 1029 1029 1029 1029 1029 
1029 1029 1029 1029 1029 1029 1029 1029 1029 
1029 1029 1029 1029 1029 1029 1029 1029 1029 
1029 1029 1029 1029 1029 1029 1029 1029 1029 
1029 1029 1029 1029 1029 1029 1029 1029 1029 
1029 1029 1029 1029 1029 1029 1029 1029 1029 
1029 1029 1029 1029 1029 1029 1029 1029 1029 
1029 1029 1029 1029 1029 1029 1029 1029 1029 
1029 1029 1029 1029 1029 1029 1029 1029 1029 
1029 1029 1029 1029 1029 1029 1029 1029 1029 
1029 1029 1029 1029 1029 1029 1029 1029 1029 
1029 1029 1029 1029 1029 1029 1029 1029 1029 
1029 1029 1029 1029 1029 1029 1029 1029 1029 
1029 1029 1029 1029 1029 1029 1029 1029 1029 
1029 1029 1029 1029 1029 1029 1029 1029 1029 
1029 1029 1029 1029 1029 1029 1029 1029 1029 
1029 1029 1029 1029 1029 1029 1029 1029 1029 
1029 1029 1029 1029 1029 1029 1029 1029 1029 
1029 1029 1029 1029 1029 1029 1029 1029 1029 
1029 1029 1029 1029 1029 1029 1029 1029 1029 
1029 1029 1029 1029 1029 1029 1029 1029 1029 
1029 1029 1029 1029 1029 1029 1029 1029 1029 
1029 1029 1029 1029 1029 1029 1029 1029 1029 
1029 1029 1029 1029 1029 1029 1029 1029 1029 
1029 1029 1029 1029 1029 1029 1029 1029 1029 
1029 1029 1029 1029 1029 1029 1029 1029 1029 
1029 1029 1029 1029 1029 1029 1029 1029 1029 
1029 1029 1029 1029 1029 1029 1029 1029 1029 
1029 1029 1029 1029 1029 1029 1029 1029 1029 
1029 1029 1029 1029 1029 1029 1029 1029 1029 
1029 1029 1029 1029 1029 1029 1029 1029 1029 
1029 1029 1029 1029 1029 1029 1029 1029 1029 
1029 1029 1029 1029 1029 1029 1029 1029 1029 
1029 1029 1029 1029 1029 1029 1029 1029 1029 
1029 1029 1029 1029 1029 1029 1029 1029 1029 
1029 1029 1029 1029 1029 1029 1029 1029 1029 
1029 1029 1029 1029 1029 1029 1029 1029 1029 
1029 1029 1029 1029 1029 1029 1029 1029 1029 
1029 1029 1029 1029 1029 1029 1029 1029 1029 
1029 1029 1029 1029 1029 1029 1029 1029 1029 
1029 1029 1029 1029 1029 1029 1029 1029 1029 
1029 1029 1029 1029 1029 1029 1029 1029 1029 
1029 1029 1029 1029 1029 1029 1029 1029 1029 
1029 1029 1029 1029 1029 1029 1029 1029 1029 
1029 1029 1029 1029 1029 1029 1029 1029 1029 
1029 1029 1029 1029 1029 1029 1029 1029 1029 
1029 1029 1029 1029 1029 1029 1029 1029 1029 
1029 1029 1029 1029 1029 1029 1029 1029 1029 
1029 1029 1029 1029 1029 1029 1029 1029 1029 
1029 1029 1029 1029 1029 1029 1029 1029 1029 
1029 1029 1029 1029 1029 1029 1029 1029 1029 
1029 1029 1029 1029 1029 1029 1029 1029 1029 
1029 1029 1029 1029 1029 1029 1029 1029 1029 
1029 1029 1029 1029 1029 1029 1029 1029 1029 
1029 1029 1029 1029 1029 1029 1029 1029 1029 
1029 1029 1029 1029 1029 1029 1029 1029 1029 
1029 1029 1029 1029 1029 1029 1029 1029 1029 
1029 1029 1029 1029 1029 1029 1029 1029 1029 
1029 1029 1029 1029 1029 1029 1029 1029 1029 
1029 1029 1029 1029 1029 1029 1029 1029 1029 
1029 1029 1029 1029 1029 1029 1029 1029 1029 
1029 1029 1029 1029 1029 1029 1029 1029 1029 
1029 1029 1029 1029 1029 1029 1029 1029 1029 
1029 1029 1029 1029 1029 1029 1029 1029 1029 
1029 1029 1029 1029 1029 1029 1029 1029 1029 
1029 1029 1029 1029 1029 1029 1029 1029 1029 
1029 1029 1029 1029 1029 1029 1029 1029 1029 
1029 1029 1029 1029 1029 1029 1029 1029 1029 
1029 1029 1029 1029 1029 1029 1029 1029 1029 
1029 1029 1029 1029 1029 1029 1029 1029 1029 
1029 1029 1029 1029 1029 1029 1029 1029 1029 
1029 1029 1029 1029 1029 1029 1029 1029 1029 
1029 1029 1029 1029 1029 1029 1029 1029 1029 
1029 1029 1029 1029 1029 1029 1029 1029 1029 
1029 1029 1029 1029 1029 1029 1029 1029 1029 
1029 1029 1029 1029 1029 1029 1029 1029 1029 
1029 1029 1029 1029 1029 1029 1029 1029 1029 
1029 1029 1029 1029 1029 1029 1029 1029 1029 
1029 1029 1029 1029 1029 1029 1029 1029 1029 
1029 1029 1029 1029 1029 1029 1029 1029 1029 
1029 1029 1029 1029 1029 1029 1029 1029 1029 
1029 1029 1029 1029 1029 1029 1029 1029 1029 
1029 1029 1029 1029 1029 1029 1029 1029 1029 
1029 1029 1029 1029 1029 1029 1029 1029 1029 
1029 1029 1029 1029 1029 1029 1029 1029 1029 
1029 1029 1029 1029 1029 1029 1029 1029 1029 
1029 1029 1029 1029 1029 1029 1029 1029 1029 
1029 1029 1029 1029 1029 1029 1029 1029 1029 
1029 1029 1029 1029 1029 1029 1029 1029 1029 
1029 1029 1029 1029 1029 1029 1029 1029 1029 
1029 1029 1029 1029 1029 1029 1029 1029 1029 
1029 1029 1029 1029 1029 1029 1029 1029 1029 
1029 1029 1029 1029 1029 1029 1029 1029 1029 
1029 1029 1029 1029 1029 1029 1029 1029 1029 
1029 1029 1029 1029 1029 1029 1029 1029 1029 
1029 1029 1029 1029 1029 1029 1029 1029 1029 
1029 1029 1029 1029 1029 1029 1029 1029 1029 
1029 1029 1029 1029 1029 1029 1029 1029 1029 
1029 1029 1029 1029 1029 1029 1029 1029 1029 
1029 1029 1029 1029 1029 1029 1029 1029 1029 
1029 1029 1029 1029 1029 1029 1029 1029 1029 
1029 1029 1029 1029 1029 1029 1029 1029 1029 
1029 1029 1029 1029 1029 1029 1029 1029 1029 
1029 1029 1029 1029 1029 1029 1029 1029 1029 
1029 1029 1029 1029 1029 1029 1029 1029 1029 
1029 1029 1029 1029 1029 1029 1029 1029 1029 
1029 1029 1029 1029 1029 1029 1029 1029 1029 
1029 1029 1029 1029 1029 1029 1029 1029 1029 
1029 1029 1029 1029 1029 1029 1029 1029 1029 
1029 1029 1029 1029 1029 1029 1029 1029 1029 
1029 1029 1029 1029 1029 1029 1029 1029 1029 
1029 1029 1029 1029 1029 1029 1029 1029 1029 
1029 1029 1029 1029 1029 1029 1029 1029 1029 
1029 1029 1029 1029 1029 1029 1029 1029 1029 
1029 1029 1029 1029 1029 1029 1029 1029 1029 
1029 1029 1029 1029 1029 1029 1029 1029 1029 
1029 1029 1029 1029 1029 1029 1029 1029 1029 
1029 1029 1029 1029 1029 1029 1029 1029 1029 
1029 1029 1029 1029 1029 1029 1029 1029 1029 
1029 1029 1029 1029 1029 1029 1029 1029 1029 
1029 1029 1029 1029 1029 1029 1029 1029 1029 
1029 1029 1029 1029 1029 1029 1029 1029 1029 
1029 1029 1029 1029 1029 1029 1029 1029 1029 
1029 1029 1029 1029 1029 1029 1029 1029 1029 
1029 1029 1029 1029 1029 1029 1029 1029 1029 
1029 1029 1029 1029 1029 1029 1029 1029 1029 
1029 1029 1029 1029 1029 1029 1029 1029 1029 
1029 1029 1029 1029 1029 1029 1029 1029 1029 
1029 1029 1029 1029 1029 1029 1029 1029 1029 
1029 1029 1029 1029 1029 1029 1029 1029 1029 
1029 1029 1029 1029 1029 1029 1029 1029 1029 
1029 1029 1029 1029 1029 1029 1029 1029 1029 
1029 1029 1029 1029 1029 1029 1029 1029 1029 
1029 1029 1029 1029 1029 1029 1029 1029 1029 
1029 1029 1029 1029 1029 1029 1029 1029 1029 
1029 1029 1029 1029 1029 1029 1029 1029 1029 
1029 1029 1029 1029 1029 1029 1029 1029 1029 
1029 1029 1029 1029 1029 1029 1029 1029 1029 
1029 1029 1029 1029 1029 1029 1029 1029 1029 
1029 1029 1029 1029 1029 1029 1029 1029 1029 
1029 1029 1029 1029 1029 1029 1029 1029 1029 
1029 1029 1029 1029 1029 1029 1029 1029 1029 
1029 1029 1029 1029 1029 1029 1029 1029 1029 
1029 1029 1029 1029 1029 1029 1029 1029 1029 
1029 1029 1029 1029 1029 1029 1029 1029 1029 
1029 1029 1029 1029 1029 1029 1029 1029 1029 
1029 1029 1029 1029 1029 1029 1029 1029 1029 
1029 1029 1029 1029 1029 1029 1029 1029 1029 
1029 1029 1029 1029 1029 1029 1029 1029 1029 
1029 1029 1029 1029 1029 1029 1029 1029 1029 
1029 1029 1029 1029 1029 1029 1029 1029 1029 
1029 1029 1029 1029 1029 1029 1029 1029 1029 
1029 1029 1029 1029 1029 1029 1029 1029 1029 
1029 1029 1029 1029 1029 1029 1029 1029 1029 
1029 1029 1029 1029 1029 1029 1029 1029 1029 
1029 1029 1029 1029 1029 1029 1029 1029 1029 
1029 1029 1029 1029 1029 1029 1029 1029 1029 
1029 1029 1029 1029 1029 1029 1029 1029 1029 
1029 1029 1029 1029 1029 1029 1029 1029 1029 
1029 1029 1029 1029 1029 1029 1029 1029 1029 
1029 1029 1029 1029 1029 1029 1029 1029 1029 
1029 1029 1029 1029 1029 1029 1029 1029 1029 
1029 1029 1029 1029 1029 1029 1029 1029 1029 
1029 1029 1029 1029 1029 1029 1029 1029 1029 
1029 1029 1029 1029 1029 1029 1029 1029 1029 
1029 1029 1029 1029 1029 1029 1029 1029 1029 
1029 1029 1029 1029 1029 1029 1029 1029 1029 
1029 1029 1029 1029 1029 1029 1029 1029 1029 
1029 1029 1029 1029 1029 1029 1029 1029 1029 
1029 1029 1029 1029 1029 1029 1029 1029 1029 
1029 1029 1029 1029 1029 1029 1029 1029 1029 
1029 1029 1029 1029 1029 1029 1029 1029 1029 
1029 1029 1029 1029 1029 1029 1029 1029 1029 
1029 1029 1029 1029 1029 1029 1029 1029 1029 
1029 1029 1029 1029 1029 1029 1029 1029 1029 
1029 1029 1029 1029 1029 1029 1029 1029 1029 
1029 1029 1029 1029 1029 1029 1029 1029 1029 
1029 1029 1029 1029 1029 1029 1029 1029 1029 
1029 1029 1029 1029 1029 1029 1029 1029 1029 
1029 1029 1029 1029 1029 1029 1029 1029 1029 
1029 1029 1029 1029 1029 1029 1029 1029 1029 
1029 1029 1029 1029 1029 1029 1029 1029 1029 
1029 1029 1029 1029 1029 1029 1029 1029 1029 
1029 1029 1029 1029 1029 1029 1029 1029 1029 
1029 1029 1029 1029 1029 1029 1029 1029 1029 
1029 1029 1029 1029 1029 1029 1029 1029 1029 
1029 1029 1029 1029 1029 1029 1029 1029 1029 
1029 1029 1029 1029 1029 1029 1029 1029 1029 
1029 1029 1029 1029 1029 1029 1029 1029 1029 
1029 1029 1029 1029 1029 1029 1029 1029 1029 
1029 1029 1029 1029 1029 1029 1029 1029 1029 
1029 1029 1029 1029 1029 1029 1029 1029 1029 
1029 1029 1029 1029 1029 1029 1029 1029 1029 
1029 1029 1029 1029 1029 1029 1029 1029 1029 
1029 1029 1029 1029 1029 1029 1029 1029 1029 
1029 1029 1029 1029 1029 1029 1029 1029 1029 
1029 1029 1029 1029 1029 1029 1029 1029 1029 
1029 1029 1029 1029 1029 1029 1029 1029 1029 
1029 1029 1029 1029 1029 1029 1029 1029 1029 
1029 1029 1029 1029 1029 1029 1029 1029 1029 
1029 1029 1029 1029 1029 1029 1029 1029 1029 
1029 1029 1029 1029 1029 1029 1029 1029 1029 
1029 1029 1029 1029 1029 1029 1029 1029 1029 
1029 1029 1029 1029 1029 1029 1029 1029 1029 
1029 1029 1029 1029 1029 1029 1029 1029 1029 
1029 1029 1029 1029 1029 1029 1029 1029 1029 
1029 1029 1029 1029 1029 1029 1029 1029 1029 
1029 1029 1029 1029 1029 1029 1029 1029 1029 
1029 1029 1029 1029 1029 1029 1029 1029 1029 
1029 1029 1029 1029 1029 1029 1029 1029 1029 
1029 1029 1029 1029 1029 1029 1029 1029 1029 
1029 1029 1029 1029 1029 1029 1029 1029 1029 
1029 1029 1029 1029 1029 1029 1029 1029 1029 
1029 1029 1029 1029 1029 1029 1029 1029 1029 
1029 1029 1029 1029 1029 1029 1029 1029 1029 
1029 1029 1029 1029 1029 1029 1029 1029 1029 
1029 1029 1029 1029 1029 1029 1029 1029 1029 
1029 1029 1029 1029 1029 1029 1029 1029 1029 
1029 1029 1029 1029 1029 1029 1029 1029 1029 
1029 1029 1029 1029 1029 1029 1029 1029 1029 
1029 1029 1029 1029 1029 1029 1029 1029 1029 
1029 1029 1029 1029 1029 1029 1029 1029 1029 
1029 1029 1029 1029 1029 1029 1029 1029 1029 
1029 1029 1029 1029 1029 1029 1029 1029 1029 
1029 1029 1029 1029 1029 1029 1029 1029 1029 
1029 1029 1029 1029 1029 1029 1029 1029 1029 
1029 1029 1029 1029 1029 1029 1029 1029 1029 
1029 1029 1029 1029 1029 1029 1029 1029 1029 
1029 1029 1029 1029 1029 1029 1029 1029 1029 
1029 1029 1029 1029 1029 1029 1029 1029 1029 
1029 1029 1029 1029 1029 1029 1029 1029 1029 
1029 1029 1029 1029 1029 1029 1029 1029 1029 
1029 1029 1029 1029 1029 1029 1029 1029 1029 
1029 1029 1029 1029 1029 1029 1029 1029 1029 
1029 1029 1029 1029 1029 1029 1029 1029 1029 
1029 1029 1029 1029 1029 1029 1029 1029 1029 
1029 1029 1029 1029 1029 1029 1029 1029 1029 
1029 1029 1029 1029 1029 1029 1029 1029 1029 
1029 1029 1029 1029 1029 1029 1029 1029 1029 
1029 1029 1029 1029 1029 1029 1029 1029 1029 
1029 1029 1029 1029 1029 1029 1029 1029 1029 
1029 1029 1029 1029 1029 1029 1029 1029 1029 
1029 1029 1029 1029 1029 1029 1029 1029 1029 
1029 1029 1029 1029 1029 1029 1029 1029 1029 
1029 1029 1029 1029 1029 1029 1029 1029 1029 
1029 1029 1029 1029 1029 1029 1029 1029 1029 
1029 1029 1029 1029 1029 1029 1029 1029 1029 
1029 1029 1029 1029 1029 1029 1029 1029 1029 
1029 1029 1029 1029 1029 1029 1029 1029 1029 
1029 1029 1029 1029 1029 1029 1029 1029 1029 
1029 1029 1029 1029 1029 1029 1029 1029 1029 
1029 1029 1029 1029 1029 1029 1029 1029 1029 
1029 1029 1029 1029 1029 1029 1029 1029 1029 
1029 1029 1029 1029 1029 1029 1029 1029 1029 
1029 1029 1029 1029 1029 1029 1029 1029 1029 
1029 1029 1029 1029 1029 1029 1029 1029 1029 
1029 1029 1029 1029 1029 1029 1029 1029 1029 
1029 1029 1029 1029 1029 1029 1029 1029 1029 
1029 1029 1029 1029 1029 1029 1029 1029 1029 
1029 1029 1029 1029 1029 1029 1029 1029 1029 
1029 1029 1029 1029 1029 1029 1029 1029 1029 
1029 1029 1029 1029 1029 1029 1029 1029 1029 
1029 1029 1029 1029 1029 1029 1029 1029 1029 
1029 1029 1029 1029 1029 1029 1029 1029 1029 
1029 1029 1029 1029 1029 1029 1029 1029 1029 
1029 1029 1029 1029 1029 1029 1029 1029 1029 
1029 1029 1029 1029 1029 1029 1029 1029 1029 
1029 1029 1029 1029 1029 1029 1029 1029 1029 
1029 1029 1029 1029 1029 1029 1029 1029 1029 
1029 1029 1029 1029 1029 1029 1029 1029 1029 
1029 1029 1029 1029 1029 1029 1029 1029 1029 
1029 1029 1029 1029 1029 1029 1029 1029 1029 
1029 1029 1029 1029 1029 1029 1029 1029 1029 
1029 1029 1029 1029 1029 1029 1029 1029 1029 
1029 1029 1029 1029 1029 1029 1029 1029 1029 
1029 1029 1029 1029 1029 1029 1029 1029 1029 
1029 1029 1029 1029 1029 1029 1029 1029 1029 
1029 1029 1029 1029 1029 1029 1029 1029 1029 
1029 1029 1029 1029 1029 1029 1029 1029 1029 
1029 1029 1029 1029 1029 1029 1029 1029 1029 
1029 1029 1029 1029 1029 1029 1029 1029 1029 
1029 1029 1029 1029 1029 1029 1029 1029 1029 
1029 1029 1029 1029 1029 1029 1029 1029 1029 
1029 1029 1029 1029 1029 1029 1029 1029 1029 
1029 1029 1029 1029 1029 1029 1029 1029 1029 
1029 1029 1029 1029 1029 1029 1029 1029 1029 
1029 1029 1029 1029 1029 1029 1029 1029 1029 
1029 1029 1029 1029 1029 1029 1029 1029 1029 
1029 1029 1029 1029 1029 1029 1029 1029 1029 
1029 1029 1029 1029 1029 1029 1029 1029 1029 
1029 1029 1029 1029 1029 1029 1029 1029 1029 
1029 1029 1029 1029 1029 1029 1029 1029 1029 
1029 1029 1029 1029 1029 1029 1029 1029 1029 
1029 1029 1029 1029 1029 1029 1029 1029 1029 
1029 1029 1029 1029 1029 1029 1029 1029 1029 
1029 1029 1029 1029 1029 1029 1029 1029 1029 
1029 1029 1029 1029 1029 1029 1029 1029 1029 
1029 1029 1029 1029 1029 1029 1029 1029 1029 
1029 1029 1029 1029 1029 1029 1029 1029 1029 
1029 1029 1029 1029 1029 1029 1029 1029 1029 
1029 1029 1029 1029 1029 1029 1029 1029 1029 
1029 1029 1029 1029 1029 1029 1029 1029 1029 
1029 1029 1029 1029 1029 1029 1029 1029 1029 
1029 1029 1029 1029 1029 1029 1029 1029 1029 
1029 1029 1029 1029 1029 1029 1029 1029 1029 
1029 1029 1029 1029 1029 1029 1029 1029 1029 
1029 1029 1029 1029 1029 1029 1029 1029 1029 
1029 1029 1029 1029 1029 1029 1029 1029 1029 
1029 1029 1029 1029 1029 1029 1029 1029 1029 
1029 1029 1029 1029 1029 1029 1029 1029 1029 
1029 1029 1029 1029 1029 1029 1029 1029 1029 
1029 1029 1029 1029 1029 1029 1029 1029 1029 
1029 1029 1029 1029 1029 1029 1029 1029 1029 
1029 1029 1029 1029 1029 1029 1029 1029 1029 
1029 1029 1029 1029 1029 1029 1029 1029 1029 
1029 1029 1029 1029 1029 1029 1029 1029 1029 
1029 1029 1029 1029 1029 1029 1029 1029 1029 
1029 1029 1029 1029 1029 1029 1029 1029 1029 
1029 1029 1029 1029 1029 1029 1029 1029 1029 
1029 1029 1029 1029 1029 1029 1029 1029 1029 
1029 1029 1029 1029 1029 1029 1029 1029 1029 
1029 1029 1029 1029 1029 1029 1029 1029 1029 
1029 1029 1029 1029 1029 1029 1029 1029 1029 
1029 1029 1029 1029 1029 1029 1029 1029 1029 
1029 1029 1029 1029 1029 1029 1029 1029 1029 
1029 1029 1029 1029 1029 1029 1029 1029 1029 
1029 1029 1029 1029 1029 1029 1029 1029 1029 
1029 1029 1029 1029 1029 1029 1029 1029 1029 
1029 1029 1029 1029 1029 1029 1029 1029 1029 
1029 1029 1029 1029 1029 1029 1029 1029 1029 
1029 1029 1029 1029 1029 1029 1029 1029 1029 
1029 1029 1029 1029 1029 1029 1029 1029 1029 
1029 1029 1029 1029 1029 1029 1029 1029 1029 
1029 1029 1029 1029 1029 1029 1029 1029 1029 
1029 1029 1029 1029 1029 1029 1029 1029 1029 
1029 1029 1029 1029 1029 1029 1029 1029 1029 
1029 1029 1029 1029 1029 1029 1029 1029 1029 
1029 1029 1029 1029 1029 1029 1029 1029 1029 
1029 1029 1029 1029 1029 1029 1029 1029 1029 
1029 1029 1029 1029 1029 1029 1029 1029 1029 
1029 1029 1029 1029 1029 1029 1029 1029 1029 
1029 1029 1029 1029 1029 1029 1029 1029 1029 
1029 1029 1029 1029 1029 1029 1029 1029 1029 
1029 1029 1029 1029 1029 1029 1029 1029 1029 
1029 1029 1029 1029 1029 1029 1029 1029 1029 
1029 1029 1029 1029 1029 1029 1029 1029 1029 
1029 1029 1029 1029 1029 1029 1029 1029 1029 
1029 1029 1029 1029 1029 1029 1029 1029 1029 
1029 1029 1029 1029 1029 1029 1029 1029 1029 
1029 1029 1029 1029 1029 1029 1029 1029 1029 
1029 1029 1029 1029 1029 1029 1029 1029 1029 
1029 1029 1029 1029 1029 1029 1029 1029 1029 
1029 1029 1029 1029 1029 1029 1029 1029 1029 
1029 1029 1029 1029 1029 1029 1029 1029 1029 
1029 1029 1029 1029 1029 1029 1029 1029 1029 
1029 1029 1029 1029 1029 1029 1029 1029 1029 
1029 1029 1029 1029 1029 1029 1029 1029 1029 
1029 1029 1029 1029 1029 1029 1029 1029 1029 
1029 1029 1029 1029 1029 1029 1029 1029 1029 
1029 1029 1029 1029 1029 1029 1029 1029 1029 
1029 1029 1029 1029 1029 1029 1029 1029 1029 
1029 1029 1029 1029 1029 1029 1029 1029 1029 
1029 1029 1029 1029 1029 1029 1029 1029 1029 
1029 1029 1029 1029 1029 1029 1029 1029 1029 
1029 1029 1029 1029 1029 1029 1029 1029 1029 
1029 1029 1029 1029 1029 1029 1029 1029 1029 
1029 1029 1029 1029 1029 1029 1029 1029 1029 
1029 1029 1029 1029 1029 1029 1029 1029 1029 
1029 1029 1029 1029 1029 1029 1029 1029 1029 
1029 1029 1029 1029 1029 1029 1029 1029 1029 
1029 1029 1029 1029 1029 1029 1029 1029 1029 
1029 1029 1029 1029 1029 1029 1029 1029 1029 
1029 1029 1029 1029 1029 1029 1029 1029 1029 
1029 1029 1029 1029 1029 1029 1029 1029 1029 
1029 1029 1029 1029 1029 1029 1029 1029 1029 
1029 1029 1029 1029 1029 1029 1029 1029 1029 
1029 1029 1029 1029 1029 1029 1029 1029 1029 
1029 1029 1029 1029 1029 1029 1029 1029 1029 
1029 1029 1029 1029 1029 1029 1029 1029 1029 
1029 1029 1029 1029 1029 1029 1029 1029 1029 
1029 1029 1029 1029 1029 1029 1029 1029 1029 
1029 1029 1029 1029 1029 1029 1029 1029 1029 
1029 1029 1029 1029 1029 1029 1029 1029 1029 
1029 1029 1029 1029 1029 1029 1029 1029 1029 