# vtk DataFile Version 4.2
vtk output
ASCII
DATASET POLYDATA
POINTS 4132 float
5.62439 18.2003 -39.1552 5.63057 18.7191 -39.6329 5.1965 18.3713 -39.4114 
5.98036 18.5364 -39.6867 4.93089 17.7335 -39.1719 4.67609 17.9426 -39.7847 
4.46775 17.4571 -39.5184 5.46048 17.4907 -39.1166 6.16843 17.8219 -39.5843 
4.7386 16.9762 -39.5191 5.76115 17.1078 -39.4409 8.61895 19.4768 -40.304 
8.66847 19.739 -40.7869 8.39623 19.2056 -40.6992 9.02655 19.6304 -40.5547 
5.6949 18.8046 -40.4737 5.1892 18.5524 -40.2175 6.20252 18.4326 -40.6236 
8.80466 19.2213 -40.4667 4.67378 18.0162 -40.7955 4.20668 17.3102 -40.1948 
6.85974 17.8849 -40.5159 6.66963 17.2372 -39.9146 7.45182 17.1324 -40.2418 
7.48526 17.639 -40.4731 8.06601 17.61 -40.6989 2.86658 16.5192 -40.2708 
2.54302 16.7902 -40.7848 2.33638 16.461 -40.4228 3.69434 16.5259 -40.0923 
3.49661 16.9234 -40.5924 4.47851 16.3283 -39.9894 5.55626 16.5143 -39.8908 
6.61055 16.5309 -40.1316 7.18405 16.5742 -40.4685 7.88302 16.9793 -40.8388 
2.68408 16.0508 -40.544 3.91117 15.9111 -40.6024 4.91235 16.0332 -40.5753 
5.91854 16.0597 -40.6116 6.66974 16.1666 -40.6966 10.863 20.1998 -41.2428 
10.7781 20.7061 -41.5081 10.3263 20.4152 -41.3969 11.0731 20.585 -41.5301 
8.77131 19.888 -41.7694 8.27576 19.4807 -41.3225 9.67804 19.5118 -40.9369 
9.66448 20.0807 -41.4872 10.5337 19.2838 -41.124 11.438 20.0479 -41.6303 
11.4529 19.5561 -41.2804 11.8727 19.5125 -41.5122 5.63442 18.8281 -41.6909 
5.11276 18.5583 -41.2259 6.32662 18.5749 -41.6352 8.61611 18.4614 -40.9123 
8.05517 18.794 -41.4759 9.55542 18.4062 -41.1522 10.2713 18.6385 -41.4238 
11.002 19.0693 -41.5515 11.6387 19.3121 -41.6504 4.67828 18.123 -41.4984 
4.16382 17.5963 -41.3145 6.71086 18.2096 -41.2793 7.57493 18.1036 -41.2645 
8.68848 17.5886 -41.0168 9.25335 17.6121 -41.4305 9.83035 18.0454 -41.5833 
1.88219 16.4439 -40.9123 1.62722 16.9122 -41.518 1.34305 16.1858 -41.6988 
2.48521 17.1515 -41.4648 3.32754 17.1832 -41.3726 7.24486 16.4036 -41.1731 
7.90992 16.6796 -41.5307 8.63183 17.0757 -41.4641 1.83435 15.8669 -41.2327 
2.50387 15.4751 -41.0946 2.0093 15.3364 -41.5993 3.31287 15.4145 -41.025 
4.00045 15.487 -41.3726 4.66961 15.8372 -41.6182 5.65421 15.9507 -41.5331 
6.69624 16.0452 -41.584 2.79903 15.052 -41.7306 3.64521 15.1505 -41.7033 
10.7331 20.4935 -41.7421 8.8532 19.769 -42.5473 8.17447 19.3395 -42.1959 
9.72164 19.9445 -42.6344 10.8857 20.0076 -42.4392 11.6234 19.5889 -41.9323 
11.3731 19.3005 -42.3587 -3.11527 18.5706 -42.2603 -3.35218 18.7846 -42.6875 
-3.5436 18.4717 -42.5115 -2.62513 19.0103 -42.6682 -2.53943 18.4087 -42.2259 
-1.96239 18.5457 -42.8013 4.63995 18.3544 -41.9623 4.98499 18.7628 -42.4768 
4.30358 18.2208 -42.7142 5.77469 18.8647 -42.5206 6.98734 18.4781 -42.0058 
6.65621 18.791 -42.5616 7.62973 18.6369 -42.0682 7.71396 18.9737 -42.7554 
10.7211 18.2679 -41.8967 11.7534 18.3704 -42.255 11.6576 19.0486 -42.5687 
12.049 18.708 -42.6151 -3.25615 17.9796 -42.5079 -2.38435 18.0378 -42.3764 
0.96954 17.4145 -42.191 0.893182 17.8934 -42.6823 0.283982 17.7148 -42.6539 
1.93709 17.5124 -41.9645 1.51034 17.8471 -42.4595 2.96566 17.5053 -42.0011 
2.546 17.7454 -42.5826 3.83572 17.7477 -42.0518 3.55877 17.7613 -42.5982 
9.70848 17.267 -41.8761 10.8162 17.3025 -41.9888 11.6728 17.4519 -42.0069 
12.4861 18.0563 -42.4506 12.7243 17.3368 -42.1777 13.1136 17.5985 -42.5367 
0.360293 17.0601 -42.6307 0.954905 16.4055 -42.4741 7.56819 16.3418 -41.8754 
8.54831 16.5578 -42.0641 9.53458 16.4635 -42.2114 10.4496 16.5892 -42.1427 
11.4398 16.6114 -42.1163 12.4432 16.5851 -42.1134 13.6243 17.0873 -42.4175 
13.6161 16.5539 -42.217 14.853 16.3271 -42.1905 14.5648 16.9324 -42.5938 
15.9128 16.2068 -42.1602 15.4574 16.721 -42.4841 16.1945 16.6731 -42.6673 
1.49975 15.5749 -41.8792 1.27794 15.5601 -42.5486 4.16126 15.4509 -42.2404 
4.83039 15.8579 -42.8239 5.66858 15.9933 -42.5819 6.67604 15.9741 -42.546 
7.67467 16.0935 -42.4344 8.81081 15.9587 -42.649 9.96193 15.9433 -42.5019 
10.9704 15.9473 -42.4684 11.9656 15.9284 -42.4599 12.9743 15.9251 -42.4707 
13.9859 15.9345 -42.4627 14.808 15.7962 -42.3646 15.1238 15.3845 -42.5712 
15.6938 15.5477 -42.1017 16.5646 16.026 -42.4071 16.5685 15.3594 -42.1382 
17.0649 15.3493 -42.6327 18.6925 15.3998 -42.3109 18.5443 15.6751 -42.4793 
18.3094 15.3153 -42.5947 19.039 15.6109 -42.6735 1.93871 15.0665 -42.4298 
2.80185 14.8858 -42.6804 3.53816 15.0565 -42.514 15.7133 14.9299 -42.5514 
16.2758 14.3573 -42.7882 16.4717 14.6697 -42.191 16.9734 14.616 -42.4369 
18.6993 15.1615 -42.7955 16.8255 14.1947 -42.6748 -2.15339 19.4289 -43.1219 
-2.22904 19.6924 -43.5575 -2.51937 19.5451 -43.3839 -1.97122 19.1942 -43.4961 
8.54081 19.4295 -42.8949 9.31934 19.5593 -43.1548 10.1007 19.6109 -43.443 
10.7847 19.8365 -43.4394 12.0176 19.3842 -42.976 11.6463 19.8158 -43.3819 
12.8768 19.2813 -43.2271 12.4289 19.7485 -43.4666 12.9224 19.484 -43.6916 
-3.07706 19.0515 -43.3714 -3.7552 18.3469 -43.1139 -1.71809 18.5863 -43.4489 
-0.291768 18.153 -43.1107 -0.553528 18.7207 -43.7194 -0.878873 18.317 -43.3641 
0.101261 18.5161 -43.7903 4.74956 18.5261 -42.9297 5.37841 18.5455 -42.9905 
6.31062 18.5105 -43.0625 7.07039 18.5384 -43.3565 7.78811 18.8119 -43.6088 
8.79224 19.1361 -43.608 9.89652 19.215 -43.8348 12.7996 18.4458 -42.8317 
13.5682 19.0611 -43.7779 13.7262 18.3615 -43.1838 14.2264 18.5713 -43.671 
-5.21673 17.5053 -43.2561 -5.29381 17.9607 -43.7196 -5.70403 17.4891 -43.7392 
-4.38243 17.5069 -43.0731 -4.37588 17.9468 -43.6373 -3.55407 17.3051 -42.9853 
-2.36767 17.577 -42.9242 -1.60176 18.1572 -43.5697 -1.25152 17.6167 -43.1708 
-0.396088 17.4167 -42.9417 0.64839 18.0791 -43.3751 1.6761 17.8694 -43.1663 
2.60592 17.5299 -43.1439 2.24644 17.4162 -43.8159 3.34728 17.449 -43.0708 
4.0304 17.6409 -43.3112 4.80123 18.0412 -43.6017 5.90746 18.1177 -43.6378 
6.88154 18.1684 -43.7769 13.7644 17.5603 -42.7982 14.5036 18.0049 -43.4731 
14.5875 17.4902 -43.1469 15.0876 17.6175 -43.577 16.7783 17.2636 -43.1715 
16.7425 17.8748 -43.7277 16.1735 17.4927 -43.5101 17.9825 17.3848 -43.1197 
17.5261 17.8672 -43.5146 18.9895 17.2403 -43.1829 18.4064 17.7901 -43.5331 
19.0462 17.5119 -43.4883 -5.12655 17.1141 -43.5504 -4.14914 17.0057 -43.5692 
-3.07785 16.9962 -43.5848 -2.01959 17.0526 -43.6318 -1.03504 17.0657 -43.5995 
-0.141159 16.8808 -43.3362 0.489046 16.5427 -43.0518 0.262218 16.4218 -43.8261 
3.03889 17.1129 -43.6645 3.68984 17.1636 -43.7181 15.5976 17.1701 -43.1718 
16.932 16.3081 -42.8139 17.5593 16.6678 -42.9778 18.7105 16.3897 -42.8997 
19.4737 16.985 -43.6185 19.5838 16.6025 -43.2217 19.9006 16.4464 -43.5048 
0.721613 16.0942 -43.3904 1.10795 15.5197 -43.5884 4.23628 15.4645 -43.2129 
4.91297 15.7573 -43.5794 5.67753 15.8803 -43.4662 6.6637 15.8565 -43.4032 
7.74171 15.7823 -43.2068 8.58678 15.5134 -43.1896 8.07911 15.3713 -43.6796 
9.4091 15.4517 -42.9902 10.4229 15.4184 -42.9524 11.4455 15.4012 -42.9813 
12.4478 15.3935 -42.98 13.4058 15.4152 -42.9981 14.3375 15.4524 -42.9023 
17.7618 15.6189 -42.8862 19.5853 16.1026 -43.4183 19.2158 15.499 -43.5004 
1.74189 15.0324 -43.4946 2.61804 14.8808 -43.5176 3.68361 15.0384 -43.5877 
8.82141 15.1185 -43.7277 9.80568 15.0844 -43.4608 10.8053 14.8869 -43.7498 
11.9658 15.0163 -43.6591 12.8363 15.0691 -43.5243 13.6133 15.176 -43.6689 
14.751 15.1858 -43.2904 15.5288 14.7428 -43.4381 16.0406 14.2698 -43.5426 
17.2977 14.5331 -43.1306 18.0799 14.8121 -43.4807 18.7653 15.0369 -43.6688 
16.7815 14.0255 -43.6508 -2.51703 19.2932 -43.8159 10.7944 19.322 -43.9431 
11.5312 19.5287 -43.9211 12.3305 19.3901 -43.978 -5.2303 18.442 -44.1998 
-5.33802 18.5992 -44.4534 -5.67339 18.1192 -44.3424 -5.0731 18.544 -44.4903 
-3.26173 18.5498 -43.8985 -2.28004 18.5437 -44.0058 -1.12045 18.5535 -43.8831 
-1.25468 18.8269 -44.6897 -1.68699 18.3942 -44.344 -0.209521 18.8807 -44.4731 
0.344366 18.5817 -44.5491 7.54067 18.4067 -43.9558 8.1085 18.5499 -44.3822 
8.76961 18.7867 -44.4146 9.71569 18.8553 -44.4033 10.6632 18.8165 -44.3405 
11.6099 18.8128 -44.2667 11.2003 18.2332 -44.7252 12.2957 18.6416 -44.4364 
13.0253 18.9565 -44.5145 13.8733 19.0375 -44.7119 15.025 18.3323 -43.9696 
14.6421 18.9243 -44.4671 15.878 18.505 -44.1952 15.5678 18.8414 -44.5171 
16.6406 18.3288 -44.1736 16.3845 18.7582 -44.6093 16.9793 18.4762 -44.6948 
-5.81399 17.4324 -44.6128 -4.73609 18.2349 -44.5402 -3.42181 18.1834 -44.4384 
-2.34888 18.2053 -44.4721 0.7734 18.1951 -44.3873 1.48538 17.8271 -44.1838 
2.14082 17.3866 -44.7825 4.81357 17.8089 -44.7926 4.17595 17.4322 -44.2403 
5.67016 17.9589 -44.513 6.68728 17.9556 -44.5102 7.74245 18.1361 -44.646 
11.9659 18.1834 -44.8026 15.8182 17.8333 -43.7996 17.7021 18.0537 -44.4671 
18.7453 17.5619 -44.0114 18.5122 17.6321 -44.7223 -5.32945 17.0272 -44.4581 
-4.3971 16.8711 -44.4554 -3.35981 16.8635 -44.5018 -2.34547 16.8857 -44.5375 
-1.35076 16.91 -44.5148 -0.446057 16.7829 -44.2756 0.168776 16.4109 -44.7971 
2.82088 17.0061 -44.5555 3.56926 17.0138 -44.5128 19.0878 17.0728 -44.3832 
19.6691 16.5198 -43.9333 19.3284 16.4276 -44.5604 0.670108 15.8977 -44.2668 
1.12619 15.3814 -44.7561 4.57927 15.4037 -43.8934 5.40528 15.4944 -44.0678 
6.39663 15.4964 -44.0624 7.34105 15.4531 -43.9593 14.0406 15.4879 -44.0863 
13.3562 15.3836 -44.4548 13.8236 15.8258 -44.8437 14.4471 15.791 -44.5471 
14.8395 15.3177 -44.0453 14.939 15.515 -44.7455 19.0775 15.5149 -44.4846 
1.73896 15.016 -44.5311 2.61913 14.8826 -44.5296 3.64987 14.9231 -44.5465 
4.78469 15.0833 -44.549 5.95271 15.1099 -44.6878 6.9482 15.0995 -44.6746 
7.94549 15.0756 -44.4882 8.81554 14.9606 -44.6758 9.82022 14.8153 -44.3823 
10.4928 14.4753 -44.2653 10.4187 14.475 -44.6781 10.9152 14.465 -44.3677 
11.5453 14.769 -44.6936 12.6836 15.0306 -44.4178 15.3605 14.6761 -44.6026 
15.6968 14.4103 -43.9526 17.5519 14.2416 -43.9373 17.9684 14.422 -44.3905 
18.4912 14.8818 -44.4122 10.6538 14.3029 -44.5181 16.0604 14.0361 -44.4443 
16.7182 13.8336 -44.5501 17.3426 14.0553 -44.6692 -5.33629 18.3212 -44.838 
-4.00712 18.4378 -45.0785 -4.28774 18.8132 -45.8299 -4.87355 18.4937 -45.5243 
[...]
CELL_DATA 8380
SCALARS scalars float
LOOKUP_TABLE default
1021 1021 1021 1021 1021 1021 1021 1021 1021 
1021 1021 1021 1021 1021 1021 1021 1021 1021 
1021 1021 1021 1021 1021 1021 1021 1021 1021 
1021 1021 1021 1021 1021 1021 1021 1021 1021 
1021 1021 1021 1021 1021 1021 1021 1021 1021 
1021 1021 1021 1021 1021 1021 1021 1021 1021 
1021 1021 1021 1021 1021 1021 1021 1021 1021 
1021 1021 1021 1021 1021 1021 1021 1021 1021 
1021 1021 1021 1021 1021 1021 1021 1021 1021 
1021 1021 1021 1021 1021 1021 1021 1021 1021 
1021 1021 1021 1021 1021 1021 1021 1021 1021 
1021 1021 1021 1021 1021 1021 1021 1021 1021 
1021 1021 1021 1021 1021 1021 1021 1021 1021 
1021 1021 1021 1021 1021 1021 1021 1021 1021 
1021 1021 1021 1021 1021 1021 1021 1021 1021 
1021 1021 1021 1021 1021 1021 1021 1021 1021 
1021 1021 1021 1021 1021 1021 1021 1021 1021 
1021 1021 1021 1021 1021 1021 1021 1021 1021 
1021 1021 1021 1021 1021 1021 1021 1021 1021 
1021 1021 1021 1021 1021 1021 1021 1021 1021 
1021 1021 1021 1021 1021 1021 1021 1021 1021 
1021 1021 1021 1021 1021 1021 1021 1021 1021 
1021 1021 1021 1021 1021 1021 1021 1021 1021 
1021 1021 1021 1021 1021 1021 1021 1021 1021 
1021 1021 1021 1021 1021 1021 1021 1021 1021 
1021 1021 1021 1021 1021 1021 1021 1021 1021 
1021 1021 1021 1021 1021 1021 1021 1021 1021 
1021 1021 1021 1021 1021 1021 1021 1021 1021 
1021 1021 1021 1021 1021 1021 1021 1021 1021 
1021 1021 1021 1021 1021 1021 1021 1021 1021 
1021 1021 1021 1021 1021 1021 1021 1021 1021 
1021 1021 1021 1021 1021 1021 1021 1021 1021 
1021 1021 1021 1021 1021 1021 1021 1021 1021 
1021 1021 1021 1021 1021 1021 1021 1021 1021 
1021 1021 1021 1021 1021 1021 1021 1021 1021 
1021 1021 1021 1021 1021 1021 1021 1021 1021 
1021 1021 1021 1021 1021 1021 1021 1021 1021 
1021 1021 1021 1021 1021 1021 1021 1021 1021 
1021 1021 1021 1021 1021 1021 1021 1021 1021 
1021 1021 1021 1021 1021 1021 1021 1021 1021 
1021 1021 1021 1021 1021 1021 1021 1021 1021 
1021 1021 1021 1021 1021 1021 1021 1021 1021 
1021 1021 1021 1021 1021 1021 1021 1021 1021 
1021 1021 1021 1021 1021 1021 1021 1021 1021 
1021 1021 1021 1021 1021 1021 1021 1021 1021 
1021 1021 1021 1021 1021 1021 1021 1021 1021 
1021 1021 1021 1021 1021 1021 1021 1021 1021 
1021 1021 1021 1021 1021 1021 1021 1021 1021 
1021 1021 1021 1021 1021 1021 1021 1021 1021 
1021 1021 1021 1021 1021 1021 1021 1021 1021 
1021 1021 1021 1021 1021 1021 1021 1021 1021 
1021 1021 1021 1021 1021 1021 1021 1021 1021 
1021 1021 1021 1021 1021 1021 1021 1021 1021 
1021 1021 1021 1021 1021 1021 1021 1021 1021 
1021 1021 1021 1021 1021 1021 1021 1021 1021 
1021 1021 1021 1021 1021 1021 1021 1021 1021 
1021 1021 1021 1021 1021 1021 1021 1021 1021 
1021 1021 1021 1021 1021 1021 1021 1021 1021 
1021 1021 1021 1021 1021 1021 1021 1021 1021 
1021 1021 1021 1021 1021 1021 1021 1021 1021 
1021 1021 1021 1021 1021 1021 1021 1021 1021 
1021 1021 1021 1021 1021 1021 1021 1021 1021 
1021 1021 1021 1021 1021 1021 1021 1021 1021 
1021 1021 1021 1021 1021 1021 1021 1021 1021 
1021 1021 1021 1021 1021 1021 1021 1021 1021 
1021 1021 1021 1021 1021 1021 1021 1021 1021 
1021 1021 1021 1021 1021 1021 1021 1021 1021 
1021 1021 1021 1021 1021 1021 1021 1021 1021 
1021 1021 1021 1021 1021 1021 1021 1021 1021 
1021 1021 1021 1021 1021 1021 1021 1021 1021 
1021 1021 1021 1021 1021 1021 1021 1021 1021 
1021 1021 1021 1021 1021 1021 1021 1021 1021 
1021 1021 1021 1021 1021 1021 1021 1021 1021 
1021 1021 1021 1021 1021 1021 1021 1021 1021 
1021 1021 1021 1021 1021 1021 1021 1021 1021 
1021 1021 1021 1021 1021 1021 1021 1021 1021 
1021 1021 1021 1021 1021 1021 1021 1021 1021 
1021 1021 1021 1021 1021 1021 1021 1021 1021 
1021 1021 1021 1021 1021 1021 1021 1021 1021 
1021 1021 1021 1021 1021 1021 1021 1021 1021 
1021 1021 1021 1021 1021 1021 1021 1021 1021 
1021 1021 1021 1021 1021 1021 1021 1021 1021 
1021 1021 1021 1021 1021 1021 1021 1021 1021 
1021 1021 1021 1021 1021 1021 1021 1021 1021 
1021 1021 1021 1021 1021 1021 1021 1021 1021 
1021 1021 1021 1021 1021 1021 1021 1021 1021 
1021 1021 1021 1021 1021 1021 1021 1021 1021 
1021 1021 1021 1021 1021 1021 1021 1021 1021 
1021 1021 1021 1021 1021 1021 1021 1021 1021 
1021 1021 1021 1021 1021 1021 1021 1021 1021 
1021 1021 1021 1021 1021 1021 1021 1021 1021 
1021 1021 1021 1021 1021 1021 1021 1021 1021 
1021 1021 1021 1021 1021 1021 1021 1021 1021 
1021 1021 1021 1021 1021 1021 1021 1021 1021 
1021 1021 1021 1021 1021 1021 1021 1021 1021 
1021 1021 1021 1021 1021 1021 1021 1021 1021 
1021 1021 1021 1021 1021 1021 1021 1021 1021 
1021 1021 1021 1021 1021 1021 1021 1021 1021 
1021 1021 1021 1021 1021 1021 1021 1021 1021 
1021 1021 1021 1021 1021 1021 1021 1021 1021 
1021 1021 1021 1021 1021 1021 1021 1021 1021 
1021 1021 1021 1021 1021 1021 1021 1021 1021 
1021 1021 1021 1021 1021 1021 1021 1021 1021 
1021 1021 1021 1021 1021 1021 1021 1021 1021 
1021 1021 1021 1021 1021 1021 1021 1021 1021 
1021 1021 1021 1021 1021 1021 1021 1021 1021 
1021 1021 1021 1021 1021 1021 1021 1021 1021 
1021 1021 1021 1021 1021 1021 1021 1021 1021 
1021 1021 1021 1021 1021 1021 1021 1021 1021 
1021 1021 1021 1021 1021 1021 1021 1021 1021 
1021 1021 1021 1021 1021 1021 1021 1021 1021 
1021 1021 1021 1021 1021 1021 1021 1021 1021 
1021 1021 1021 1021 1021 1021 1021 1021 1021 
1021 1021 1021 1021 1021 1021 1021 1021 1021 
1021 1021 1021 1021 1021 1021 1021 1021 1021 
1021 1021 1021 1021 1021 1021 1021 1021 1021 
1021 1021 1021 1021 1021 1021 1021 1021 1021 
1021 1021 1021 1021 1021 1021 1021 1021 1021 
1021 1021 1021 1021 1021 1021 1021 1021 1021 
1021 1021 1021 1021 1021 1021 1021 1021 1021 
1021 1021 1021 1021 1021 1021 1021 1021 1021 
1021 1021 1021 1021 1021 1021 1021 1021 1021 
1021 1021 1021 1021 1021 1021 1021 1021 1021 
1021 1021 1021 1021 1021 1021 1021 1021 1021 
1021 1021 1021 1021 1021 1021 1021 1021 1021 
1021 1021 1021 1021 1021 1021 1021 1021 1021 
1021 1021 1021 1021 1021 1021 1021 1021 1021 
1021 1021 1021 1021 1021 1021 1021 1021 1021 
1021 1021 1021 1021 1021 1021 1021 1021 1021 
1021 1021 1021 1021 1021 1021 1021 1021 1021 
1021 1021 1021 1021 1021 1021 1021 1021 1021 
1021 1021 1021 1021 1021 1021 1021 1021 1021 
1021 1021 1021 1021 1021 1021 1021 1021 1021 
1021 1021 1021 1021 1021 1021 1021 1021 1021 
1021 1021 1021 1021 1021 1021 1021 1021 1021 
1021 1021 1021 1021 1021 1021 1021 1021 1021 
1021 1021 1021 1021 1021 1021 1021 1021 1021 
1021 1021 1021 1021 1021 1021 1021 1021 1021 
1021 1021 1021 1021 1021 1021 1021 1021 1021 
1021 1021 1021 1021 1021 1021 1021 1021 1021 
1021 1021 1021 1021 1021 1021 1021 1021 1021 
1021 1021 1021 1021 1021 1021 1021 1021 1021 
1021 1021 1021 1021 1021 1021 1021 1021 1021 
1021 1021 1021 1021 1021 1021 1021 1021 1021 
1021 1021 1021 1021 1021 1021 1021 1021 1021 
1021 1021 1021 1021 1021 1021 1021 1021 1021 
1021 1021 1021 1021 1021 1021 1021 1021 1021 
1021 1021 1021 1021 1021 1021 1021 1021 1021 
1021 1021 1021 1021 1021 1021 1021 1021 1021 
1021 1021 1021 1021 1021 1021 1021 1021 1021 
1021 1021 1021 1021 1021 1021 1021 1021 1021 
1021 1021 1021 1021 1021 1021 1021 1021 1021 
1021 1021 1021 1021 1021 1021 1021 1021 1021 
1021 1021 1021 1021 1021 1021 1021 1021 1021 
1021 1021 1021 1021 1021 1021 1021 1021 1021 
1021 1021 1021 1021 1021 1021 1021 1021 1021 
1021 1021 1021 1021 1021 1021 1021 1021 1021 
1021 1021 1021 1021 1021 1021 1021 1021 1021 
1021 1021 1021 1021 1021 1021 1021 1021 1021 
1021 1021 1021 1021 1021 1021 1021 1021 1021 
1021 1021 1021 1021 1021 1021 1021 1021 1021 
1021 1021 1021 1021 1021 1021 1021 1021 1021 
1021 1021 1021 1021 1021 1021 1021 1021 1021 
1021 1021 1021 1021 1021 1021 1021 1021 1021 
1021 1021 1021 1021 1021 1021 1021 1021 1021 
1021 1021 1021 1021 1021 1021 1021 1021 1021 
1021 1021 1021 1021 1021 1021 1021 1021 1021 
1021 1021 1021 1021 1021 1021 1021 1021 1021 
1021 1021 1021 1021 1021 1021 1021 1021 1021 
1021 1021 1021 1021 1021 1021 1021 1021 1021 
1021 1021 1021 1021 1021 1021 1021 1021 1021 
1021 1021 1021 1021 1021 1021 1021 1021 1021 
1021 1021 1021 1021 1021 1021 1021 1021 1021 
1021 1021 1021 1021 1021 1021 1021 1021 1021 
1021 1021 1021 1021 1021 1021 1021 1021 1021 
1021 1021 1021 1021 1021 1021 1021 1021 1021 
1021 1021 1021 1021 1021 1021 1021 1021 1021 
1021 1021 1021 1021 1021 1021 1021 1021 1021 
1021 1021 1021 1021 1021 1021 1021 1021 1021 
1021 1021 1021 1021 1021 1021 1021 1021 1021 
1021 1021 1021 1021 1021 1021 1021 1021 1021 
1021 1021 1021 1021 1021 1021 1021 1021 1021 
1021 1021 1021 1021 1021 1021 1021 1021 1021 
1021 1021 1021 1021 1021 1021 1021 1021 1021 
1021 1021 1021 1021 1021 1021 1021 1021 1021 
1021 1021 1021 1021 1021 1021 1021 1021 1021 
1021 1021 1021 1021 1021 1021 1021 1021 1021 
1021 1021 1021 1021 1021 1021 1021 1021 1021 
1021 1021 1021 1021 1021 1021 1021 1021 1021 
1021 1021 1021 1021 1021 1021 1021 1021 1021 
1021 1021 1021 1021 1021 1021 1021 1021 1021 
1021 1021 1021 1021 1021 1021 1021 1021 1021 
1021 1021 1021 1021 1021 1021 1021 1021 1021 
1021 1021 1021 1021 1021 1021 1021 1021 1021 
1021 1021 1021 1021 1021 1021 1021 1021 1021 
1021 1021 1021 1021 1021 1021 1021 1021 1021 
1021 1021 1021 1021 1021 1021 1021 1021 1021 
1021 1021 1021 1021 1021 1021 1021 1021 1021 
1021 1021 1021 1021 1021 1021 1021 1021 1021 
1021 1021 1021 1021 1021 1021 1021 1021 1021 
1021 1021 1021 1021 1021 1021 1021 1021 1021 
1021 1021 1021 1021 1021 1021 1021 1021 1021 
1021 1021 1021 1021 1021 1021 1021 1021 1021 
1021 1021 1021 1021 1021 1021 1021 1021 1021 
1021 1021 1021 1021 1021 1021 1021 1021 1021 
1021 1021 1021 1021 1021 1021 1021 1021 1021 
1021 1021 1021 1021 1021 1021 1021 1021 1021 
1021 1021 1021 1021 1021 1021 1021 1021 1021 
1021 1021 1021 1021 1021 1021 1021 1021 1021 
1021 1021 1021 1021 1021 1021 1021 1021 1021 
1021 1021 1021 1021 1021 1021 1021 1021 1021 
1021 1021 1021 1021 1021 1021 1021 1021 1021 
1021 1021 1021 1021 1021 1021 1021 1021 1021 
1021 1021 1021 1021 1021 1021 1021 1021 1021 
1021 1021 1021 1021 1021 1021 1021 1021 1021 
1021 1021 1021 1021 1021 1021 1021 1021 1021 
1021 1021 1021 1021 1021 1021 1021 1021 1021 
1021 1021 1021 1021 1021 1021 1021 1021 1021 
1021 1021 1021 1021 1021 1021 1021 1021 1021 
1021 1021 1021 1021 1021 1021 1021 1021 1021 
1021 1021 1021 1021 1021 1021 1021 1021 1021 
1021 1021 1021 1021 1021 1021 1021 1021 1021 
1021 1021 1021 1021 1021 1021 1021 1021 1021 
1021 1021 1021 1021 1021 1021 1021 1021 1021 
1021 1021 1021 1021 1021 1021 1021 1021 1021 
1021 1021 1021 1021 1021 1021 1021 1021 1021 
1021 1021 1021 1021 1021 1021 1021 1021 1021 
1021 1021 1021 1021 1021 1021 1021 1021 1021 
1021 1021 1021 1021 1021 1021 1021 1021 1021 
1021 1021 1021 1021 1021 1021 1021 1021 1021 
1021 1021 1021 1021 1021 1021 1021 1021 1021 
1021 1021 1021 1021 1021 1021 1021 1021 1021 
1021 1021 1021 1021 1021 1021 1021 1021 1021 
1021 1021 1021 1021 1021 1021 1021 1021 1021 
1021 1021 1021 1021 1021 1021 1021 1021 1021 
1021 1021 1021 1021 1021 1021 1021 1021 1021 
1021 1021 1021 1021 1021 1021 1021 1021 1021 
1021 1021 1021 1021 1021 1021 1021 1021 1021 
1021 1021 1021 1021 1021 1021 1021 1021 1021 
1021 1021 1021 1021 1021 1021 1021 1021 1021 
1021 1021 1021 1021 1021 1021 1021 1021 1021 
1021 1021 1021 1021 1021 1021 1021 1021 1021 
1021 1021 1021 1021 1021 1021 1021 1021 1021 
1021 1021 1021 1021 1021 1021 1021 1021 1021 
1021 1021 1021 1021 1021 1021 1021 1021 1021 
1021 1021 1021 1021 1021 1021 1021 1021 1021 
1021 1021 1021 1021 1021 1021 1021 1021 1021 
1021 1021 1021 1021 1021 1021 1021 1021 1021 
1021 1021 1021 1021 1021 1021 1021 1021 1021 
1021 1021 1021 1021 1021 1021 1021 1021 1021 
1021 1021 1021 1021 1021 1021 1021 1021 1021 
1021 1021 1021 1021 1021 1021 1021 1021 1021 
1021 1021 1021 1021 1021 1021 1021 1021 1021 
1021 1021 1021 1021 1021 1021 1021 1021 1021 
1021 1021 1021 1021 1021 1021 1021 1021 1021 
1021 1021 1021 1021 1021 1021 1021 1021 1021 
1021 1021 1021 1021 1021 1021 1021 1021 1021 
1021 1021 1021 1021 1021 1021 1021 1021 1021 
1021 1021 1021 1021 1021 1021 1021 1021 1021 
1021 1021 1021 1021 1021 1021 1021 1021 1021 
1021 1021 1021 1021 1021 1021 1021 1021 1021 
1021 1021 1021 1021 1021 1021 1021 1021 1021 
1021 1021 1021 1021 1021 1021 1021 1021 1021 
1021 1021 1021 1021 1021 1021 1021 1021 1021 
1021 1021 1021 1021 1021 1021 1021 1021 1021 
1021 1021 1021 1021 1021 1021 1021 1021 1021 
1021 1021 1021 1021 1021 1021 1021 1021 1021 
1021 1021 1021 1021 1021 1021 1021 1021 1021 
1021 1021 1021 1021 1021 1021 1021 1021 1021 
1021 1021 1021 1021 1021 1021 1021 1021 1021 
1021 1021 1021 1021 1021 1021 1021 1021 1021 
1021 1021 1021 1021 1021 1021 1021 1021 1021 
1021 1021 1021 1021 1021 1021 1021 1021 1021 
1021 1021 1021 1021 1021 1021 1021 1021 1021 
1021 1021 1021 1021 1021 1021 1021 1021 1021 
1021 1021 1021 1021 1021 1021 1021 1021 1021 
1021 1021 1021 1021 1021 1021 1021 1021 1021 
1021 1021 1021 1021 1021 1021 1021 1021 1021 
1021 1021 1021 1021 1021 1021 1021 1021 1021 
1021 1021 1021 1021 1021 1021 1021 1021 1021 
1021 1021 1021 1021 1021 1021 1021 1021 1021 
1021 1021 1021 1021 1021 1021 1021 1021 1021 
1021 1021 1021 1021 1021 1021 1021 1021 1021 
1021 1021 1021 1021 1021 1021 1021 1021 1021 
1021 1021 1021 1021 1021 1021 1021 1021 1021 
1021 1021 1021 1021 1021 1021 1021 1021 1021 
1021 1021 1021 1021 1021 1021 1021 1021 1021 
1021 1021 1021 1021 1021 1021 1021 1021 1021 
1021 1021 1021 1021 1021 1021 1021 1021 1021 
1021 1021 1021 1021 1021 1021 1021 1021 1021 
1021 1021 1021 1021 1021 1021 1021 1021 1021 
1021 1021 1021 1021 1021 1021 1021 1021 1021 
1021 1021 1021 1021 1021 1021 1021 1021 1021 
1021 1021 1021 1021 1021 1021 1021 1021 1021 
1021 1021 1021 1021 1021 1021 1021 1021 1021 
1021 1021 1021 1021 1021 1021 1021 1021 1021 
1021 1021 1021 1021 1021 1021 1021 1021 1021 
1021 1021 1021 1021 1021 1021 1021 1021 1021 
1021 1021 1021 1021 1021 1021 1021 1021 1021 
1021 1021 1021 1021 1021 1021 1021 1021 1021 
1021 1021 1021 1021 1021 1021 1021 1021 1021 
1021 1021 1021 1021 1021 1021 1021 1021 1021 
1021 1021 1021 1021 1021 1021 1021 1021 1021 
1021 1021 1021 1021 1021 1021 1021 1021 1021 
1021 1021 1021 1021 1021 1021 1021 1021 1021 
1021 1021 1021 1021 1021 1021 1021 1021 1021 
1021 1021 1021 1021 1021 1021 1021 1021 1021 
1021 1021 1021 1021 1021 1021 1021 1021 1021 
1021 1021 1021 1021 1021 1021 1021 1021 1021 
1021 1021 1021 1021 1021 1021 1021 1021 1021 
1021 1021 1021 1021 1021 1021 1021 1021 1021 
1021 1021 1021 1021 1021 1021 1021 1021 1021 
1021 1021 1021 1021 1021 1021 1021 1021 1021 
1021 1021 1021 1021 1021 1021 1021 1021 1021 
1021 1021 1021 1021 1021 1021 1021 1021 1021 
1021 1021 1021 1021 1021 1021 1021 1021 1021 
1021 1021 1021 1021 1021 1021 1021 1021 1021 
1021 1021 1021 1021 1021 1021 1021 1021 1021 
1021 1021 1021 1021 1021 1021 1021 1021 1021 
1021 1021 1021 1021 1021 1021 1021 1021 1021 
1021 1021 1021 1021 1021 1021 1021 1021 1021 
1021 1021 1021 1021 1021 1021 1021 1021 1021 
1021 1021 1021 1021 1021 1021 1021 1021 1021 
1021 1021 1021 1021 1021 1021 1021 1021 1021 
1021 1021 1021 1021 1021 1021 1021 1021 1021 
1021 1021 1021 1021 1021 1021 1021 1021 1021 
1021 1021 1021 1021 1021 1021 1021 1021 1021 
1021 1021 1021 1021 1021 1021 1021 1021 1021 
1021 1021 1021 1021 1021 1021 1021 1021 1021 
1021 1021 1021 1021 1021 1021 1021 1021 1021 
1021 1021 1021 1021 1021 1021 1021 1021 1021 
1021 1021 1021 1021 1021 1021 1021 1021 1021 
1021 1021 1021 1021 1021 1021 1021 1021 1021 
1021 1021 1021 1021 1021 1021 1021 1021 1021 
1021 1021 1021 1021 1021 1021 1021 1021 1021 
1021 1021 1021 1021 1021 1021 1021 1021 1021 
1021 1021 1021 1021 1021 1021 1021 1021 1021 
1021 1021 1021 1021 1021 1021 1021 1021 1021 
1021 1021 1021 1021 1021 1021 1021 1021 1021 
1021 1021 1021 1021 1021 1021 1021 1021 1021 
1021 1021 1021 1021 1021 1021 1021 1021 1021 
1021 1021 1021 1021 1021 1021 1021 1021 1021 
1021 1021 1021 1021 1021 1021 1021 1021 1021 
1021 1021 1021 1021 1021 1021 1021 1021 1021 
1021 1021 1021 1021 1021 1021 1021 1021 1021 
1021 1021 1021 1021 1021 1021 1021 1021 1021 
1021 1021 1021 1021 1021 1021 1021 1021 1021 
1021 1021 1021 1021 1021 1021 1021 1021 1021 
1021 1021 1021 1021 1021 1021 1021 1021 1021 
1021 1021 1021 1021 1021 1021 1021 1021 1021 
1021 1021 1021 1021 1021 1021 1021 1021 1021 
1021 1021 1021 1021 1021 1021 1021 1021 1021 
1021 1021 1021 1021 1021 1021 1021 1021 1021 
1021 1021 1021 1021 1021 1021 1021 1021 1021 
1021 1021 1021 1021 1021 1021 1021 1021 1021 
1021 1021 1021 1021 1021 1021 1021 1021 1021 
1021 1021 1021 1021 1021 1021 1021 1021 1021 
1021 1021 1021 1021 1021 1021 1021 1021 1021 
1021 1021 1021 1021 1021 1021 1021 1021 1021 
1021 1021 1021 1021 1021 1021 1021 1021 1021 
1021 1021 1021 1021 1021 1021 1021 1021 1021 
1021 1021 1021 1021 1021 1021 1021 1021 1021 
1021 1021 1021 1021 1021 1021 1021 1021 1021 
1021 1021 1021 1021 1021 1021 1021 1021 1021 
1021 1021 1021 1021 1021 1021 1021 1021 1021 
1021 1021 1021 1021 1021 1021 1021 1021 1021 
1021 1021 1021 1021 1021 1021 1021 1021 1021 
1021 1021 1021 1021 1021 1021 1021 1021 1021 
1021 1021 1021 1021 1021 1021 1021 1021 1021 
1021 1021 1021 1021 1021 1021 1021 1021 1021 
1021 1021 1021 1021 1021 1021 1021 1021 1021 
1021 1021 1021 1021 1021 1021 1021 1021 1021 
1021 1021 1021 1021 1021 1021 1021 1021 1021 
1021 1021 1021 1021 1021 1021 1021 1021 1021 
1021 1021 1021 1021 1021 1021 1021 1021 1021 
1021 1021 1021 1021 1021 1021 1021 1021 1021 
1021 1021 1021 1021 1021 1021 1021 1021 1021 
1021 1021 1021 1021 1021 1021 1021 1021 1021 
1021 1021 1021 1021 1021 1021 1021 1021 1021 
1021 1021 1021 1021 1021 1021 1021 1021 1021 
1021 1021 1021 1021 1021 1021 1021 1021 1021 
1021 1021 1021 1021 1021 1021 1021 1021 1021 
1021 1021 1021 1021 1021 1021 1021 1021 1021 
1021 1021 1021 1021 1021 1021 1021 1021 1021 
1021 1021 1021 1021 1021 1021 1021 1021 1021 
1021 1021 1021 1021 1021 1021 1021 1021 1021 
1021 1021 1021 1021 1021 1021 1021 1021 1021 
1021 1021 1021 1021 1021 1021 1021 1021 1021 
1021 1021 1021 1021 1021 1021 1021 1021 1021 
1021 1021 1021 1021 1021 1021 1021 1021 1021 
1021 1021 1021 1021 1021 1021 1021 1021 1021 
1021 1021 1021 1021 1021 1021 1021 1021 1021 
1021 1021 1021 1021 1021 1021 1021 1021 1021 
1021 1021 1021 1021 1021 1021 1021 1021 1021 
1021 1021 1021 1021 1021 1021 1021 1021 1021 
1021 1021 1021 1021 1021 1021 1021 1021 1021 
1021 1021 1021 1021 1021 1021 1021 1021 1021 
1021 1021 1021 1021 1021 1021 1021 1021 1021 
1021 1021 1021 1021 1021 1021 1021 1021 1021 
1021 1021 1021 1021 1021 1021 1021 1021 1021 
1021 1021 1021 1021 1021 1021 1021 1021 1021 
1021 1021 1021 1021 1021 1021 1021 1021 1021 
1021 1021 1021 1021 1021 1021 1021 1021 1021 
1021 1021 1021 1021 1021 1021 1021 1021 1021 
1021 1021 1021 1021 1021 1021 1021 1021 1021 
1021 1021 1021 1021 1021 1021 1021 1021 1021 
1021 1021 1021 1021 1021 1021 1021 1021 1021 
1021 1021 1021 1021 1021 1021 1021 1021 1021 
1021 1021 1021 1021 1021 1021 1021 1021 1021 
1021 1021 1021 1021 1021 1021 1021 1021 1021 
1021 1021 1021 1021 1021 1021 1021 1021 1021 
1021 1021 1021 1021 1021 1021 1021 1021 1021 
1021 1021 1021 1021 1021 1021 1021 1021 1021 
1021 1021 1021 1021 1021 1021 1021 1021 1021 
1021 1021 1021 1021 1021 1021 1021 1021 1021 
1021 1021 1021 1021 1021 1021 1021 1021 1021 
1021 1021 1021 1021 1021 1021 1021 1021 1021 
1021 1021 1021 1021 1021 1021 1021 1021 1021 
1021 1021 1021 1021 1021 1021 1021 1021 1021 
1021 1021 1021 1021 1021 1021 1021 1021 1021 
1021 1021 1021 1021 1021 1021 1021 1021 1021 
1021 1021 1021 1021 1021 1021 1021 1021 1021 
1021 1021 1021 1021 1021 1021 1021 1021 1021 
1021 1021 1021 1021 1021 1021 1021 1021 1021 
1021 1021 1021 1021 1021 1021 1021 1021 1021 
1021 1021 1021 1021 1021 1021 1021 1021 1021 
1021 1021 1021 1021 1021 1021 1021 1021 1021 
1021 1021 1021 1021 1021 1021 1021 1021 1021 
1021 1021 1021 1021 1021 1021 1021 1021 1021 
1021 1021 1021 1021 1021 1021 1021 1021 1021 
1021 1021 1021 1021 1021 1021 1021 1021 1021 
1021 1021 1021 1021 1021 1021 1021 1021 1021 
1021 1021 1021 1021 1021 1021 1021 1021 1021 