# vtk DataFile Version 4.2
vtk output
ASCII
DATASET POLYDATA
POINTS 10010 float
-31.9459 40.3444 54.877 -32.346 40.8638 54.2045 -32.7201 40.2008 54.5731 
-31.2515 40.3113 54.853 -31.3214 40.8419 54.4199 -30.7152 40.5361 54.4054 
-32.4553 39.4684 54.988 -32.9997 39.4495 54.6762 -31.6319 39.4303 54.9323 
-30.802 39.8205 54.5779 -33.0574 38.737 54.81 -33.4102 39.0835 54.3978 
-33.5813 38.3025 54.2175 -32.3882 38.5872 54.8892 -31.7146 38.5706 54.6568 
-31.1103 39.0266 54.5306 -32.9605 37.9808 54.3684 -32.1171 38.119 54.2898 
-33.1463 40.5141 54.0084 -33.2554 40.8871 53.5697 -33.7585 40.2115 53.5173 
-32.4627 41.1742 53.5281 -31.5243 41.1681 53.6542 -30.0259 40.1674 53.9933 
-30.347 41.0201 53.4678 -29.5854 40.5614 53.3848 -33.3368 39.8241 54.1254 
-33.8509 39.2132 53.6805 -30.3958 39.2278 54.1907 -29.3216 40.0487 53.5977 
-29.5471 39.308 53.8039 -28.9483 39.586 53.1767 -33.98 38.2947 53.5464 
-31.181 38.4774 54.1828 -30.3309 38.5671 53.8449 -29.7995 38.6084 53.6031 
-29.434 38.7864 53.2187 -33.3232 37.3282 53.9701 -33.6945 37.3271 53.5831 
-32.9102 37.3907 53.6304 -32.4327 37.7799 53.5123 -31.4415 38.1442 53.4195 
-30.474 38.3177 53.4458 -33.3866 36.6107 53.7123 -33.4497 36.5113 53.3559 
-33.0864 36.7135 53.4642 -33.2785 36.2755 53.4843 -34.1117 41.5348 52.7696 
-34.3585 41.7884 52.2851 -34.6045 41.2839 52.5324 -33.2188 41.4168 53.0237 
-33.6224 42.0294 52.3434 -32.0188 41.5023 53.0308 -32.5613 41.9894 52.5264 
-30.9844 41.4996 52.9863 -31.4983 41.9763 52.4925 -30.3333 41.506 52.8536 
-30.5367 41.9177 52.4515 -29.8706 41.5668 52.5444 -34.1525 40.8008 53.0039 
-34.8549 40.4178 52.4084 -29.1295 40.3348 53.091 -29.4216 40.9356 52.7615 
-28.8847 40.5463 52.3789 -34.3448 39.7576 52.9889 -34.8594 39.2442 52.4986 
-28.5841 39.6365 52.3294 -34.3455 38.7292 53.0176 -34.8378 38.191 52.5362 
-30.9526 38.4706 52.9247 -31.5677 38.2692 52.3181 -31.1068 38.66 52.3948 
-30.3655 38.6894 52.7204 -30.1504 38.5434 53.208 -29.227 38.4313 52.8623 
-29.7916 38.4302 52.5343 -28.7677 38.7347 52.723 -34.2243 37.5983 52.965 
-34.7425 37.2671 52.5763 -32.7463 37.2117 52.8376 -32.1045 37.7957 52.5236 
-29.0984 38.1204 52.2476 -34.273 36.6626 52.6461 -34.6057 36.6817 52.328 
-33.4566 36.8387 52.4574 -34.0359 36.3618 52.4957 -33.1857 36.5246 53.0915 
-34.3151 36.2821 52.4857 -33.001 42.5 51.9605 -33.3065 42.7549 51.2982 
-33.6479 42.4522 51.6183 -32.0424 42.49 52.0145 -32.5933 42.9823 51.3314 
-30.999 42.4768 51.9747 -31.5671 42.9935 51.5058 -29.9406 42.3164 51.9429 
-30.5459 43.0061 51.4919 -29.2103 42.2681 51.7065 -29.5909 42.9491 51.4646 
-28.9129 42.5781 51.3916 -34.2115 42.0383 51.4185 -34.833 41.3492 51.8022 
-29.2716 41.5567 52.0996 -28.7289 41.5881 51.5696 -35.2607 40.6089 51.839 
-35.3062 40.9435 51.1627 -35.5612 40.2891 51.4825 -28.5225 40.5166 51.6265 
-35.3297 39.7813 51.9981 -35.6945 39.499 51.4152 -28.2945 39.8283 51.6583 
-28.2297 39.059 51.9902 -27.9433 39.6132 51.2201 -35.3468 38.7544 52.0091 
-35.8604 38.3458 51.283 -31.2778 38.5077 52.0403 -30.6852 38.5019 52.0885 
-28.379 38.362 52.0973 -27.9216 38.6939 51.3922 -35.1855 37.5452 51.9687 
-35.6735 37.2528 51.2213 -32.425 37.3594 52.0204 -31.8965 37.7396 51.4952 
-31.2039 38.2005 51.444 -30.0265 38.062 51.5956 -29.0635 37.8646 51.3788 
-28.3535 38.0684 51.489 -35.0951 36.9548 51.4697 -34.2336 36.7573 51.7273 
-34.1636 36.4442 52.2704 -33.0411 36.7674 51.2677 -32.3963 37.1326 51.3583 
-31.1405 44.2682 50.8311 -31.2933 44.8686 50.511 -31.8532 44.4852 50.5168 
-30.0084 44.3911 50.8579 -30.601 45.006 50.4979 -28.9719 44.3701 50.874 
-29.5692 45.0603 50.5206 -28.2335 44.2705 50.7805 -28.5832 44.9694 50.5383 
-27.893 44.5695 50.482 -32.0297 43.6422 50.9511 -32.4261 44.05 50.395 
-32.7157 43.5332 50.4549 -31.1613 43.5006 51.1597 -30.287 43.6434 51.1299 
-29.1801 43.4636 51.1171 -28.3469 43.4837 50.8782 -27.7477 43.6002 50.4366 
-33.2016 42.974 50.3769 -33.7712 42.4989 50.7715 -28.3764 42.381 50.9775 
-27.9181 42.6789 50.5092 -34.2468 41.9785 50.2152 -34.7754 41.5171 50.7355 
-28.2446 41.2013 50.9653 -27.9008 41.7516 50.3304 -35.4364 40.9947 50.1656 
-35.7893 40.2861 50.7017 -28.1772 40.3636 51.1366 -27.8764 40.5783 50.4294 
-36.0231 39.3323 50.7849 -27.7368 39.455 50.454 -36.2324 38.6657 50.7954 
-36.3721 39.1038 50.3549 -36.5636 38.3716 50.1984 -31.1629 38.4077 50.7391 
-31.7134 38.2972 50.5771 -31.1077 38.941 50.2332 -30.7384 38.5534 50.3651 
-27.85 38.5558 50.5098 -36.2758 38.0894 50.7128 -36.0606 37.3526 50.4798 
-32.0399 37.4718 50.7159 -30.5118 38.1438 50.7858 -29.3732 37.779 50.376 
-28.376 38.0063 50.5178 -35.2134 36.4403 50.987 -35.7021 36.5627 50.4334 
-34.5073 36.4288 51.2042 -33.6265 36.2191 50.9478 -32.8689 36.6226 50.4109 
-32.4338 37.0896 50.5361 -35.0919 35.8926 50.347 -34.5614 35.4183 50.3425 
-34.4424 35.7217 50.7759 -33.8823 35.5203 50.5979 -33.4299 35.9385 50.1848 
-34.2713 35.2525 50.5273 -30.1362 46.2833 49.8304 -30.2712 46.9255 49.5036 
-30.8289 46.5138 49.5053 -29.0743 46.265 49.7711 -29.6513 46.9484 49.4773 
-28.8738 46.6937 49.4208 -31.2249 45.4524 50.0239 -31.4121 46.0504 49.3559 
-31.8308 45.4678 49.3627 -30.1731 45.5476 50.1803 -29.2583 45.6588 50.1438 
-28.3086 46.1671 49.5818 -28.078 45.4249 50.0453 -27.2217 45.1913 49.8151 
-27.5426 45.8905 49.5384 -26.9378 45.6447 49.2554 -32.1639 44.7146 49.9562 
-32.2964 44.9084 49.1595 -32.6224 44.1908 49.7139 -27.3491 44.3503 50.0463 
-26.8679 44.7187 49.4213 -32.8892 43.5965 49.4788 -27.34 43.3872 49.8692 
-26.7914 43.6096 49.2342 -33.2333 42.936 49.1859 -33.7361 42.428 49.7057 
-27.5959 42.5433 49.8368 -27.2119 42.8924 49.3715 -34.4023 41.9017 49.1498 
-34.8186 41.4764 49.7509 -27.6762 41.3887 49.4659 -36.0984 40.4844 49.9293 
-36.2142 40.8415 49.4939 -36.7092 40.1536 49.4889 -35.5081 41.2127 49.4668 
-27.7449 40.3097 49.6122 -36.2927 39.8163 50.0851 -36.7991 39.1984 49.6583 
-31.4851 39.2892 49.9361 -31.806 39.4296 49.5356 -31.1839 39.8212 49.2102 
-30.7558 39.5672 49.5294 -27.7334 39.4397 49.4687 -36.8841 38.2322 49.3178 
-32.121 38.7235 49.8872 -32.5502 38.2621 49.5045 -32.3049 38.9688 49.2089 
-30.4451 38.9669 49.7752 -30.1257 38.2534 50.0492 -29.9446 38.6622 49.2715 
-27.8873 38.5648 49.4432 -36.4071 37.6361 50.1458 -36.6125 37.3712 49.4007 
-32.2835 37.7921 50.0852 -32.6391 37.408 49.5821 -29.6366 37.6379 49.4104 
-29.3132 37.3804 49.8258 -28.9629 37.4437 49.6072 -28.3872 37.8864 49.3671 
-36.0609 36.9117 49.386 -35.8034 36.6345 49.7513 -32.6976 36.6134 49.4502 
-29.2105 37.2078 49.3244 -35.3745 36.1805 49.7594 -34.3303 35.8691 49.6358 
-34.1229 35.4025 50.2723 -33.0125 36.042 49.2974 -29.1496 48.2038 48.7894 
-29.3946 48.8441 48.1893 -29.8944 48.3898 48.6091 -28.6827 48.6534 48.3847 
-30.1991 47.4944 49.0339 -30.331 48.0483 48.5575 -30.8162 47.5514 48.4868 
-29.0976 47.3225 49.1498 -28.178 48.1674 48.3263 -28.1704 47.3905 48.8504 
-27.6511 47.5918 48.3596 -31.1421 46.7583 48.9254 -31.3625 47.0618 48.3001 
-31.6474 46.322 48.552 -28.1892 46.6345 49.2316 -27.3806 47.057 48.5879 
-27.3873 46.4754 49.0277 -26.8927 46.5414 48.3861 -31.9835 45.6039 48.5253 
-26.6271 45.5203 48.4834 -32.3098 45.1403 48.3384 -32.6309 44.4228 48.5808 
-26.5725 44.5045 48.6882 -32.9194 43.561 48.4757 -26.1696 43.9673 48.4373 
-26.2855 43.4572 48.7867 -25.7643 43.3466 48.2266 -37.1336 42.2645 48.7975 
-37.4262 42.8722 48.4462 -37.9117 42.3634 48.5761 -36.059 42.1994 48.7524 
-36.6358 42.9372 48.4602 -35.8498 42.6253 48.383 -33.3453 42.9033 48.413 
-33.7888 42.3829 48.743 -27.2985 42.1697 49.0653 -26.8084 42.6116 48.7823 
-26.2968 42.9803 48.5551 -37.9959 41.5476 48.8198 -38.5216 41.927 48.4503 
-38.8 41.1386 48.5083 -37.2952 41.5324 48.9896 -36.3875 41.4781 49.086 
-35.168 42.0485 48.5951 -35.2952 41.6303 49.0837 -34.4684 42.1277 48.4309 
-27.393 41.4377 48.7749 -26.8166 41.6079 48.2965 -38.1957 40.4603 48.8694 
-38.8463 40.1933 48.5255 -37.2559 40.7746 49.1054 -27.6473 40.4578 48.6481 
-27.258 40.974 48.2753 -38.209 39.5401 48.8034 -38.7362 39.5628 48.513 
-37.4479 39.7415 49.1348 -31.7444 39.5712 48.8026 -31.0864 39.9122 48.2664 
-30.4626 39.8584 48.6925 -30.1693 39.4026 49.1206 -29.9608 39.3766 48.4452 
-27.767 39.3377 48.6033 -38.3906 38.9878 48.3915 -37.674 38.3145 48.4351 
-37.446 38.8053 48.9547 -32.786 38.2425 48.5493 -32.4755 39.0193 48.2572 
-29.8075 38.4488 48.4998 -27.8729 38.4845 48.3061 -37.1713 38.0391 48.6711 
-36.9048 37.2999 48.4741 -32.5884 37.3415 48.5028 -29.7001 37.5084 48.2604 
-28.7206 37.3633 48.8474 -28.2018 37.7334 48.3852 -36.3688 36.5878 48.9358 
-36.5788 36.552 48.4277 -35.9901 36.5215 48.6077 -35.3151 36.796 48.3604 
-35.1749 36.5122 49.1236 -34.5589 36.7301 48.477 -34.2447 36.3483 48.8265 
-33.8532 36.4526 48.1446 -32.2674 36.7908 48.5568 -32.3157 36.3659 48.9043 
-31.9938 36.4967 48.2151 -29.1338 37.0945 48.4801 -36.2426 36.2631 48.3014 
-33.304 36.0341 48.5233 -32.3167 36.1124 48.3836 -30.3761 48.3901 48.1269 
-30.2388 48.9112 47.2947 -30.8861 48.3957 47.5802 -29.1006 49.0775 47.3625 
-28.2459 48.5912 48.045 -28.5116 48.8788 47.7392 -27.8596 48.4847 47.3456 
-31.1154 47.7794 47.903 -31.2883 48.0197 47.481 -31.6786 47.2831 47.5699 
-27.1692 47.3234 48.0902 -27.4319 47.8831 47.6957 -26.9289 47.3593 47.416 
-31.9657 46.2452 47.7256 -26.5608 46.606 47.4246 -32.1638 45.6131 47.835 
-32.3935 45.8716 47.3273 -32.6404 45.1165 47.5673 -26.328 45.8889 47.6626 
-26.2893 45.1272 47.9687 -25.9785 45.689 47.2056 -37.1412 44.3108 47.8363 
-37.2352 44.9531 47.5267 -37.8034 44.5282 47.5045 -36.0598 44.352 47.856 
-36.5921 45.065 47.5231 -35.0853 44.1882 47.7556 -35.6561 44.9454 47.502 
-34.8713 44.5996 47.4077 -32.9109 44.2029 47.6812 -26.2749 44.5334 48.1524 
-25.7631 44.7214 47.4715 -38.2098 43.5714 47.8329 -38.3451 44.0153 47.506 
-38.8419 43.4782 47.4991 -37.3321 43.3998 48.1427 -36.2443 43.4419 48.1019 
-35.2221 43.4397 47.9644 -34.3208 44.0913 47.5027 -34.2201 43.5425 47.7828 
-33.3416 43.4003 47.8969 -33.5606 43.9879 47.4111 -25.2584 43.4582 47.8336 
-25.4396 43.8996 47.7986 -24.9557 43.6068 47.195 -39.0715 42.6829 47.8118 
-39.3499 42.913 47.5114 -39.7308 42.2719 47.4697 -38.2913 42.6543 48.1865 
[...]
CELL_DATA 20052
SCALARS scalars float
LOOKUP_TABLE default
2003 2003 2003 2003 2003 2003 2003 2003 2003 
2003 2003 2003 2003 2003 2003 2003 2003 2003 
2003 2003 2003 2003 2003 2003 2003 2003 2003 
2003 2003 2003 2003 2003 2003 2003 2003 2003 
2003 2003 2003 2003 2003 2003 2003 2003 2003 
2003 2003 2003 2003 2003 2003 2003 2003 2003 
2003 2003 2003 2003 2003 2003 2003 2003 2003 
2003 2003 2003 2003 2003 2003 2003 2003 2003 
2003 2003 2003 2003 2003 2003 2003 2003 2003 
2003 2003 2003 2003 2003 2003 2003 2003 2003 
2003 2003 2003 2003 2003 2003 2003 2003 2003 
2003 2003 2003 2003 2003 2003 2003 2003 2003 
2003 2003 2003 2003 2003 2003 2003 2003 2003 
2003 2003 2003 2003 2003 2003 2003 2003 2003 
2003 2003 2003 2003 2003 2003 2003 2003 2003 
2003 2003 2003 2003 2003 2003 2003 2003 2003 
2003 2003 2003 2003 2003 2003 2003 2003 2003 
2003 2003 2003 2003 2003 2003 2003 2003 2003 
2003 2003 2003 2003 2003 2003 2003 2003 2003 
2003 2003 2003 2003 2003 2003 2003 2003 2003 
2003 2003 2003 2003 2003 2003 2003 2003 2003 
2003 2003 2003 2003 2003 2003 2003 2003 2003 
2003 2003 2003 2003 2003 2003 2003 2003 2003 
2003 2003 2003 2003 2003 2003 2003 2003 2003 
2003 2003 2003 2003 2003 2003 2003 2003 2003 
2003 2003 2003 2003 2003 2003 2003 2003 2003 
2003 2003 2003 2003 2003 2003 2003 2003 2003 
2003 2003 2003 2003 2003 2003 2003 2003 2003 
2003 2003 2003 2003 2003 2003 2003 2003 2003 
2003 2003 2003 2003 2003 2003 2003 2003 2003 
2003 2003 2003 2003 2003 2003 2003 2003 2003 
2003 2003 2003 2003 2003 2003 2003 2003 2003 
2003 2003 2003 2003 2003 2003 2003 2003 2003 
2003 2003 2003 2003 2003 2003 2003 2003 2003 
2003 2003 2003 2003 2003 2003 2003 2003 2003 
2003 2003 2003 2003 2003 2003 2003 2003 2003 
2003 2003 2003 2003 2003 2003 2003 2003 2003 
2003 2003 2003 2003 2003 2003 2003 2003 2003 
2003 2003 2003 2003 2003 2003 2003 2003 2003 
2003 2003 2003 2003 2003 2003 2003 2003 2003 
2003 2003 2003 2003 2003 2003 2003 2003 2003 
2003 2003 2003 2003 2003 2003 2003 2003 2003 
2003 2003 2003 2003 2003 2003 2003 2003 2003 
2003 2003 2003 2003 2003 2003 2003 2003 2003 
2003 2003 2003 2003 2003 2003 2003 2003 2003 
2003 2003 2003 2003 2003 2003 2003 2003 2003 
2003 2003 2003 2003 2003 2003 2003 2003 2003 
2003 2003 2003 2003 2003 2003 2003 2003 2003 
2003 2003 2003 2003 2003 2003 2003 2003 2003 
2003 2003 2003 2003 2003 2003 2003 2003 2003 
2003 2003 2003 2003 2003 2003 2003 2003 2003 
2003 2003 2003 2003 2003 2003 2003 2003 2003 
2003 2003 2003 2003 2003 2003 2003 2003 2003 
2003 2003 2003 2003 2003 2003 2003 2003 2003 
2003 2003 2003 2003 2003 2003 2003 2003 2003 
2003 2003 2003 2003 2003 2003 2003 2003 2003 
2003 2003 2003 2003 2003 2003 2003 2003 2003 
2003 2003 2003 2003 2003 2003 2003 2003 2003 
2003 2003 2003 2003 2003 2003 2003 2003 2003 
2003 2003 2003 2003 2003 2003 2003 2003 2003 
2003 2003 2003 2003 2003 2003 2003 2003 2003 
2003 2003 2003 2003 2003 2003 2003 2003 2003 
2003 2003 2003 2003 2003 2003 2003 2003 2003 
2003 2003 2003 2003 2003 2003 2003 2003 2003 
2003 2003 2003 2003 2003 2003 2003 2003 2003 
2003 2003 2003 2003 2003 2003 2003 2003 2003 
2003 2003 2003 2003 2003 2003 2003 2003 2003 
2003 2003 2003 2003 2003 2003 2003 2003 2003 
2003 2003 2003 2003 2003 2003 2003 2003 2003 
2003 2003 2003 2003 2003 2003 2003 2003 2003 
2003 2003 2003 2003 2003 2003 2003 2003 2003 
2003 2003 2003 2003 2003 2003 2003 2003 2003 
2003 2003 2003 2003 2003 2003 2003 2003 2003 
2003 2003 2003 2003 2003 2003 2003 2003 2003 
2003 2003 2003 2003 2003 2003 2003 2003 2003 
2003 2003 2003 2003 2003 2003 2003 2003 2003 
2003 2003 2003 2003 2003 2003 2003 2003 2003 
2003 2003 2003 2003 2003 2003 2003 2003 2003 
2003 2003 2003 2003 2003 2003 2003 2003 2003 
2003 2003 2003 2003 2003 2003 2003 2003 2003 
2003 2003 2003 2003 2003 2003 2003 2003 2003 
2003 2003 2003 2003 2003 2003 2003 2003 2003 
2003 2003 2003 2003 2003 2003 2003 2003 2003 
2003 2003 2003 2003 2003 2003 2003 2003 2003 
2003 2003 2003 2003 2003 2003 2003 2003 2003 
2003 2003 2003 2003 2003 2003 2003 2003 2003 
2003 2003 2003 2003 2003 2003 2003 2003 2003 
2003 2003 2003 2003 2003 2003 2003 2003 2003 
2003 2003 2003 2003 2003 2003 2003 2003 2003 
2003 2003 2003 2003 2003 2003 2003 2003 2003 
2003 2003 2003 2003 2003 2003 2003 2003 2003 
2003 2003 2003 2003 2003 2003 2003 2003 2003 
2003 2003 2003 2003 2003 2003 2003 2003 2003 
2003 2003 2003 2003 2003 2003 2003 2003 2003 
2003 2003 2003 2003 2003 2003 2003 2003 2003 
2003 2003 2003 2003 2003 2003 2003 2003 2003 
2003 2003 2003 2003 2003 2003 2003 2003 2003 
2003 2003 2003 2003 2003 2003 2003 2003 2003 
2003 2003 2003 2003 2003 2003 2003 2003 2003 
2003 2003 2003 2003 2003 2003 2003 2003 2003 
2003 2003 2003 2003 2003 2003 2003 2003 2003 
2003 2003 2003 2003 2003 2003 2003 2003 2003 
2003 2003 2003 2003 2003 2003 2003 2003 2003 
2003 2003 2003 2003 2003 2003 2003 2003 2003 
2003 2003 2003 2003 2003 2003 2003 2003 2003 
2003 2003 2003 2003 2003 2003 2003 2003 2003 
2003 2003 2003 2003 2003 2003 2003 2003 2003 
2003 2003 2003 2003 2003 2003 2003 2003 2003 
2003 2003 2003 2003 2003 2003 2003 2003 2003 
2003 2003 2003 2003 2003 2003 2003 2003 2003 
2003 2003 2003 2003 2003 2003 2003 2003 2003 
2003 2003 2003 2003 2003 2003 2003 2003 2003 
2003 2003 2003 2003 2003 2003 2003 2003 2003 
2003 2003 2003 2003 2003 2003 2003 2003 2003 
2003 2003 2003 2003 2003 2003 2003 2003 2003 
2003 2003 2003 2003 2003 2003 2003 2003 2003 
2003 2003 2003 2003 2003 2003 2003 2003 2003 
2003 2003 2003 2003 2003 2003 2003 2003 2003 
2003 2003 2003 2003 2003 2003 2003 2003 2003 
2003 2003 2003 2003 2003 2003 2003 2003 2003 
2003 2003 2003 2003 2003 2003 2003 2003 2003 
2003 2003 2003 2003 2003 2003 2003 2003 2003 
2003 2003 2003 2003 2003 2003 2003 2003 2003 
2003 2003 2003 2003 2003 2003 2003 2003 2003 
2003 2003 2003 2003 2003 2003 2003 2003 2003 
2003 2003 2003 2003 2003 2003 2003 2003 2003 
2003 2003 2003 2003 2003 2003 2003 2003 2003 
2003 2003 2003 2003 2003 2003 2003 2003 2003 
2003 2003 2003 2003 2003 2003 2003 2003 2003 
2003 2003 2003 2003 2003 2003 2003 2003 2003 
2003 2003 2003 2003 2003 2003 2003 2003 2003 
2003 2003 2003 2003 2003 2003 2003 2003 2003 
2003 2003 2003 2003 2003 2003 2003 2003 2003 
2003 2003 2003 2003 2003 2003 2003 2003 2003 
2003 2003 2003 2003 2003 2003 2003 2003 2003 
2003 2003 2003 2003 2003 2003 2003 2003 2003 
2003 2003 2003 2003 2003 2003 2003 2003 2003 
2003 2003 2003 2003 2003 2003 2003 2003 2003 
2003 2003 2003 2003 2003 2003 2003 2003 2003 
2003 2003 2003 2003 2003 2003 2003 2003 2003 
2003 2003 2003 2003 2003 2003 2003 2003 2003 
2003 2003 2003 2003 2003 2003 2003 2003 2003 
2003 2003 2003 2003 2003 2003 2003 2003 2003 
2003 2003 2003 2003 2003 2003 2003 2003 2003 
2003 2003 2003 2003 2003 2003 2003 2003 2003 
2003 2003 2003 2003 2003 2003 2003 2003 2003 
2003 2003 2003 2003 2003 2003 2003 2003 2003 
2003 2003 2003 2003 2003 2003 2003 2003 2003 
2003 2003 2003 2003 2003 2003 2003 2003 2003 
2003 2003 2003 2003 2003 2003 2003 2003 2003 
2003 2003 2003 2003 2003 2003 2003 2003 2003 
2003 2003 2003 2003 2003 2003 2003 2003 2003 
2003 2003 2003 2003 2003 2003 2003 2003 2003 
2003 2003 2003 2003 2003 2003 2003 2003 2003 
2003 2003 2003 2003 2003 2003 2003 2003 2003 
2003 2003 2003 2003 2003 2003 2003 2003 2003 
2003 2003 2003 2003 2003 2003 2003 2003 2003 
2003 2003 2003 2003 2003 2003 2003 2003 2003 
2003 2003 2003 2003 2003 2003 2003 2003 2003 
2003 2003 2003 2003 2003 2003 2003 2003 2003 
2003 2003 2003 2003 2003 2003 2003 2003 2003 
2003 2003 2003 2003 2003 2003 2003 2003 2003 
2003 2003 2003 2003 2003 2003 2003 2003 2003 
2003 2003 2003 2003 2003 2003 2003 2003 2003 
2003 2003 2003 2003 2003 2003 2003 2003 2003 
2003 2003 2003 2003 2003 2003 2003 2003 2003 
2003 2003 2003 2003 2003 2003 2003 2003 2003 
2003 2003 2003 2003 2003 2003 2003 2003 2003 
2003 2003 2003 2003 2003 2003 2003 2003 2003 
2003 2003 2003 2003 2003 2003 2003 2003 2003 
2003 2003 2003 2003 2003 2003 2003 2003 2003 
2003 2003 2003 2003 2003 2003 2003 2003 2003 
2003 2003 2003 2003 2003 2003 2003 2003 2003 
2003 2003 2003 2003 2003 2003 2003 2003 2003 
2003 2003 2003 2003 2003 2003 2003 2003 2003 
2003 2003 2003 2003 2003 2003 2003 2003 2003 
2003 2003 2003 2003 2003 2003 2003 2003 2003 
2003 2003 2003 2003 2003 2003 2003 2003 2003 
2003 2003 2003 2003 2003 2003 2003 2003 2003 
2003 2003 2003 2003 2003 2003 2003 2003 2003 
2003 2003 2003 2003 2003 2003 2003 2003 2003 
2003 2003 2003 2003 2003 2003 2003 2003 2003 
2003 2003 2003 2003 2003 2003 2003 2003 2003 
2003 2003 2003 2003 2003 2003 2003 2003 2003 
2003 2003 2003 2003 2003 2003 2003 2003 2003 
2003 2003 2003 2003 2003 2003 2003 2003 2003 
2003 2003 2003 2003 2003 2003 2003 2003 2003 
2003 2003 2003 2003 2003 2003 2003 2003 2003 
2003 2003 2003 2003 2003 2003 2003 2003 2003 
2003 2003 2003 2003 2003 2003 2003 2003 2003 
2003 2003 2003 2003 2003 2003 2003 2003 2003 
2003 2003 2003 2003 2003 2003 2003 2003 2003 
2003 2003 2003 2003 2003 2003 2003 2003 2003 
2003 2003 2003 2003 2003 2003 2003 2003 2003 
2003 2003 2003 2003 2003 2003 2003 2003 2003 
2003 2003 2003 2003 2003 2003 2003 2003 2003 
2003 2003 2003 2003 2003 2003 2003 2003 2003 
2003 2003 2003 2003 2003 2003 2003 2003 2003 
2003 2003 2003 2003 2003 2003 2003 2003 2003 
2003 2003 2003 2003 2003 2003 2003 2003 2003 
2003 2003 2003 2003 2003 2003 2003 2003 2003 
2003 2003 2003 2003 2003 2003 2003 2003 2003 
2003 2003 2003 2003 2003 2003 2003 2003 2003 
2003 2003 2003 2003 2003 2003 2003 2003 2003 
2003 2003 2003 2003 2003 2003 2003 2003 2003 
2003 2003 2003 2003 2003 2003 2003 2003 2003 
2003 2003 2003 2003 2003 2003 2003 2003 2003 
2003 2003 2003 2003 2003 2003 2003 2003 2003 
2003 2003 2003 2003 2003 2003 2003 2003 2003 
2003 2003 2003 2003 2003 2003 2003 2003 2003 
2003 2003 2003 2003 2003 2003 2003 2003 2003 
2003 2003 2003 2003 2003 2003 2003 2003 2003 
2003 2003 2003 2003 2003 2003 2003 2003 2003 
2003 2003 2003 2003 2003 2003 2003 2003 2003 
2003 2003 2003 2003 2003 2003 2003 2003 2003 
2003 2003 2003 2003 2003 2003 2003 2003 2003 
2003 2003 2003 2003 2003 2003 2003 2003 2003 
2003 2003 2003 2003 2003 2003 2003 2003 2003 
2003 2003 2003 2003 2003 2003 2003 2003 2003 
2003 2003 2003 2003 2003 2003 2003 2003 2003 
2003 2003 2003 2003 2003 2003 2003 2003 2003 
2003 2003 2003 2003 2003 2003 2003 2003 2003 
2003 2003 2003 2003 2003 2003 2003 2003 2003 
2003 2003 2003 2003 2003 2003 2003 2003 2003 
2003 2003 2003 2003 2003 2003 2003 2003 2003 
2003 2003 2003 2003 2003 2003 2003 2003 2003 
2003 2003 2003 2003 2003 2003 2003 2003 2003 
2003 2003 2003 2003 2003 2003 2003 2003 2003 
2003 2003 2003 2003 2003 2003 2003 2003 2003 
2003 2003 2003 2003 2003 2003 2003 2003 2003 
2003 2003 2003 2003 2003 2003 2003 2003 2003 
2003 2003 2003 2003 2003 2003 2003 2003 2003 
2003 2003 2003 2003 2003 2003 2003 2003 2003 
2003 2003 2003 2003 2003 2003 2003 2003 2003 
2003 2003 2003 2003 2003 2003 2003 2003 2003 
2003 2003 2003 2003 2003 2003 2003 2003 2003 
2003 2003 2003 2003 2003 2003 2003 2003 2003 
2003 2003 2003 2003 2003 2003 2003 2003 2003 
2003 2003 2003 2003 2003 2003 2003 2003 2003 
2003 2003 2003 2003 2003 2003 2003 2003 2003 
2003 2003 2003 2003 2003 2003 2003 2003 2003 
2003 2003 2003 2003 2003 2003 2003 2003 2003 
2003 2003 2003 2003 2003 2003 2003 2003 2003 
2003 2003 2003 2003 2003 2003 2003 2003 2003 
2003 2003 2003 2003 2003 2003 2003 2003 2003 
2003 2003 2003 2003 2003 2003 2003 2003 2003 
2003 2003 2003 2003 2003 2003 2003 2003 2003 
2003 2003 2003 2003 2003 2003 2003 2003 2003 
2003 2003 2003 2003 2003 2003 2003 2003 2003 
2003 2003 2003 2003 2003 2003 2003 2003 2003 
2003 2003 2003 2003 2003 2003 2003 2003 2003 
2003 2003 2003 2003 2003 2003 2003 2003 2003 
2003 2003 2003 2003 2003 2003 2003 2003 2003 
2003 2003 2003 2003 2003 2003 2003 2003 2003 
2003 2003 2003 2003 2003 2003 2003 2003 2003 
2003 2003 2003 2003 2003 2003 2003 2003 2003 
2003 2003 2003 2003 2003 2003 2003 2003 2003 
2003 2003 2003 2003 2003 2003 2003 2003 2003 
2003 2003 2003 2003 2003 2003 2003 2003 2003 
2003 2003 2003 2003 2003 2003 2003 2003 2003 
2003 2003 2003 2003 2003 2003 2003 2003 2003 
2003 2003 2003 2003 2003 2003 2003 2003 2003 
2003 2003 2003 2003 2003 2003 2003 2003 2003 
2003 2003 2003 2003 2003 2003 2003 2003 2003 
2003 2003 2003 2003 2003 2003 2003 2003 2003 
2003 2003 2003 2003 2003 2003 2003 2003 2003 
2003 2003 2003 2003 2003 2003 2003 2003 2003 
2003 2003 2003 2003 2003 2003 2003 2003 2003 
2003 2003 2003 2003 2003 2003 2003 2003 2003 
2003 2003 2003 2003 2003 2003 2003 2003 2003 
2003 2003 2003 2003 2003 2003 2003 2003 2003 
2003 2003 2003 2003 2003 2003 2003 2003 2003 
2003 2003 2003 2003 2003 2003 2003 2003 2003 
2003 2003 2003 2003 2003 2003 2003 2003 2003 
2003 2003 2003 2003 2003 2003 2003 2003 2003 
2003 2003 2003 2003 2003 2003 2003 2003 2003 
2003 2003 2003 2003 2003 2003 2003 2003 2003 
2003 2003 2003 2003 2003 2003 2003 2003 2003 
2003 2003 2003 2003 2003 2003 2003 2003 2003 
2003 2003 2003 2003 2003 2003 2003 2003 2003 
2003 2003 2003 2003 2003 2003 2003 2003 2003 
2003 2003 2003 2003 2003 2003 2003 2003 2003 
2003 2003 2003 2003 2003 2003 2003 2003 2003 
2003 2003 2003 2003 2003 2003 2003 2003 2003 
2003 2003 2003 2003 2003 2003 2003 2003 2003 
2003 2003 2003 2003 2003 2003 2003 2003 2003 
2003 2003 2003 2003 2003 2003 2003 2003 2003 
2003 2003 2003 2003 2003 2003 2003 2003 2003 
2003 2003 2003 2003 2003 2003 2003 2003 2003 
2003 2003 2003 2003 2003 2003 2003 2003 2003 
2003 2003 2003 2003 2003 2003 2003 2003 2003 
2003 2003 2003 2003 2003 2003 2003 2003 2003 
2003 2003 2003 2003 2003 2003 2003 2003 2003 
2003 2003 2003 2003 2003 2003 2003 2003 2003 
2003 2003 2003 2003 2003 2003 2003 2003 2003 
2003 2003 2003 2003 2003 2003 2003 2003 2003 
2003 2003 2003 2003 2003 2003 2003 2003 2003 
2003 2003 2003 2003 2003 2003 2003 2003 2003 
2003 2003 2003 2003 2003 2003 2003 2003 2003 
2003 2003 2003 2003 2003 2003 2003 2003 2003 
2003 2003 2003 2003 2003 2003 2003 2003 2003 
2003 2003 2003 2003 2003 2003 2003 2003 2003 
2003 2003 2003 2003 2003 2003 2003 2003 2003 
2003 2003 2003 2003 2003 2003 2003 2003 2003 
2003 2003 2003 2003 2003 2003 2003 2003 2003 
2003 2003 2003 2003 2003 2003 2003 2003 2003 
2003 2003 2003 2003 2003 2003 2003 2003 2003 
2003 2003 2003 2003 2003 2003 2003 2003 2003 
2003 2003 2003 2003 2003 2003 2003 2003 2003 
2003 2003 2003 2003 2003 2003 2003 2003 2003 
2003 2003 2003 2003 2003 2003 2003 2003 2003 
2003 2003 2003 2003 2003 2003 2003 2003 2003 
2003 2003 2003 2003 2003 2003 2003 2003 2003 
2003 2003 2003 2003 2003 2003 2003 2003 2003 
2003 2003 2003 2003 2003 2003 2003 2003 2003 
2003 2003 2003 2003 2003 2003 2003 2003 2003 
2003 2003 2003 2003 2003 2003 2003 2003 2003 
2003 2003 2003 2003 2003 2003 2003 2003 2003 
2003 2003 2003 2003 2003 2003 2003 2003 2003 
2003 2003 2003 2003 2003 2003 2003 2003 2003 
2003 2003 2003 2003 2003 2003 2003 2003 2003 
2003 2003 2003 2003 2003 2003 2003 2003 2003 
2003 2003 2003 2003 2003 2003 2003 2003 2003 
2003 2003 2003 2003 2003 2003 2003 2003 2003 
2003 2003 2003 2003 2003 2003 2003 2003 2003 
2003 2003 2003 2003 2003 2003 2003 2003 2003 
2003 2003 2003 2003 2003 2003 2003 2003 2003 
2003 2003 2003 2003 2003 2003 2003 2003 2003 
2003 2003 2003 2003 2003 2003 2003 2003 2003 
2003 2003 2003 2003 2003 2003 2003 2003 2003 
2003 2003 2003 2003 2003 2003 2003 2003 2003 
2003 2003 2003 2003 2003 2003 2003 2003 2003 
2003 2003 2003 2003 2003 2003 2003 2003 2003 
2003 2003 2003 2003 2003 2003 2003 2003 2003 
2003 2003 2003 2003 2003 2003 2003 2003 2003 
2003 2003 2003 2003 2003 2003 2003 2003 2003 
2003 2003 2003 2003 2003 2003 2003 2003 2003 
2003 2003 2003 2003 2003 2003 2003 2003 2003 
2003 2003 2003 2003 2003 2003 2003 2003 2003 
2003 2003 2003 2003 2003 2003 2003 2003 2003 
2003 2003 2003 2003 2003 2003 2003 2003 2003 
2003 2003 2003 2003 2003 2003 2003 2003 2003 
2003 2003 2003 2003 2003 2003 2003 2003 2003 
2003 2003 2003 2003 2003 2003 2003 2003 2003 
2003 2003 2003 2003 2003 2003 2003 2003 2003 
2003 2003 2003 2003 2003 2003 2003 2003 2003 
2003 2003 2003 2003 2003 2003 2003 2003 2003 
2003 2003 2003 2003 2003 2003 2003 2003 2003 
2003 2003 2003 2003 2003 2003 2003 2003 2003 
2003 2003 2003 2003 2003 2003 2003 2003 2003 
2003 2003 2003 2003 2003 2003 2003 2003 2003 
2003 2003 2003 2003 2003 2003 2003 2003 2003 
2003 2003 2003 2003 2003 2003 2003 2003 2003 
2003 2003 2003 2003 2003 2003 2003 2003 2003 
2003 2003 2003 2003 2003 2003 2003 2003 2003 
2003 2003 2003 2003 2003 2003 2003 2003 2003 
2003 2003 2003 2003 2003 2003 2003 2003 2003 
2003 2003 2003 2003 2003 2003 2003 2003 2003 
2003 2003 2003 2003 2003 2003 2003 2003 2003 
2003 2003 2003 2003 2003 2003 2003 2003 2003 
2003 2003 2003 2003 2003 2003 2003 2003 2003 
2003 2003 2003 2003 2003 2003 2003 2003 2003 
2003 2003 2003 2003 2003 2003 2003 2003 2003 
2003 2003 2003 2003 2003 2003 2003 2003 2003 
2003 2003 2003 2003 2003 2003 2003 2003 2003 
2003 2003 2003 2003 2003 2003 2003 2003 2003 
2003 2003 2003 2003 2003 2003 2003 2003 2003 
2003 2003 2003 2003 2003 2003 2003 2003 2003 
2003 2003 2003 2003 2003 2003 2003 2003 2003 
2003 2003 2003 2003 2003 2003 2003 2003 2003 
2003 2003 2003 2003 2003 2003 2003 2003 2003 
2003 2003 2003 2003 2003 2003 2003 2003 2003 
2003 2003 2003 2003 2003 2003 2003 2003 2003 
2003 2003 2003 2003 2003 2003 2003 2003 2003 
2003 2003 2003 2003 2003 2003 2003 2003 2003 
2003 2003 2003 2003 2003 2003 2003 2003 2003 
2003 2003 2003 2003 2003 2003 2003 2003 2003 
2003 2003 2003 2003 2003 2003 2003 2003 2003 
2003 2003 2003 2003 2003 2003 2003 2003 2003 
2003 2003 2003 2003 2003 2003 2003 2003 2003 
2003 2003 2003 2003 2003 2003 2003 2003 2003 
2003 2003 2003 2003 2003 2003 2003 2003 2003 
2003 2003 2003 2003 2003 2003 2003 2003 2003 
2003 2003 2003 2003 2003 2003 2003 2003 2003 
2003 2003 2003 2003 2003 2003 2003 2003 2003 
2003 2003 2003 2003 2003 2003 2003 2003 2003 
2003 2003 2003 2003 2003 2003 2003 2003 2003 
2003 2003 2003 2003 2003 2003 2003 2003 2003 
2003 2003 2003 2003 2003 2003 2003 2003 2003 
2003 2003 2003 2003 2003 2003 2003 2003 2003 
2003 2003 2003 2003 2003 2003 2003 2003 2003 
2003 2003 2003 2003 2003 2003 2003 2003 2003 
2003 2003 2003 2003 2003 2003 2003 2003 2003 
2003 2003 2003 2003 2003 2003 2003 2003 2003 
2003 2003 2003 2003 2003 2003 2003 2003 2003 
2003 2003 2003 2003 2003 2003 2003 2003 2003 
2003 2003 2003 2003 2003 2003 2003 2003 2003 
2003 2003 2003 2003 2003 2003 2003 2003 2003 
2003 2003 2003 2003 2003 2003 2003 2003 2003 
2003 2003 2003 2003 2003 2003 2003 2003 2003 
2003 2003 2003 2003 2003 2003 2003 2003 2003 
2003 2003 2003 2003 2003 2003 2003 2003 2003 
2003 2003 2003 2003 2003 2003 2003 2003 2003 
2003 2003 2003 2003 2003 2003 2003 2003 2003 
2003 2003 2003 2003 2003 2003 2003 2003 2003 
2003 2003 2003 2003 2003 2003 2003 2003 2003 
2003 2003 2003 2003 2003 2003 2003 2003 2003 
2003 2003 2003 2003 2003 2003 2003 2003 2003 
2003 2003 2003 2003 2003 2003 2003 2003 2003 
2003 2003 2003 2003 2003 2003 2003 2003 2003 
2003 2003 2003 2003 2003 2003 2003 2003 2003 
2003 2003 2003 2003 2003 2003 2003 2003 2003 
2003 2003 2003 2003 2003 2003 2003 2003 2003 
2003 2003 2003 2003 2003 2003 2003 2003 2003 
2003 2003 2003 2003 2003 2003 2003 2003 2003 
2003 2003 2003 2003 2003 2003 2003 2003 2003 
2003 2003 2003 2003 2003 2003 2003 2003 2003 
2003 2003 2003 2003 2003 2003 2003 2003 2003 
2003 2003 2003 2003 2003 2003 2003 2003 2003 
2003 2003 2003 2003 2003 2003 2003 2003 2003 
2003 2003 2003 2003 2003 2003 2003 2003 2003 
2003 2003 2003 2003 2003 2003 2003 2003 2003 
2003 2003 2003 2003 2003 2003 2003 2003 2003 
2003 2003 2003 2003 2003 2003 2003 2003 2003 
2003 2003 2003 2003 2003 2003 2003 2003 2003 
2003 2003 2003 2003 2003 2003 2003 2003 2003 
2003 2003 2003 2003 2003 2003 2003 2003 2003 
2003 2003 2003 2003 2003 2003 2003 2003 2003 
2003 2003 2003 2003 2003 2003 2003 2003 2003 
2003 2003 2003 2003 2003 2003 2003 2003 2003 
2003 2003 2003 2003 2003 2003 2003 2003 2003 
2003 2003 2003 2003 2003 2003 2003 2003 2003 
2003 2003 2003 2003 2003 2003 2003 2003 2003 