# vtk DataFile Version 4.2
vtk output
ASCII
DATASET POLYDATA
POINTS 2280 float
16.1031 87.7735 -7.66504 16.3288 87.5379 -7.2871 16.5833 87.4854 -7.75904 
16.0831 87.5422 -7.36889 16.2019 87.917 -8.46654 16.7214 87.5174 -8.59509 
15.6877 87.3075 -7.8024 15.2674 87.888 -8.60294 14.8236 87.1527 -8.40912 
6.06559 87.9118 -8.74041 6.17623 87.1985 -8.1891 6.74819 87.5614 -8.65073 
5.09227 87.8594 -8.76988 5.3739 87.3922 -8.18082 4.70247 87.398 -8.41615 
3.32837 87.6474 -8.47805 3.31654 87.5474 -8.2038 3.51807 87.4609 -8.3546 
3.06784 87.4709 -8.35164 16.208 87.8377 -9.43056 16.7486 87.3291 -9.40763 
15.293 88.1072 -9.52191 14.3564 87.5256 -8.95174 14.1496 87.9807 -9.59061 
13.2428 87.8104 -9.77374 13.3924 87.219 -9.02845 12.7186 87.3995 -9.49781 
9.08354 87.7361 -9.43259 9.21752 87.1754 -9.19397 9.59257 87.2679 -9.72695 
8.20958 87.8471 -9.62091 8.35301 87.4067 -9.12439 7.01503 87.9608 -9.46494 
7.44207 87.452 -9.00431 6.12735 88.1059 -9.67309 5.43755 88.0745 -9.38416 
4.43097 87.5979 -8.93859 4.62114 87.7969 -9.63626 3.28863 87.4147 -8.72133 
4.00751 87.4416 -9.37512 16.1894 87.6112 -10.1297 15.8987 87.5407 -10.9048 
15.366 87.9423 -10.5158 14.4548 88.0985 -10.422 13.5909 87.8917 -10.608 
12.8071 87.5653 -10.1783 9.05078 87.5648 -9.94706 8.28554 87.6507 -10.2103 
7.85291 87.5366 -10.5676 7.51756 87.8479 -10.2819 6.53737 87.9238 -10.422 
5.44717 87.8888 -10.3354 4.64702 87.5879 -10.4286 4.08638 87.4408 -10.0013 
15.2911 87.7621 -11.371 15.6423 87.4371 -11.6699 14.4757 87.8496 -11.3369 
13.7165 87.5792 -11.4136 13.1254 87.4712 -10.9502 7.25863 87.3776 -10.9839 
6.02096 87.528 -11.0867 5.14088 87.4684 -10.9354 14.9702 87.4971 -12.001 
14.2147 87.4312 -11.9147 16.3017 87.1878 -7.60373 14.967 86.8708 -7.59927 
15.1594 86.2356 -6.92382 15.7011 86.3243 -7.52013 13.9722 86.8485 -7.54657 
14.2541 86.4095 -7.04596 13.2096 86.7853 -7.66923 13.437 86.5305 -7.17152 
12.9465 86.2982 -7.47402 3.02435 86.3595 -7.29341 3.65602 86.4117 -7.67188 
3.12531 87.0193 -7.80149 2.22064 86.7756 -7.66161 2.46325 86.5488 -7.26988 
2.00189 86.483 -7.49628 16.1602 86.5199 -8.04197 16.7941 86.8413 -8.48633 
14.3417 86.6902 -8.21413 14.5087 86.538 -8.55966 13.9106 86.6428 -8.61247 
13.5282 86.8661 -8.24385 12.8001 86.3898 -8.49946 6.48637 86.2943 -8.10295 
6.86244 86.8587 -8.49008 5.62027 86.4654 -7.84487 3.92523 87.1619 -8.52703 
4.53329 86.5723 -7.92107 2.51257 87.0201 -8.62007 1.7578 86.4016 -8.19419 
17.193 86.8529 -9.53465 17.1827 86.1682 -9.06024 17.6346 86.4648 -9.72835 
14.2268 86.7762 -8.78443 12.0543 87.0481 -9.70924 12.2156 86.5314 -9.18166 
11.2922 86.7345 -9.67861 11.3005 86.3713 -9.19724 10.755 86.3157 -9.43336 
9.49611 86.2998 -9.10027 9.82789 86.6312 -9.64359 8.58508 86.444 -8.86064 
7.62339 86.6749 -8.78383 3.39669 87.177 -9.554 2.51395 86.8018 -9.73704 
1.71733 86.3174 -9.42966 17.2572 86.797 -10.4094 17.7289 86.1729 -10.5362 
16.6367 87.2133 -10.3136 12.4891 87.1589 -10.7043 11.6497 86.8093 -10.5456 
10.8685 86.4624 -10.12 9.36 87.0048 -10.3235 9.73656 86.5408 -10.423 
8.48607 87.1525 -10.6063 4.20784 87.179 -10.7854 3.15277 86.9033 -10.5573 
2.58682 86.5756 -10.4883 2.16105 86.3401 -10.1355 17.2288 86.5659 -11.0941 
16.9107 86.5167 -11.8618 16.3997 87.0242 -11.4075 13.2333 87.1415 -11.762 
12.2141 86.8391 -11.5183 11.66 86.5174 -11.4203 11.1629 86.3878 -10.9192 
9.04635 86.4669 -10.938 8.11081 86.6628 -11.1933 7.37138 86.811 -11.4798 
7.8758 86.2883 -11.6011 6.54181 87.0007 -11.5659 5.37334 87.0438 -11.4947 
4.44977 86.8823 -11.5976 3.61533 86.8148 -11.4357 2.85371 86.5227 -11.2384 
16.1849 86.8022 -12.4973 16.7267 86.4797 -12.4626 15.3338 87.1345 -12.5147 
14.17 87.136 -12.5894 13.1051 87.0123 -12.7388 12.2293 86.862 -12.601 
11.7277 86.4748 -12.1973 7.20704 86.346 -11.8393 6.19282 86.4274 -12.0548 
5.05221 86.5535 -12.0867 4.01971 86.3713 -12.0919 3.0856 86.2418 -11.8762 
16.4024 86.3931 -13.0503 15.7858 86.5132 -13.5838 15.3311 86.8479 -13.463 
14.2928 87.0335 -13.5726 13.2799 87.0248 -13.575 12.2762 86.993 -13.5748 
11.4611 86.5559 -12.9693 11.4246 86.7944 -13.6112 10.941 86.4197 -13.4984 
15.3772 86.4141 -14.0796 14.7428 86.5349 -14.5697 14.4563 86.8284 -14.3114 
13.5353 86.882 -14.4275 12.5353 86.8814 -14.4306 11.5974 86.7976 -14.4047 
10.8638 86.4833 -14.2262 14.206 86.3819 -14.9643 13.0013 86.5215 -15.0724 
12.0036 86.4923 -15.0461 11.1968 86.4189 -14.8666 15.1724 85.708 -6.46374 
15.3367 85.4604 -6.33397 15.5538 85.7494 -6.71066 14.9537 85.244 -6.59385 
15.6667 85.5011 -7.28762 14.4895 85.6672 -6.73536 13.4739 85.6952 -7.07386 
12.925 85.6251 -7.78649 5.01186 85.9477 -7.48207 5.18603 85.1658 -7.16595 
5.65627 85.6133 -7.5306 4.25589 85.8392 -7.55983 4.39426 85.3465 -7.17805 
3.18475 86.0333 -7.45538 3.72373 85.327 -7.42351 2.37788 86.0309 -7.57356 
16.5111 86.0724 -8.56231 16.0277 85.5028 -8.14802 14.2915 86.363 -8.58937 
12.8249 85.6299 -8.50799 7.9508 85.8918 -8.47468 8.35081 85.1022 -8.12673 
8.72001 85.6134 -8.53226 7.17405 86.1618 -8.41453 7.17809 85.4408 -8.08425 
6.21877 85.5109 -7.83481 3.41618 85.7572 -7.67215 2.42025 85.4203 -7.74139 
1.57037 85.6159 -8.0003 1.22638 85.9469 -8.84308 0.938442 85.2678 -8.30973 
17.089 85.3665 -9.14064 17.6561 85.819 -9.6456 16.5987 85.6087 -8.78086 
12.3607 85.9456 -9.3904 12.6097 85.4678 -9.2134 11.7686 85.5216 -9.58363 
11.2052 85.6199 -9.25847 10.2237 86.1912 -9.58739 10.1942 85.597 -9.11104 
9.22814 85.7266 -8.79892 1.2187 85.915 -9.48045 0.905716 85.2973 -9.3452 
17.7626 85.3968 -10.4981 12.1111 85.3547 -9.7822 10.3777 86.1732 -10.6444 
2.27043 86.0942 -10.8857 1.73151 85.7592 -10.4495 1.2365 85.5156 -10.0528 
17.4805 86.1626 -11.4452 17.7789 85.5984 -11.4811 11.0715 86.1123 -11.7117 
10.3809 85.9002 -11.5513 9.6571 85.8879 -11.5036 8.62913 85.9816 -11.5305 
2.44337 86.0007 -11.5722 1.83823 85.4971 -11.2937 17.2669 85.9883 -12.3264 
17.717 85.118 -12.5679 11.0475 86.1626 -12.7625 10.3402 85.7864 -12.4352 
9.68019 85.4415 -12.4584 9.00332 85.3932 -12.1128 8.0329 85.5928 -12.0204 
7.10762 85.7298 -12.2277 6.41624 85.8424 -12.456 6.91646 85.2957 -12.6028 
5.59446 86.0424 -12.5468 4.6357 86.006 -12.5749 3.89932 85.7076 -12.5259 
3.1409 85.465 -12.2672 2.19454 85.3483 -11.9097 17.11 85.6459 -13.1337 
16.3174 86.0003 -13.5859 16.8657 85.481 -13.5763 10.2644 85.9661 -13.696 
9.76095 85.4256 -13.2284 6.14017 85.2608 -12.8525 5.06169 85.3954 -12.9165 
4.11503 85.2622 -12.8554 16.3507 85.4792 -14.0725 15.278 86.0178 -14.5717 
15.8418 85.4874 -14.5605 10.3334 86.1093 -14.823 9.3988 85.5268 -13.8762 
9.19236 85.8713 -14.569 8.2845 85.7507 -14.7381 8.43387 85.254 -14.0014 
7.81758 85.3432 -14.5089 15.3098 85.5138 -15.0421 14.2247 85.8788 -15.6028 
14.8336 85.5045 -15.5195 13.2481 86.1584 -15.7033 12.2459 86.1584 -15.7065 
11.1529 86.1025 -15.5566 10.1115 86.0033 -15.7149 9.25412 86.0287 -15.5464 
8.21257 85.9438 -15.5792 7.65575 85.5682 -15.1979 14.4052 85.4029 -16.0229 
13.7811 85.5023 -16.5379 13.3236 85.8479 -16.4359 12.2827 86.0225 -16.5599 
11.2974 85.9976 -16.5547 10.2865 85.9798 -16.5473 9.27128 86.0083 -16.5314 
8.42259 86.0376 -16.3871 7.39177 85.6427 -15.9634 7.56886 85.8139 -16.6766 
6.89246 85.1644 -16.5063 13.3724 85.4092 -17.0599 12.7227 85.5424 -17.5824 
12.439 85.8277 -17.2994 11.5036 85.882 -17.4346 10.5161 85.8708 -17.446 
9.51135 85.8718 -17.4411 8.39785 85.8665 -17.3265 7.59587 85.6266 -17.4492 
7.12312 85.3786 -17.1847 12.1971 85.4095 -17.9915 10.999 85.5475 -18.1046 
10.0018 85.5352 -18.1085 8.97591 85.531 -18.0791 8.09377 85.4889 -17.9336 
15.4091 85.2823 -6.68195 15.3033 84.8467 -7.3804 14.2167 84.7773 -7.12025 
14.7755 84.2253 -7.61207 13.3853 84.9615 -7.46193 13.8068 84.4351 -7.7663 
5.07591 84.2833 -7.15316 5.74201 84.5097 -7.6167 4.48772 84.6538 -6.97246 
2.91297 85.0376 -7.48013 3.43959 84.5569 -7.1831 1.94862 84.9779 -7.49486 
2.18935 84.307 -7.20317 1.22555 85.0046 -7.61685 1.29928 84.3481 -7.13302 
0.727355 84.5126 -7.566 16.539 84.9412 -8.69092 16.064 84.3044 -8.12239 
16.6375 84.3301 -8.60394 15.3893 84.2651 -7.75205 13.1078 84.9016 -8.39761 
13.5945 84.327 -8.5446 9.34225 85.005 -8.5825 8.98828 84.4887 -8.22538 
9.55355 84.2952 -8.73125 8.15688 84.4891 -8.08049 7.31414 84.6126 -8.08915 
6.44546 84.5672 -8.03511 0.592162 84.6509 -8.45938 17.3746 85.0516 -9.81859 
16.9089 84.4451 -9.21572 13.0067 84.1921 -9.01156 12.5296 84.5871 -9.18925 
12.1137 84.9 -9.67899 11.1734 85.0819 -9.60006 11.8669 84.1106 -9.57158 
10.5757 84.869 -9.56458 9.9096 84.5402 -9.26909 0.590622 84.5454 -9.35321 
17.4566 84.8091 -10.5976 17.0309 84.2112 -10.3069 11.2793 84.551 -9.88106 
10.2985 84.1987 -9.827 1.25494 85.062 -10.9076 0.750534 84.5551 -10.4111 
17.2886 84.3219 -11.0977 17.7126 84.8008 -11.4749 1.42195 84.9461 -11.5708 
0.980961 84.4788 -11.342 17.7393 84.4327 -12.3922 9.16967 85.0883 -12.871 
8.48765 85.0319 -12.5344 7.6756 84.9829 -12.6702 3.4519 85.099 -12.64 
2.84913 84.6418 -12.5032 2.11875 84.4099 -12.2202 1.36207 84.3894 -11.8556 
17.3149 85.0713 -13.4947 17.6408 84.4889 -13.2271 9.09912 85.1522 -13.5312 
8.42833 84.8903 -13.2009 7.70858 84.6298 -13.4157 6.9772 84.6027 -13.0584 
6.17727 84.4507 -13.1557 5.25193 84.433 -13.1366 4.26541 84.4853 -13.0306 
3.23791 84.3566 -12.8348 17.1266 84.6416 -13.9922 16.35 84.961 -14.5627 
16.8294 84.1115 -14.4105 7.07364 84.9214 -14.845 7.51238 84.6977 -14.0787 
6.79381 84.0681 -14.5815 16.1089 84.6098 -15.0736 15.33 85.0048 -15.5448 
15.814 84.1483 -15.7197 6.93363 85.1715 -15.6566 6.4041 84.4975 -15.1234 
6.42367 84.7645 -15.4005 6.14192 84.5038 -15.5264 15.0843 84.6769 -16.1056 
14.3035 85.0009 -16.5415 14.8349 84.5028 -16.5251 6.41426 84.665 -15.914 
6.6416 84.157 -16.3464 5.47415 84.4521 -16.2539 5.76468 84.5351 -16.8633 
5.2361 84.7285 -16.7234 4.93348 84.463 -16.4183 14.3312 84.4926 -17.045 
13.2574 85.0324 -17.5843 13.8226 84.5056 -17.5543 7.36371 85.1249 -17.9347 
6.96345 84.5918 -17.3406 5.3438 84.7166 -17.306 5.64393 84.4744 -17.6228 
4.82565 84.5523 -17.1892 13.318 84.5406 -18.0736 12.3995 84.8851 -18.5084 
12.9161 84.3868 -18.6369 11.546 85.0467 -18.5728 10.559 85.0585 -18.5773 
[...]
CELL_DATA 4568
SCALARS scalars float
LOOKUP_TABLE default
2032 2032 2032 2032 2032 2032 2032 2032 2032 
2032 2032 2032 2032 2032 2032 2032 2032 2032 
2032 2032 2032 2032 2032 2032 2032 2032 2032 
2032 2032 2032 2032 2032 2032 2032 2032 2032 
2032 2032 2032 2032 2032 2032 2032 2032 2032 
2032 2032 2032 2032 2032 2032 2032 2032 2032 
2032 2032 2032 2032 2032 2032 2032 2032 2032 
2032 2032 2032 2032 2032 2032 2032 2032 2032 
2032 2032 2032 2032 2032 2032 2032 2032 2032 
2032 2032 2032 2032 2032 2032 2032 2032 2032 
2032 2032 2032 2032 2032 2032 2032 2032 2032 
2032 2032 2032 2032 2032 2032 2032 2032 2032 
2032 2032 2032 2032 2032 2032 2032 2032 2032 
2032 2032 2032 2032 2032 2032 2032 2032 2032 
2032 2032 2032 2032 2032 2032 2032 2032 2032 
2032 2032 2032 2032 2032 2032 2032 2032 2032 
2032 2032 2032 2032 2032 2032 2032 2032 2032 
2032 2032 2032 2032 2032 2032 2032 2032 2032 
2032 2032 2032 2032 2032 2032 2032 2032 2032 
2032 2032 2032 2032 2032 2032 2032 2032 2032 
2032 2032 2032 2032 2032 2032 2032 2032 2032 
2032 2032 2032 2032 2032 2032 2032 2032 2032 
2032 2032 2032 2032 2032 2032 2032 2032 2032 
2032 2032 2032 2032 2032 2032 2032 2032 2032 
2032 2032 2032 2032 2032 2032 2032 2032 2032 
2032 2032 2032 2032 2032 2032 2032 2032 2032 
2032 2032 2032 2032 2032 2032 2032 2032 2032 
2032 2032 2032 2032 2032 2032 2032 2032 2032 
2032 2032 2032 2032 2032 2032 2032 2032 2032 
2032 2032 2032 2032 2032 2032 2032 2032 2032 
2032 2032 2032 2032 2032 2032 2032 2032 2032 
2032 2032 2032 2032 2032 2032 2032 2032 2032 
2032 2032 2032 2032 2032 2032 2032 2032 2032 
2032 2032 2032 2032 2032 2032 2032 2032 2032 
2032 2032 2032 2032 2032 2032 2032 2032 2032 
2032 2032 2032 2032 2032 2032 2032 2032 2032 
2032 2032 2032 2032 2032 2032 2032 2032 2032 
2032 2032 2032 2032 2032 2032 2032 2032 2032 
2032 2032 2032 2032 2032 2032 2032 2032 2032 
2032 2032 2032 2032 2032 2032 2032 2032 2032 
2032 2032 2032 2032 2032 2032 2032 2032 2032 
2032 2032 2032 2032 2032 2032 2032 2032 2032 
2032 2032 2032 2032 2032 2032 2032 2032 2032 
2032 2032 2032 2032 2032 2032 2032 2032 2032 
2032 2032 2032 2032 2032 2032 2032 2032 2032 
2032 2032 2032 2032 2032 2032 2032 2032 2032 
2032 2032 2032 2032 2032 2032 2032 2032 2032 
2032 2032 2032 2032 2032 2032 2032 2032 2032 
2032 2032 2032 2032 2032 2032 2032 2032 2032 
2032 2032 2032 2032 2032 2032 2032 2032 2032 
2032 2032 2032 2032 2032 2032 2032 2032 2032 
2032 2032 2032 2032 2032 2032 2032 2032 2032 
2032 2032 2032 2032 2032 2032 2032 2032 2032 
2032 2032 2032 2032 2032 2032 2032 2032 2032 
2032 2032 2032 2032 2032 2032 2032 2032 2032 
2032 2032 2032 2032 2032 2032 2032 2032 2032 
2032 2032 2032 2032 2032 2032 2032 2032 2032 
2032 2032 2032 2032 2032 2032 2032 2032 2032 
2032 2032 2032 2032 2032 2032 2032 2032 2032 
2032 2032 2032 2032 2032 2032 2032 2032 2032 
2032 2032 2032 2032 2032 2032 2032 2032 2032 
2032 2032 2032 2032 2032 2032 2032 2032 2032 
2032 2032 2032 2032 2032 2032 2032 2032 2032 
2032 2032 2032 2032 2032 2032 2032 2032 2032 
2032 2032 2032 2032 2032 2032 2032 2032 2032 
2032 2032 2032 2032 2032 2032 2032 2032 2032 
2032 2032 2032 2032 2032 2032 2032 2032 2032 
2032 2032 2032 2032 2032 2032 2032 2032 2032 
2032 2032 2032 2032 2032 2032 2032 2032 2032 
2032 2032 2032 2032 2032 2032 2032 2032 2032 
2032 2032 2032 2032 2032 2032 2032 2032 2032 
2032 2032 2032 2032 2032 2032 2032 2032 2032 
2032 2032 2032 2032 2032 2032 2032 2032 2032 
2032 2032 2032 2032 2032 2032 2032 2032 2032 
2032 2032 2032 2032 2032 2032 2032 2032 2032 
2032 2032 2032 2032 2032 2032 2032 2032 2032 
2032 2032 2032 2032 2032 2032 2032 2032 2032 
2032 2032 2032 2032 2032 2032 2032 2032 2032 
2032 2032 2032 2032 2032 2032 2032 2032 2032 
2032 2032 2032 2032 2032 2032 2032 2032 2032 
2032 2032 2032 2032 2032 2032 2032 2032 2032 
2032 2032 2032 2032 2032 2032 2032 2032 2032 
2032 2032 2032 2032 2032 2032 2032 2032 2032 
2032 2032 2032 2032 2032 2032 2032 2032 2032 
2032 2032 2032 2032 2032 2032 2032 2032 2032 
2032 2032 2032 2032 2032 2032 2032 2032 2032 
2032 2032 2032 2032 2032 2032 2032 2032 2032 
2032 2032 2032 2032 2032 2032 2032 2032 2032 
2032 2032 2032 2032 2032 2032 2032 2032 2032 
2032 2032 2032 2032 2032 2032 2032 2032 2032 
2032 2032 2032 2032 2032 2032 2032 2032 2032 
2032 2032 2032 2032 2032 2032 2032 2032 2032 
2032 2032 2032 2032 2032 2032 2032 2032 2032 
2032 2032 2032 2032 2032 2032 2032 2032 2032 
2032 2032 2032 2032 2032 2032 2032 2032 2032 
2032 2032 2032 2032 2032 2032 2032 2032 2032 
2032 2032 2032 2032 2032 2032 2032 2032 2032 
2032 2032 2032 2032 2032 2032 2032 2032 2032 
2032 2032 2032 2032 2032 2032 2032 2032 2032 
2032 2032 2032 2032 2032 2032 2032 2032 2032 
2032 2032 2032 2032 2032 2032 2032 2032 2032 
2032 2032 2032 2032 2032 2032 2032 2032 2032 
2032 2032 2032 2032 2032 2032 2032 2032 2032 
2032 2032 2032 2032 2032 2032 2032 2032 2032 
2032 2032 2032 2032 2032 2032 2032 2032 2032 
2032 2032 2032 2032 2032 2032 2032 2032 2032 
2032 2032 2032 2032 2032 2032 2032 2032 2032 
2032 2032 2032 2032 2032 2032 2032 2032 2032 
2032 2032 2032 2032 2032 2032 2032 2032 2032 
2032 2032 2032 2032 2032 2032 2032 2032 2032 
2032 2032 2032 2032 2032 2032 2032 2032 2032 
2032 2032 2032 2032 2032 2032 2032 2032 2032 
2032 2032 2032 2032 2032 2032 2032 2032 2032 
2032 2032 2032 2032 2032 2032 2032 2032 2032 
2032 2032 2032 2032 2032 2032 2032 2032 2032 
2032 2032 2032 2032 2032 2032 2032 2032 2032 
2032 2032 2032 2032 2032 2032 2032 2032 2032 
2032 2032 2032 2032 2032 2032 2032 2032 2032 
2032 2032 2032 2032 2032 2032 2032 2032 2032 
2032 2032 2032 2032 2032 2032 2032 2032 2032 
2032 2032 2032 2032 2032 2032 2032 2032 2032 
2032 2032 2032 2032 2032 2032 2032 2032 2032 
2032 2032 2032 2032 2032 2032 2032 2032 2032 
2032 2032 2032 2032 2032 2032 2032 2032 2032 
2032 2032 2032 2032 2032 2032 2032 2032 2032 
2032 2032 2032 2032 2032 2032 2032 2032 2032 
2032 2032 2032 2032 2032 2032 2032 2032 2032 
2032 2032 2032 2032 2032 2032 2032 2032 2032 
2032 2032 2032 2032 2032 2032 2032 2032 2032 
2032 2032 2032 2032 2032 2032 2032 2032 2032 
2032 2032 2032 2032 2032 2032 2032 2032 2032 
2032 2032 2032 2032 2032 2032 2032 2032 2032 
2032 2032 2032 2032 2032 2032 2032 2032 2032 
2032 2032 2032 2032 2032 2032 2032 2032 2032 
2032 2032 2032 2032 2032 2032 2032 2032 2032 
2032 2032 2032 2032 2032 2032 2032 2032 2032 
2032 2032 2032 2032 2032 2032 2032 2032 2032 
2032 2032 2032 2032 2032 2032 2032 2032 2032 
2032 2032 2032 2032 2032 2032 2032 2032 2032 
2032 2032 2032 2032 2032 2032 2032 2032 2032 
2032 2032 2032 2032 2032 2032 2032 2032 2032 
2032 2032 2032 2032 2032 2032 2032 2032 2032 
2032 2032 2032 2032 2032 2032 2032 2032 2032 
2032 2032 2032 2032 2032 2032 2032 2032 2032 
2032 2032 2032 2032 2032 2032 2032 2032 2032 
2032 2032 2032 2032 2032 2032 2032 2032 2032 
2032 2032 2032 2032 2032 2032 2032 2032 2032 
2032 2032 2032 2032 2032 2032 2032 2032 2032 
2032 2032 2032 2032 2032 2032 2032 2032 2032 
2032 2032 2032 2032 2032 2032 2032 2032 2032 
2032 2032 2032 2032 2032 2032 2032 2032 2032 
2032 2032 2032 2032 2032 2032 2032 2032 2032 
2032 2032 2032 2032 2032 2032 2032 2032 2032 
2032 2032 2032 2032 2032 2032 2032 2032 2032 
2032 2032 2032 2032 2032 2032 2032 2032 2032 
2032 2032 2032 2032 2032 2032 2032 2032 2032 
2032 2032 2032 2032 2032 2032 2032 2032 2032 
2032 2032 2032 2032 2032 2032 2032 2032 2032 
2032 2032 2032 2032 2032 2032 2032 2032 2032 
2032 2032 2032 2032 2032 2032 2032 2032 2032 
2032 2032 2032 2032 2032 2032 2032 2032 2032 
2032 2032 2032 2032 2032 2032 2032 2032 2032 
2032 2032 2032 2032 2032 2032 2032 2032 2032 
2032 2032 2032 2032 2032 2032 2032 2032 2032 
2032 2032 2032 2032 2032 2032 2032 2032 2032 
2032 2032 2032 2032 2032 2032 2032 2032 2032 
2032 2032 2032 2032 2032 2032 2032 2032 2032 
2032 2032 2032 2032 2032 2032 2032 2032 2032 
2032 2032 2032 2032 2032 2032 2032 2032 2032 
2032 2032 2032 2032 2032 2032 2032 2032 2032 
2032 2032 2032 2032 2032 2032 2032 2032 2032 
2032 2032 2032 2032 2032 2032 2032 2032 2032 
2032 2032 2032 2032 2032 2032 2032 2032 2032 
2032 2032 2032 2032 2032 2032 2032 2032 2032 
2032 2032 2032 2032 2032 2032 2032 2032 2032 
2032 2032 2032 2032 2032 2032 2032 2032 2032 
2032 2032 2032 2032 2032 2032 2032 2032 2032 
2032 2032 2032 2032 2032 2032 2032 2032 2032 
2032 2032 2032 2032 2032 2032 2032 2032 2032 
2032 2032 2032 2032 2032 2032 2032 2032 2032 
2032 2032 2032 2032 2032 2032 2032 2032 2032 
2032 2032 2032 2032 2032 2032 2032 2032 2032 
2032 2032 2032 2032 2032 2032 2032 2032 2032 
2032 2032 2032 2032 2032 2032 2032 2032 2032 
2032 2032 2032 2032 2032 2032 2032 2032 2032 
2032 2032 2032 2032 2032 2032 2032 2032 2032 
2032 2032 2032 2032 2032 2032 2032 2032 2032 
2032 2032 2032 2032 2032 2032 2032 2032 2032 
2032 2032 2032 2032 2032 2032 2032 2032 2032 
2032 2032 2032 2032 2032 2032 2032 2032 2032 
2032 2032 2032 2032 2032 2032 2032 2032 2032 
2032 2032 2032 2032 2032 2032 2032 2032 2032 
2032 2032 2032 2032 2032 2032 2032 2032 2032 
2032 2032 2032 2032 2032 2032 2032 2032 2032 
2032 2032 2032 2032 2032 2032 2032 2032 2032 
2032 2032 2032 2032 2032 2032 2032 2032 2032 
2032 2032 2032 2032 2032 2032 2032 2032 2032 
2032 2032 2032 2032 2032 2032 2032 2032 2032 
2032 2032 2032 2032 2032 2032 2032 2032 2032 
2032 2032 2032 2032 2032 2032 2032 2032 2032 
2032 2032 2032 2032 2032 2032 2032 2032 2032 
2032 2032 2032 2032 2032 2032 2032 2032 2032 
2032 2032 2032 2032 2032 2032 2032 2032 2032 
2032 2032 2032 2032 2032 2032 2032 2032 2032 
2032 2032 2032 2032 2032 2032 2032 2032 2032 
2032 2032 2032 2032 2032 2032 2032 2032 2032 
2032 2032 2032 2032 2032 2032 2032 2032 2032 
2032 2032 2032 2032 2032 2032 2032 2032 2032 
2032 2032 2032 2032 2032 2032 2032 2032 2032 
2032 2032 2032 2032 2032 2032 2032 2032 2032 
2032 2032 2032 2032 2032 2032 2032 2032 2032 
2032 2032 2032 2032 2032 2032 2032 2032 2032 
2032 2032 2032 2032 2032 2032 2032 2032 2032 
2032 2032 2032 2032 2032 2032 2032 2032 2032 
2032 2032 2032 2032 2032 2032 2032 2032 2032 
2032 2032 2032 2032 2032 2032 2032 2032 2032 
2032 2032 2032 2032 2032 2032 2032 2032 2032 
2032 2032 2032 2032 2032 2032 2032 2032 2032 
2032 2032 2032 2032 2032 2032 2032 2032 2032 
2032 2032 2032 2032 2032 2032 2032 2032 2032 
2032 2032 2032 2032 2032 2032 2032 2032 2032 
2032 2032 2032 2032 2032 2032 2032 2032 2032 
2032 2032 2032 2032 2032 2032 2032 2032 2032 
2032 2032 2032 2032 2032 2032 2032 2032 2032 
2032 2032 2032 2032 2032 2032 2032 2032 2032 
2032 2032 2032 2032 2032 2032 2032 2032 2032 
2032 2032 2032 2032 2032 2032 2032 2032 2032 
2032 2032 2032 2032 2032 2032 2032 2032 2032 
2032 2032 2032 2032 2032 2032 2032 2032 2032 
2032 2032 2032 2032 2032 2032 2032 2032 2032 
2032 2032 2032 2032 2032 2032 2032 2032 2032 
2032 2032 2032 2032 2032 2032 2032 2032 2032 
2032 2032 2032 2032 2032 2032 2032 2032 2032 
2032 2032 2032 2032 2032 2032 2032 2032 2032 
2032 2032 2032 2032 2032 2032 2032 2032 2032 
2032 2032 2032 2032 2032 2032 2032 2032 2032 
2032 2032 2032 2032 2032 2032 2032 2032 2032 
2032 2032 2032 2032 2032 2032 2032 2032 2032 
2032 2032 2032 2032 2032 2032 2032 2032 2032 
2032 2032 2032 2032 2032 2032 2032 2032 2032 
2032 2032 2032 2032 2032 2032 2032 2032 2032 
2032 2032 2032 2032 2032 2032 2032 2032 2032 
2032 2032 2032 2032 2032 2032 2032 2032 2032 
2032 2032 2032 2032 2032 2032 2032 2032 2032 
2032 2032 2032 2032 2032 2032 2032 2032 2032 
2032 2032 2032 2032 2032 2032 2032 2032 2032 
2032 2032 2032 2032 2032 2032 2032 2032 2032 
2032 2032 2032 2032 2032 2032 2032 2032 2032 
2032 2032 2032 2032 2032 2032 2032 2032 2032 
2032 2032 2032 2032 2032 2032 2032 2032 2032 
2032 2032 2032 2032 2032 2032 2032 2032 2032 
2032 2032 2032 2032 2032 2032 2032 2032 2032 
2032 2032 2032 2032 2032 2032 2032 2032 2032 
2032 2032 2032 2032 2032 2032 2032 2032 2032 
2032 2032 2032 2032 2032 2032 2032 2032 2032 
2032 2032 2032 2032 2032 2032 2032 2032 2032 
2032 2032 2032 2032 2032 2032 2032 2032 2032 
2032 2032 2032 2032 2032 2032 2032 2032 2032 
2032 2032 2032 2032 2032 2032 2032 2032 2032 
2032 2032 2032 2032 2032 2032 2032 2032 2032 
2032 2032 2032 2032 2032 2032 2032 2032 2032 
2032 2032 2032 2032 2032 2032 2032 2032 2032 
2032 2032 2032 2032 2032 2032 2032 2032 2032 
2032 2032 2032 2032 2032 2032 2032 2032 2032 
2032 2032 2032 2032 2032 2032 2032 2032 2032 
2032 2032 2032 2032 2032 2032 2032 2032 2032 
2032 2032 2032 2032 2032 2032 2032 2032 2032 
2032 2032 2032 2032 2032 2032 2032 2032 2032 
2032 2032 2032 2032 2032 2032 2032 2032 2032 
2032 2032 2032 2032 2032 2032 2032 2032 2032 
2032 2032 2032 2032 2032 2032 2032 2032 2032 
2032 2032 2032 2032 2032 2032 2032 2032 2032 
2032 2032 2032 2032 2032 2032 2032 2032 2032 
2032 2032 2032 2032 2032 2032 2032 2032 2032 
2032 2032 2032 2032 2032 2032 2032 2032 2032 
2032 2032 2032 2032 2032 2032 2032 2032 2032 
2032 2032 2032 2032 2032 2032 2032 2032 2032 
2032 2032 2032 2032 2032 2032 2032 2032 2032 
2032 2032 2032 2032 2032 2032 2032 2032 2032 
2032 2032 2032 2032 2032 2032 2032 2032 2032 
2032 2032 2032 2032 2032 2032 2032 2032 2032 
2032 2032 2032 2032 2032 2032 2032 2032 2032 
2032 2032 2032 2032 2032 2032 2032 2032 2032 
2032 2032 2032 2032 2032 2032 2032 2032 2032 
2032 2032 2032 2032 2032 2032 2032 2032 2032 
2032 2032 2032 2032 2032 2032 2032 2032 2032 
2032 2032 2032 2032 2032 2032 2032 2032 2032 
2032 2032 2032 2032 2032 2032 2032 2032 2032 
2032 2032 2032 2032 2032 2032 2032 2032 2032 
2032 2032 2032 2032 2032 2032 2032 2032 2032 
2032 2032 2032 2032 2032 2032 2032 2032 2032 
2032 2032 2032 2032 2032 2032 2032 2032 2032 
2032 2032 2032 2032 2032 2032 2032 2032 2032 
2032 2032 2032 2032 2032 2032 2032 2032 2032 
2032 2032 2032 2032 2032 2032 2032 2032 2032 
2032 2032 2032 2032 2032 2032 2032 2032 2032 
2032 2032 2032 2032 2032 2032 2032 2032 2032 
2032 2032 2032 2032 2032 2032 2032 2032 2032 
2032 2032 2032 2032 2032 2032 2032 2032 2032 
2032 2032 2032 2032 2032 2032 2032 2032 2032 
2032 2032 2032 2032 2032 2032 2032 2032 2032 
2032 2032 2032 2032 2032 2032 2032 2032 2032 
2032 2032 2032 2032 2032 2032 2032 2032 2032 
2032 2032 2032 2032 2032 2032 2032 2032 2032 
2032 2032 2032 2032 2032 2032 2032 2032 2032 
2032 2032 2032 2032 2032 2032 2032 2032 2032 
2032 2032 2032 2032 2032 2032 2032 2032 2032 
2032 2032 2032 2032 2032 2032 2032 2032 2032 
2032 2032 2032 2032 2032 2032 2032 2032 2032 
2032 2032 2032 2032 2032 2032 2032 2032 2032 
2032 2032 2032 2032 2032 2032 2032 2032 2032 
2032 2032 2032 2032 2032 2032 2032 2032 2032 
2032 2032 2032 2032 2032 2032 2032 2032 2032 
2032 2032 2032 2032 2032 2032 2032 2032 2032 
2032 2032 2032 2032 2032 2032 2032 2032 2032 
2032 2032 2032 2032 2032 2032 2032 2032 2032 
2032 2032 2032 2032 2032 2032 2032 2032 2032 
2032 2032 2032 2032 2032 2032 2032 2032 2032 
2032 2032 2032 2032 2032 2032 2032 2032 2032 
2032 2032 2032 2032 2032 2032 2032 2032 2032 
2032 2032 2032 2032 2032 2032 2032 2032 2032 
2032 2032 2032 2032 2032 2032 2032 2032 2032 
2032 2032 2032 2032 2032 2032 2032 2032 2032 
2032 2032 2032 2032 2032 2032 2032 2032 2032 
2032 2032 2032 2032 2032 2032 2032 2032 2032 
2032 2032 2032 2032 2032 2032 2032 2032 2032 
2032 2032 2032 2032 2032 2032 2032 2032 2032 
2032 2032 2032 2032 2032 2032 2032 2032 2032 
2032 2032 2032 2032 2032 2032 2032 2032 2032 
2032 2032 2032 2032 2032 2032 2032 2032 2032 
2032 2032 2032 2032 2032 2032 2032 2032 2032 
2032 2032 2032 2032 2032 2032 2032 2032 2032 
2032 2032 2032 2032 2032 2032 2032 2032 2032 
2032 2032 2032 2032 2032 2032 2032 2032 2032 
2032 2032 2032 2032 2032 2032 2032 2032 2032 
2032 2032 2032 2032 2032 2032 2032 2032 2032 
2032 2032 2032 2032 2032 2032 2032 2032 2032 
2032 2032 2032 2032 2032 2032 2032 2032 2032 
2032 2032 2032 2032 2032 2032 2032 2032 2032 
2032 2032 2032 2032 2032 2032 2032 2032 2032 
2032 2032 2032 2032 2032 2032 2032 2032 2032 
2032 2032 2032 2032 2032 2032 2032 2032 2032 
2032 2032 2032 2032 2032 2032 2032 2032 2032 
2032 2032 2032 2032 2032 2032 2032 2032 2032 
2032 2032 2032 2032 2032 2032 2032 2032 2032 
2032 2032 2032 2032 2032 2032 2032 2032 2032 
2032 2032 2032 2032 2032 2032 2032 2032 2032 
2032 2032 2032 2032 2032 2032 2032 2032 2032 
2032 2032 2032 2032 2032 2032 2032 2032 2032 
2032 2032 2032 2032 2032 2032 2032 2032 2032 
2032 2032 2032 2032 2032 2032 2032 2032 2032 
2032 2032 2032 2032 2032 2032 2032 2032 2032 
2032 2032 2032 2032 2032 2032 2032 2032 2032 
2032 2032 2032 2032 2032 2032 2032 2032 2032 
2032 2032 2032 2032 2032 2032 2032 2032 2032 
2032 2032 2032 2032 2032 2032 2032 2032 2032 
2032 2032 2032 2032 2032 2032 2032 2032 2032 
2032 2032 2032 2032 2032 2032 2032 2032 2032 
2032 2032 2032 2032 2032 2032 2032 2032 2032 
2032 2032 2032 2032 2032 2032 2032 2032 2032 
2032 2032 2032 2032 2032 2032 2032 2032 2032 
2032 2032 2032 2032 2032 2032 2032 2032 2032 
2032 2032 2032 2032 2032 2032 2032 2032 2032 
2032 2032 2032 2032 2032 2032 2032 2032 2032 
2032 2032 2032 2032 2032 2032 2032 2032 2032 
2032 2032 2032 2032 2032 2032 2032 2032 2032 
2032 2032 2032 2032 2032 2032 2032 2032 2032 
2032 2032 2032 2032 2032 2032 2032 2032 2032 
2032 2032 2032 2032 2032 2032 2032 2032 2032 
2032 2032 2032 2032 2032 2032 2032 2032 2032 
2032 2032 2032 2032 2032 2032 2032 2032 2032 
2032 2032 2032 2032 2032 2032 2032 2032 2032 
2032 2032 2032 2032 2032 2032 2032 2032 2032 
2032 2032 2032 2032 2032 2032 2032 2032 2032 
2032 2032 2032 2032 2032 2032 2032 2032 2032 
2032 2032 2032 2032 2032 2032 2032 2032 2032 
2032 2032 2032 2032 2032 2032 2032 2032 2032 
2032 2032 2032 2032 2032 2032 2032 2032 2032 
2032 2032 2032 2032 2032 2032 2032 2032 2032 
2032 2032 2032 2032 2032 2032 2032 2032 2032 
2032 2032 2032 2032 2032 2032 2032 2032 2032 
2032 2032 2032 2032 2032 2032 2032 2032 2032 
2032 2032 2032 2032 2032 2032 2032 2032 2032 
2032 2032 2032 2032 2032 2032 2032 2032 2032 
2032 2032 2032 2032 2032 2032 2032 2032 2032 
2032 2032 2032 2032 2032 2032 2032 2032 2032 
2032 2032 2032 2032 2032 2032 2032 2032 2032 
2032 2032 2032 2032 2032 2032 2032 2032 2032 
2032 2032 2032 2032 2032 2032 2032 2032 2032 
2032 2032 2032 2032 2032 2032 2032 2032 2032 
2032 2032 2032 2032 2032 2032 2032 2032 2032 
2032 2032 2032 2032 2032 2032 2032 2032 2032 
2032 2032 2032 2032 2032 2032 2032 2032 2032 
2032 2032 2032 2032 2032 2032 2032 2032 2032 
2032 2032 2032 2032 2032 2032 2032 2032 2032 
2032 2032 2032 2032 2032 2032 2032 2032 2032 
2032 2032 2032 2032 2032 2032 2032 2032 2032 
2032 2032 2032 2032 2032 2032 2032 2032 2032 
2032 2032 2032 2032 2032 2032 2032 2032 2032 
2032 2032 2032 2032 2032 2032 2032 2032 2032 
2032 2032 2032 2032 2032 2032 2032 2032 2032 
2032 2032 2032 2032 2032 2032 2032 2032 2032 
2032 2032 2032 2032 2032 2032 2032 2032 2032 
2032 2032 2032 2032 2032 2032 2032 2032 2032 
2032 2032 2032 2032 2032 2032 2032 2032 2032 
2032 2032 2032 2032 2032 2032 2032 2032 2032 
2032 2032 2032 2032 2032 2032 2032 2032 2032 
2032 2032 2032 2032 2032 2032 2032 2032 2032 
2032 2032 2032 2032 2032 2032 2032 2032 2032 
2032 2032 2032 2032 2032 2032 2032 2032 2032 
2032 2032 2032 2032 2032 2032 2032 2032 2032 
2032 2032 2032 2032 2032 2032 2032 2032 2032 
2032 2032 2032 2032 2032 2032 2032 2032 2032 
2032 2032 2032 2032 2032 2032 2032 2032 2032 
2032 2032 2032 2032 2032 2032 2032 2032 2032 
2032 2032 2032 2032 2032 2032 2032 2032 2032 
2032 2032 2032 2032 2032 2032 2032 2032 2032 
2032 2032 2032 2032 2032 2032 2032 2032 2032 
2032 2032 2032 2032 2032 2032 2032 2032 2032 
2032 2032 2032 2032 2032 2032 2032 2032 2032 
2032 2032 2032 2032 2032 2032 2032 2032 2032 
2032 2032 2032 2032 2032 2032 2032 2032 2032 
2032 2032 2032 2032 2032 2032 2032 2032 2032 
2032 2032 2032 2032 2032 2032 2032 2032 2032 
2032 2032 2032 2032 2032 2032 2032 2032 2032 
2032 2032 2032 2032 2032 2032 2032 2032 2032 
2032 2032 2032 2032 2032 2032 2032 2032 2032 
2032 2032 2032 2032 2032 2032 2032 2032 2032 
2032 2032 2032 2032 2032 2032 2032 2032 2032 
2032 2032 2032 2032 2032 2032 2032 2032 2032 
2032 2032 2032 2032 2032 2032 2032 2032 2032 
2032 2032 2032 2032 2032 2032 2032 2032 2032 
2032 2032 2032 2032 2032 2032 2032 2032 2032 