# vtk DataFile Version 4.2
vtk output
ASCII
DATASET POLYDATA
POINTS 10902 float
-8.94264 -38.6845 37.1311 -8.83422 -38.4551 36.845 -8.54765 -38.8838 36.9684 
-9.27094 -38.8437 37.1067 -9.36571 -38.5072 36.8839 -9.73274 -38.7645 36.7558 
-7.15681 -39.4241 37.0906 -7.01504 -39.1939 36.9254 -6.86838 -39.4556 36.9237 
-7.17028 -39.3057 36.8333 -8.85652 -39.104 37.1204 -8.59173 -39.3805 36.916 
-9.18487 -39.3469 36.8572 -9.47257 -39.0595 36.88 -7.00844 -39.7304 37.1147 
-6.8213 -39.806 36.9134 -7.45779 -39.5905 36.8656 -7.41556 -39.8506 37.0959 
-7.83631 -39.815 36.8434 -8.86158 -39.5695 36.8691 -7.07189 -40.1782 36.8157 
-7.7624 -40.124 36.7991 -8.74438 -37.6665 36.4621 -8.69675 -37.3059 36.1343 
-8.37611 -37.6704 36.2165 -9.09076 -37.4643 36.2379 -8.34151 -37.9524 36.5251 
-8.19331 -37.8951 36.3469 -8.06417 -38.2636 36.3093 -8.74898 -38.1144 36.5995 
-9.15861 -37.8724 36.3366 -8.29558 -38.5193 36.6386 -7.99182 -38.7991 36.3144 
-9.28355 -38.2539 36.5129 -10.0476 -38.6795 36.4995 -9.83726 -38.4216 36.4499 
-10.235 -38.5882 36.1714 -6.95294 -39.3522 36.6953 -8.17137 -39.3615 36.6425 
-7.86196 -39.1775 36.2098 -9.42691 -39.3079 36.6588 -9.65551 -39.1727 36.4764 
-10.0282 -38.9316 36.2242 -7.07669 -39.5462 36.4437 -6.69413 -39.8529 36.5678 
-7.62807 -39.5194 36.4154 -8.18072 -39.951 36.7013 -8.61287 -39.8566 36.6105 
-9.03811 -39.8294 36.4451 -9.39332 -39.5607 36.2402 -5.78888 -40.6061 36.5337 
-5.66754 -40.3248 36.1734 -5.36007 -40.7032 36.226 -6.37802 -40.5598 36.5854 
-6.17673 -40.16 36.2484 -6.86592 -40.5644 36.5539 -7.2508 -40.4784 36.4522 
-7.70477 -40.3404 36.3127 -8.31321 -40.1864 36.3158 -8.81904 -40.1049 36.1783 
-5.29955 -40.9692 36.508 -5.12964 -40.9493 36.3674 -5.08465 -41.1094 36.377 
-5.73335 -41.0373 36.5498 -6.12122 -41.0523 36.4125 -6.60846 -40.8696 36.2485 
-7.13483 -40.6915 36.1708 -5.36613 -41.2595 36.3188 -5.88538 -41.3201 36.1947 
-8.26859 -37.4315 35.972 -8.38991 -37.2899 35.6906 -8.11744 -37.4846 35.7394 
-8.76563 -37.1038 35.8096 -9.57701 -37.613 36.034 -9.22602 -37.152 35.851 
-10.1601 -37.6469 35.9104 -9.9795 -37.1705 35.6084 -10.392 -37.4301 35.6565 
-8.19471 -38.0963 36.0227 -8.2015 -37.6329 35.8299 -8.34727 -37.8914 35.6507 
-9.58183 -38.0747 36.1982 -10.0857 -38.1124 36.068 -10.5396 -37.7308 35.7812 
-10.489 -38.0052 35.8892 -10.8022 -38.0141 35.5341 -8.226 -38.3747 35.4996 
-7.92397 -38.7201 35.8761 -10.573 -38.4434 35.7535 -10.3894 -38.8637 35.6612 
-5.95323 -39.3264 35.8564 -5.92398 -39.1097 35.6272 -5.67534 -39.311 35.7209 
-6.48958 -39.3171 35.9161 -6.39733 -39.0378 35.6971 -7.10076 -39.3953 36.0007 
-7.01031 -39.1035 35.6361 -7.62519 -39.2289 35.9875 -7.54657 -39.0433 35.6206 
-9.77043 -39.3125 35.9091 -10.0882 -39.1242 35.675 -5.83385 -39.5461 35.7666 
-6.0427 -39.785 35.6621 -6.37756 -39.6881 36.0536 -9.13331 -39.9458 35.8541 
-9.53815 -39.6385 35.5141 -5.27227 -40.4264 35.9582 -5.40903 -40.3241 35.6512 
-5.12224 -40.437 35.7009 -5.90331 -40.1264 35.6949 -7.5137 -40.5482 36.0884 
-7.82194 -40.4737 35.7751 -8.24457 -40.2982 35.6306 -8.76007 -40.1598 35.7013 
-5.26723 -41.0977 36.1437 -5.23452 -40.5993 35.7238 -5.43657 -41.0408 35.7121 
-6.29878 -41.18 36.0993 -6.66601 -41.0994 35.8293 -7.10602 -40.917 35.6629 
-7.54447 -40.6769 35.6641 -5.79328 -41.4251 35.7387 -6.43209 -41.3351 35.6498 
-8.84118 -36.9556 35.3999 -8.75957 -36.5806 35.0324 -8.55343 -36.8374 34.9581 
-9.56705 -36.8702 35.4404 -9.33536 -36.5874 35.0848 -9.98393 -36.8788 35.3562 
-9.88474 -36.735 35.1475 -10.2659 -36.9231 35.016 -8.22525 -37.5821 35.5672 
-8.52983 -37.4657 35.0979 -10.6943 -37.5632 35.4977 -10.6211 -37.2403 35.1709 
-10.9675 -37.5747 35.1357 -8.4309 -38.1141 35.1839 -11.0394 -38.0917 35.0514 
-6.36766 -38.8065 35.333 -6.25117 -38.52 34.9342 -6.07175 -38.805 34.9532 
-6.69464 -38.6592 34.9181 -8.14506 -38.4407 34.9214 -7.89747 -38.7356 35.2755 
-10.6519 -38.7443 35.4181 -10.8271 -38.5442 35.2444 -5.79627 -39.3897 35.5869 
-6.05757 -39.2618 35.2534 -6.89985 -38.8993 35.2458 -7.4255 -38.9173 35.0744 
-9.93095 -39.363 35.441 -10.2464 -39.209 35.2152 -10.6129 -38.958 35.0088 
-6.08744 -39.8925 35.0186 -9.13871 -39.9366 35.266 -9.50909 -39.704 34.9209 
-9.94114 -39.4938 35.0397 -5.1819 -40.4656 35.5337 -5.4154 -40.6155 35.3127 
-5.81861 -40.2882 35.1404 -7.93394 -40.4988 35.2584 -8.3049 -40.2796 34.9285 
-8.73258 -40.1275 35.1001 -5.22273 -40.8218 34.9031 -4.81642 -41.1763 35.1726 
-5.21373 -41.2221 35.3734 -6.92794 -41.1663 35.4567 -7.24171 -41.0799 35.1426 
-7.56787 -40.8038 35.0266 -4.71532 -41.5716 35.282 -4.47806 -41.3426 35.0427 
-4.38591 -41.6603 34.9216 -5.11499 -41.7379 35.3623 -5.59998 -41.6254 35.4103 
-6.02356 -41.688 35.1835 -6.43835 -41.5 35.0376 -6.94989 -41.2915 35.0599 
-4.76813 -41.927 35.0664 -5.36354 -41.9717 35.0672 -5.83973 -41.8857 35.002 
-9.34039 -35.8588 34.6799 -9.33248 -35.4089 34.4756 -9.05464 -35.6571 34.4657 
-9.62742 -35.5857 34.3727 -8.96796 -36.183 34.8038 -8.76053 -35.9979 34.3106 
-8.57963 -36.4225 34.6322 -9.45144 -36.2826 34.8047 -9.74675 -36.1003 34.4282 
-8.59507 -36.8248 34.4816 -9.91476 -36.5748 34.7326 -10.3266 -36.8299 34.3084 
-8.79296 -37.2674 34.5979 -8.80737 -37.6313 34.6703 -9.00869 -37.3839 34.3295 
-10.7139 -37.1207 34.507 -11.2608 -37.6839 34.7681 -11.0887 -37.3025 34.6434 
-11.3846 -37.4775 34.3718 -8.76522 -37.7988 34.3062 -8.50919 -38.0363 34.7079 
-11.2253 -38.1581 34.7176 -11.4562 -37.9947 34.3662 -5.86612 -38.5887 34.7372 
-5.98719 -38.5236 34.5423 -5.71341 -38.6324 34.5029 -6.43086 -38.5143 34.6393 
-6.68567 -38.6694 34.5595 -7.74228 -38.7015 34.8341 -7.77593 -38.4968 34.5565 
-7.41772 -38.6923 34.519 -8.08931 -38.2927 34.4951 -10.9836 -38.6262 34.7105 
-11.2804 -38.47 34.431 -5.81602 -38.7988 34.583 -6.0369 -39.2495 34.3968 
-6.91422 -38.8292 34.4992 -10.3217 -39.3112 34.6566 -10.7349 -39.0473 34.3161 
-6.16061 -39.9202 34.4734 -9.06929 -39.9025 34.7192 -9.38826 -39.6894 34.3308 
-9.93126 -39.5388 34.497 -5.73999 -40.5363 34.8442 -6.03207 -40.32 34.5616 
-7.93469 -40.4972 34.6518 -8.20985 -40.2757 34.4037 -8.60326 -40.0798 34.4703 
-4.64858 -41.031 34.8737 -4.77613 -40.9486 34.5415 -4.3861 -41.2427 34.6686 
-5.34232 -40.8275 34.4127 -5.72234 -40.648 34.5719 -7.32944 -41.0951 34.6431 
-7.62313 -40.7881 34.3305 -4.36131 -41.5634 34.5135 -6.20729 -41.8165 34.5471 
-6.5868 -41.5341 34.3783 -6.95474 -41.3294 34.4953 -4.5368 -41.8828 34.6589 
-5.08538 -42.12 34.5131 -5.73977 -42.0943 34.5776 -9.61426 -35.1026 34.1782 
-9.4958 -34.8556 33.7613 -9.20785 -35.1952 34.071 -9.96468 -35.0451 34.0406 
-9.87259 -34.8701 33.9274 -10.1404 -35.0695 33.7325 -8.99139 -35.6457 33.8186 
-9.96437 -35.3926 33.9487 -9.85978 -35.7765 34.0529 -8.82057 -36.057 33.8129 
-8.63287 -36.3248 34.0871 -9.9778 -36.0705 33.9875 -10.0556 -36.4063 34.2415 
-10.2012 -36.2987 33.7922 -8.7698 -36.64 33.9783 -8.87251 -36.9938 34.2338 
-9.03897 -36.8781 33.8102 -10.363 -36.863 33.6805 -9.05793 -37.4526 33.9218 
-10.6101 -37.1307 33.9655 -11.0724 -37.198 33.9435 -11.5163 -37.5247 33.9915 
-7.67443 -38.2441 34.189 -7.64908 -37.8826 33.8932 -7.28262 -38.1254 33.8902 
-8.2799 -38.0774 34.3041 -8.17941 -37.8283 33.9626 -8.74729 -37.691 33.9026 
-11.6318 -38.1154 33.8689 -5.87586 -38.7585 34.3823 -6.33621 -38.7511 34.3395 
-7.12409 -38.5762 34.1486 -6.98253 -38.4332 33.9088 -6.77433 -38.6704 33.9502 
-11.1371 -38.7909 34.2552 -11.418 -38.5649 34.037 -5.813 -39.1324 33.8309 
-5.64654 -39.4233 33.7321 -5.79337 -39.28 34.0371 -6.29616 -38.91 33.8939 
-10.321 -39.3302 34.0654 -10.6921 -39.1111 33.7087 -11.1295 -38.9145 33.8538 
-5.84691 -39.5331 33.9825 -6.00267 -39.9787 34.0958 -8.89497 -39.8531 34.2812 
-8.58784 -39.9277 33.9643 -8.92473 -39.7026 33.8148 -9.48772 -39.6183 33.8017 
-9.91874 -39.5327 33.9138 -5.78146 -40.5382 34.1588 -5.77136 -40.1743 33.7849 
-5.6077 -40.4678 33.7395 -7.91768 -40.4856 34.0425 -8.26274 -40.1917 33.8366 
-4.53604 -41.2462 34.3516 -4.96828 -41.1911 34.1662 -5.43805 -40.9036 33.8862 
-7.31726 -41.0883 34.0477 -7.6222 -40.794 33.7254 -4.69371 -41.7059 34.2507 
-4.92607 -41.6527 33.9181 -5.1935 -41.36 33.7095 -6.43728 -41.7081 34.1984 
-6.61696 -41.6486 33.9507 -6.95397 -41.3998 33.8435 -4.99467 -42.1838 33.8704 
-5.2428 -42.3674 34.159 -5.59878 -42.3687 34.1798 -6.04301 -42.2247 34.0377 
-6.39325 -41.9443 33.8141 -5.4152 -42.5319 33.8206 -5.82178 -42.5087 33.7657 
-9.53974 -34.8204 33.2339 -9.18863 -35.1817 33.4016 -9.92108 -34.7755 33.5245 
-10.2696 -34.9917 33.3341 -9.08511 -35.633 33.2871 -10.0604 -35.8015 33.7547 
-10.3124 -35.5938 33.445 -8.85173 -36.3772 33.7099 -9.05247 -36.1876 33.353 
-10.3618 -36.3405 33.3309 -9.05172 -36.9547 33.3537 -10.417 -36.7968 33.2524 
-11.4469 -37.0102 33.5746 -11.2565 -36.6713 33.1717 -10.9588 -36.9508 33.3696 
-11.8636 -37.0293 33.4883 -11.7101 -36.7302 33.3119 -11.9974 -36.8726 33.196 
-7.65503 -37.6127 33.6102 -7.63092 -37.2309 33.3284 -7.27703 -37.4513 33.3299 
-8.39693 -37.5123 33.6034 -8.05676 -37.1884 33.3143 -8.88167 -37.4453 33.608 
-8.65471 -37.1706 33.2951 -10.6172 -37.0698 33.4689 -11.8023 -37.5739 33.6419 
-12.0682 -37.3236 33.2544 -6.97 -38.1044 33.6205 -6.92226 -37.7119 33.2381 
-6.66249 -38.0923 33.2313 -11.8041 -38.1807 33.5304 -12.0136 -37.9159 33.2426 
-6.49939 -38.5475 33.5639 -6.3756 -38.4292 33.0943 -6.16315 -38.786 33.2609 
-11.5345 -38.6258 33.5009 -11.8451 -38.4069 33.1141 -5.88036 -39.0597 33.3395 
-5.61945 -39.2988 33.4267 -10.3084 -39.3212 33.4728 -10.7097 -39.1008 33.1253 
-11.1363 -38.937 33.3009 -5.75836 -39.8015 33.7331 -5.58698 -39.9241 33.3572 
-8.47978 -39.882 33.3137 -8.76321 -39.5143 33.2912 -9.32872 -39.5137 33.3195 
-9.92454 -39.5201 33.3362 -5.50669 -40.5911 33.4076 -7.98077 -40.5965 33.3051 
-8.24337 -40.2961 33.2504 -5.53602 -41.1029 33.174 -7.35929 -41.1073 33.4778 
-7.66198 -40.9016 33.2431 -5.26521 -41.5217 33.2696 -5.02127 -41.7976 33.5155 
-6.71883 -41.7039 33.451 -7.13118 -41.4179 33.1354 -4.89591 -42.3011 33.1969 
-6.13771 -42.3414 33.4474 -6.45262 -42.0381 33.1396 -5.29793 -42.5654 33.306 
-5.76595 -42.5794 33.3078 -10.0903 -34.6035 33.0059 -10.066 -34.2832 32.5305 
[...]
CELL_DATA 21872
SCALARS scalars float
LOOKUP_TABLE default
1012 1012 1012 1012 1012 1012 1012 1012 1012 
1012 1012 1012 1012 1012 1012 1012 1012 1012 
1012 1012 1012 1012 1012 1012 1012 1012 1012 
1012 1012 1012 1012 1012 1012 1012 1012 1012 
1012 1012 1012 1012 1012 1012 1012 1012 1012 
1012 1012 1012 1012 1012 1012 1012 1012 1012 
1012 1012 1012 1012 1012 1012 1012 1012 1012 
1012 1012 1012 1012 1012 1012 1012 1012 1012 
1012 1012 1012 1012 1012 1012 1012 1012 1012 
1012 1012 1012 1012 1012 1012 1012 1012 1012 
1012 1012 1012 1012 1012 1012 1012 1012 1012 
1012 1012 1012 1012 1012 1012 1012 1012 1012 
1012 1012 1012 1012 1012 1012 1012 1012 1012 
1012 1012 1012 1012 1012 1012 1012 1012 1012 
1012 1012 1012 1012 1012 1012 1012 1012 1012 
1012 1012 1012 1012 1012 1012 1012 1012 1012 
1012 1012 1012 1012 1012 1012 1012 1012 1012 
1012 1012 1012 1012 1012 1012 1012 1012 1012 
1012 1012 1012 1012 1012 1012 1012 1012 1012 
1012 1012 1012 1012 1012 1012 1012 1012 1012 
1012 1012 1012 1012 1012 1012 1012 1012 1012 
1012 1012 1012 1012 1012 1012 1012 1012 1012 
1012 1012 1012 1012 1012 1012 1012 1012 1012 
1012 1012 1012 1012 1012 1012 1012 1012 1012 
1012 1012 1012 1012 1012 1012 1012 1012 1012 
1012 1012 1012 1012 1012 1012 1012 1012 1012 
1012 1012 1012 1012 1012 1012 1012 1012 1012 
1012 1012 1012 1012 1012 1012 1012 1012 1012 
1012 1012 1012 1012 1012 1012 1012 1012 1012 
1012 1012 1012 1012 1012 1012 1012 1012 1012 
1012 1012 1012 1012 1012 1012 1012 1012 1012 
1012 1012 1012 1012 1012 1012 1012 1012 1012 
1012 1012 1012 1012 1012 1012 1012 1012 1012 
1012 1012 1012 1012 1012 1012 1012 1012 1012 
1012 1012 1012 1012 1012 1012 1012 1012 1012 
1012 1012 1012 1012 1012 1012 1012 1012 1012 
1012 1012 1012 1012 1012 1012 1012 1012 1012 
1012 1012 1012 1012 1012 1012 1012 1012 1012 
1012 1012 1012 1012 1012 1012 1012 1012 1012 
1012 1012 1012 1012 1012 1012 1012 1012 1012 
1012 1012 1012 1012 1012 1012 1012 1012 1012 
1012 1012 1012 1012 1012 1012 1012 1012 1012 
1012 1012 1012 1012 1012 1012 1012 1012 1012 
1012 1012 1012 1012 1012 1012 1012 1012 1012 
1012 1012 1012 1012 1012 1012 1012 1012 1012 
1012 1012 1012 1012 1012 1012 1012 1012 1012 
1012 1012 1012 1012 1012 1012 1012 1012 1012 
1012 1012 1012 1012 1012 1012 1012 1012 1012 
1012 1012 1012 1012 1012 1012 1012 1012 1012 
1012 1012 1012 1012 1012 1012 1012 1012 1012 
1012 1012 1012 1012 1012 1012 1012 1012 1012 
1012 1012 1012 1012 1012 1012 1012 1012 1012 
1012 1012 1012 1012 1012 1012 1012 1012 1012 
1012 1012 1012 1012 1012 1012 1012 1012 1012 
1012 1012 1012 1012 1012 1012 1012 1012 1012 
1012 1012 1012 1012 1012 1012 1012 1012 1012 
1012 1012 1012 1012 1012 1012 1012 1012 1012 
1012 1012 1012 1012 1012 1012 1012 1012 1012 
1012 1012 1012 1012 1012 1012 1012 1012 1012 
1012 1012 1012 1012 1012 1012 1012 1012 1012 
1012 1012 1012 1012 1012 1012 1012 1012 1012 
1012 1012 1012 1012 1012 1012 1012 1012 1012 
1012 1012 1012 1012 1012 1012 1012 1012 1012 
1012 1012 1012 1012 1012 1012 1012 1012 1012 
1012 1012 1012 1012 1012 1012 1012 1012 1012 
1012 1012 1012 1012 1012 1012 1012 1012 1012 
1012 1012 1012 1012 1012 1012 1012 1012 1012 
1012 1012 1012 1012 1012 1012 1012 1012 1012 
1012 1012 1012 1012 1012 1012 1012 1012 1012 
1012 1012 1012 1012 1012 1012 1012 1012 1012 
1012 1012 1012 1012 1012 1012 1012 1012 1012 
1012 1012 1012 1012 1012 1012 1012 1012 1012 
1012 1012 1012 1012 1012 1012 1012 1012 1012 
1012 1012 1012 1012 1012 1012 1012 1012 1012 
1012 1012 1012 1012 1012 1012 1012 1012 1012 
1012 1012 1012 1012 1012 1012 1012 1012 1012 
1012 1012 1012 1012 1012 1012 1012 1012 1012 
1012 1012 1012 1012 1012 1012 1012 1012 1012 
1012 1012 1012 1012 1012 1012 1012 1012 1012 
1012 1012 1012 1012 1012 1012 1012 1012 1012 
1012 1012 1012 1012 1012 1012 1012 1012 1012 
1012 1012 1012 1012 1012 1012 1012 1012 1012 
1012 1012 1012 1012 1012 1012 1012 1012 1012 
1012 1012 1012 1012 1012 1012 1012 1012 1012 
1012 1012 1012 1012 1012 1012 1012 1012 1012 
1012 1012 1012 1012 1012 1012 1012 1012 1012 
1012 1012 1012 1012 1012 1012 1012 1012 1012 
1012 1012 1012 1012 1012 1012 1012 1012 1012 
1012 1012 1012 1012 1012 1012 1012 1012 1012 
1012 1012 1012 1012 1012 1012 1012 1012 1012 
1012 1012 1012 1012 1012 1012 1012 1012 1012 
1012 1012 1012 1012 1012 1012 1012 1012 1012 
1012 1012 1012 1012 1012 1012 1012 1012 1012 
1012 1012 1012 1012 1012 1012 1012 1012 1012 
1012 1012 1012 1012 1012 1012 1012 1012 1012 
1012 1012 1012 1012 1012 1012 1012 1012 1012 
1012 1012 1012 1012 1012 1012 1012 1012 1012 
1012 1012 1012 1012 1012 1012 1012 1012 1012 
1012 1012 1012 1012 1012 1012 1012 1012 1012 
1012 1012 1012 1012 1012 1012 1012 1012 1012 
1012 1012 1012 1012 1012 1012 1012 1012 1012 
1012 1012 1012 1012 1012 1012 1012 1012 1012 
1012 1012 1012 1012 1012 1012 1012 1012 1012 
1012 1012 1012 1012 1012 1012 1012 1012 1012 
1012 1012 1012 1012 1012 1012 1012 1012 1012 
1012 1012 1012 1012 1012 1012 1012 1012 1012 
1012 1012 1012 1012 1012 1012 1012 1012 1012 
1012 1012 1012 1012 1012 1012 1012 1012 1012 
1012 1012 1012 1012 1012 1012 1012 1012 1012 
1012 1012 1012 1012 1012 1012 1012 1012 1012 
1012 1012 1012 1012 1012 1012 1012 1012 1012 
1012 1012 1012 1012 1012 1012 1012 1012 1012 
1012 1012 1012 1012 1012 1012 1012 1012 1012 
1012 1012 1012 1012 1012 1012 1012 1012 1012 
1012 1012 1012 1012 1012 1012 1012 1012 1012 
1012 1012 1012 1012 1012 1012 1012 1012 1012 
1012 1012 1012 1012 1012 1012 1012 1012 1012 
1012 1012 1012 1012 1012 1012 1012 1012 1012 
1012 1012 1012 1012 1012 1012 1012 1012 1012 
1012 1012 1012 1012 1012 1012 1012 1012 1012 
1012 1012 1012 1012 1012 1012 1012 1012 1012 
1012 1012 1012 1012 1012 1012 1012 1012 1012 
1012 1012 1012 1012 1012 1012 1012 1012 1012 
1012 1012 1012 1012 1012 1012 1012 1012 1012 
1012 1012 1012 1012 1012 1012 1012 1012 1012 
1012 1012 1012 1012 1012 1012 1012 1012 1012 
1012 1012 1012 1012 1012 1012 1012 1012 1012 
1012 1012 1012 1012 1012 1012 1012 1012 1012 
1012 1012 1012 1012 1012 1012 1012 1012 1012 
1012 1012 1012 1012 1012 1012 1012 1012 1012 
1012 1012 1012 1012 1012 1012 1012 1012 1012 
1012 1012 1012 1012 1012 1012 1012 1012 1012 
1012 1012 1012 1012 1012 1012 1012 1012 1012 
1012 1012 1012 1012 1012 1012 1012 1012 1012 
1012 1012 1012 1012 1012 1012 1012 1012 1012 
1012 1012 1012 1012 1012 1012 1012 1012 1012 
1012 1012 1012 1012 1012 1012 1012 1012 1012 
1012 1012 1012 1012 1012 1012 1012 1012 1012 
1012 1012 1012 1012 1012 1012 1012 1012 1012 
1012 1012 1012 1012 1012 1012 1012 1012 1012 
1012 1012 1012 1012 1012 1012 1012 1012 1012 
1012 1012 1012 1012 1012 1012 1012 1012 1012 
1012 1012 1012 1012 1012 1012 1012 1012 1012 
1012 1012 1012 1012 1012 1012 1012 1012 1012 
1012 1012 1012 1012 1012 1012 1012 1012 1012 
1012 1012 1012 1012 1012 1012 1012 1012 1012 
1012 1012 1012 1012 1012 1012 1012 1012 1012 
1012 1012 1012 1012 1012 1012 1012 1012 1012 
1012 1012 1012 1012 1012 1012 1012 1012 1012 
1012 1012 1012 1012 1012 1012 1012 1012 1012 
1012 1012 1012 1012 1012 1012 1012 1012 1012 
1012 1012 1012 1012 1012 1012 1012 1012 1012 
1012 1012 1012 1012 1012 1012 1012 1012 1012 
1012 1012 1012 1012 1012 1012 1012 1012 1012 
1012 1012 1012 1012 1012 1012 1012 1012 1012 
1012 1012 1012 1012 1012 1012 1012 1012 1012 
1012 1012 1012 1012 1012 1012 1012 1012 1012 
1012 1012 1012 1012 1012 1012 1012 1012 1012 
1012 1012 1012 1012 1012 1012 1012 1012 1012 
1012 1012 1012 1012 1012 1012 1012 1012 1012 
1012 1012 1012 1012 1012 1012 1012 1012 1012 
1012 1012 1012 1012 1012 1012 1012 1012 1012 
1012 1012 1012 1012 1012 1012 1012 1012 1012 
1012 1012 1012 1012 1012 1012 1012 1012 1012 
1012 1012 1012 1012 1012 1012 1012 1012 1012 
1012 1012 1012 1012 1012 1012 1012 1012 1012 
1012 1012 1012 1012 1012 1012 1012 1012 1012 
1012 1012 1012 1012 1012 1012 1012 1012 1012 
1012 1012 1012 1012 1012 1012 1012 1012 1012 
1012 1012 1012 1012 1012 1012 1012 1012 1012 
1012 1012 1012 1012 1012 1012 1012 1012 1012 
1012 1012 1012 1012 1012 1012 1012 1012 1012 
1012 1012 1012 1012 1012 1012 1012 1012 1012 
1012 1012 1012 1012 1012 1012 1012 1012 1012 
1012 1012 1012 1012 1012 1012 1012 1012 1012 
1012 1012 1012 1012 1012 1012 1012 1012 1012 
1012 1012 1012 1012 1012 1012 1012 1012 1012 
1012 1012 1012 1012 1012 1012 1012 1012 1012 
1012 1012 1012 1012 1012 1012 1012 1012 1012 
1012 1012 1012 1012 1012 1012 1012 1012 1012 
1012 1012 1012 1012 1012 1012 1012 1012 1012 
1012 1012 1012 1012 1012 1012 1012 1012 1012 
1012 1012 1012 1012 1012 1012 1012 1012 1012 
1012 1012 1012 1012 1012 1012 1012 1012 1012 
1012 1012 1012 1012 1012 1012 1012 1012 1012 
1012 1012 1012 1012 1012 1012 1012 1012 1012 
1012 1012 1012 1012 1012 1012 1012 1012 1012 
1012 1012 1012 1012 1012 1012 1012 1012 1012 
1012 1012 1012 1012 1012 1012 1012 1012 1012 
1012 1012 1012 1012 1012 1012 1012 1012 1012 
1012 1012 1012 1012 1012 1012 1012 1012 1012 
1012 1012 1012 1012 1012 1012 1012 1012 1012 
1012 1012 1012 1012 1012 1012 1012 1012 1012 
1012 1012 1012 1012 1012 1012 1012 1012 1012 
1012 1012 1012 1012 1012 1012 1012 1012 1012 
1012 1012 1012 1012 1012 1012 1012 1012 1012 
1012 1012 1012 1012 1012 1012 1012 1012 1012 
1012 1012 1012 1012 1012 1012 1012 1012 1012 
1012 1012 1012 1012 1012 1012 1012 1012 1012 
1012 1012 1012 1012 1012 1012 1012 1012 1012 
1012 1012 1012 1012 1012 1012 1012 1012 1012 
1012 1012 1012 1012 1012 1012 1012 1012 1012 
1012 1012 1012 1012 1012 1012 1012 1012 1012 
1012 1012 1012 1012 1012 1012 1012 1012 1012 
1012 1012 1012 1012 1012 1012 1012 1012 1012 
1012 1012 1012 1012 1012 1012 1012 1012 1012 
1012 1012 1012 1012 1012 1012 1012 1012 1012 
1012 1012 1012 1012 1012 1012 1012 1012 1012 
1012 1012 1012 1012 1012 1012 1012 1012 1012 
1012 1012 1012 1012 1012 1012 1012 1012 1012 
1012 1012 1012 1012 1012 1012 1012 1012 1012 
1012 1012 1012 1012 1012 1012 1012 1012 1012 
1012 1012 1012 1012 1012 1012 1012 1012 1012 
1012 1012 1012 1012 1012 1012 1012 1012 1012 
1012 1012 1012 1012 1012 1012 1012 1012 1012 
1012 1012 1012 1012 1012 1012 1012 1012 1012 
1012 1012 1012 1012 1012 1012 1012 1012 1012 
1012 1012 1012 1012 1012 1012 1012 1012 1012 
1012 1012 1012 1012 1012 1012 1012 1012 1012 
1012 1012 1012 1012 1012 1012 1012 1012 1012 
1012 1012 1012 1012 1012 1012 1012 1012 1012 
1012 1012 1012 1012 1012 1012 1012 1012 1012 
1012 1012 1012 1012 1012 1012 1012 1012 1012 
1012 1012 1012 1012 1012 1012 1012 1012 1012 
1012 1012 1012 1012 1012 1012 1012 1012 1012 
1012 1012 1012 1012 1012 1012 1012 1012 1012 
1012 1012 1012 1012 1012 1012 1012 1012 1012 
1012 1012 1012 1012 1012 1012 1012 1012 1012 
1012 1012 1012 1012 1012 1012 1012 1012 1012 
1012 1012 1012 1012 1012 1012 1012 1012 1012 
1012 1012 1012 1012 1012 1012 1012 1012 1012 
1012 1012 1012 1012 1012 1012 1012 1012 1012 
1012 1012 1012 1012 1012 1012 1012 1012 1012 
1012 1012 1012 1012 1012 1012 1012 1012 1012 
1012 1012 1012 1012 1012 1012 1012 1012 1012 
1012 1012 1012 1012 1012 1012 1012 1012 1012 
1012 1012 1012 1012 1012 1012 1012 1012 1012 
1012 1012 1012 1012 1012 1012 1012 1012 1012 
1012 1012 1012 1012 1012 1012 1012 1012 1012 
1012 1012 1012 1012 1012 1012 1012 1012 1012 
1012 1012 1012 1012 1012 1012 1012 1012 1012 
1012 1012 1012 1012 1012 1012 1012 1012 1012 
1012 1012 1012 1012 1012 1012 1012 1012 1012 
1012 1012 1012 1012 1012 1012 1012 1012 1012 
1012 1012 1012 1012 1012 1012 1012 1012 1012 
1012 1012 1012 1012 1012 1012 1012 1012 1012 
1012 1012 1012 1012 1012 1012 1012 1012 1012 
1012 1012 1012 1012 1012 1012 1012 1012 1012 
1012 1012 1012 1012 1012 1012 1012 1012 1012 
1012 1012 1012 1012 1012 1012 1012 1012 1012 
1012 1012 1012 1012 1012 1012 1012 1012 1012 
1012 1012 1012 1012 1012 1012 1012 1012 1012 
1012 1012 1012 1012 1012 1012 1012 1012 1012 
1012 1012 1012 1012 1012 1012 1012 1012 1012 
1012 1012 1012 1012 1012 1012 1012 1012 1012 
1012 1012 1012 1012 1012 1012 1012 1012 1012 
1012 1012 1012 1012 1012 1012 1012 1012 1012 
1012 1012 1012 1012 1012 1012 1012 1012 1012 
1012 1012 1012 1012 1012 1012 1012 1012 1012 
1012 1012 1012 1012 1012 1012 1012 1012 1012 
1012 1012 1012 1012 1012 1012 1012 1012 1012 
1012 1012 1012 1012 1012 1012 1012 1012 1012 
1012 1012 1012 1012 1012 1012 1012 1012 1012 
1012 1012 1012 1012 1012 1012 1012 1012 1012 
1012 1012 1012 1012 1012 1012 1012 1012 1012 
1012 1012 1012 1012 1012 1012 1012 1012 1012 
1012 1012 1012 1012 1012 1012 1012 1012 1012 
1012 1012 1012 1012 1012 1012 1012 1012 1012 
1012 1012 1012 1012 1012 1012 1012 1012 1012 
1012 1012 1012 1012 1012 1012 1012 1012 1012 
1012 1012 1012 1012 1012 1012 1012 1012 1012 
1012 1012 1012 1012 1012 1012 1012 1012 1012 
1012 1012 1012 1012 1012 1012 1012 1012 1012 
1012 1012 1012 1012 1012 1012 1012 1012 1012 
1012 1012 1012 1012 1012 1012 1012 1012 1012 
1012 1012 1012 1012 1012 1012 1012 1012 1012 
1012 1012 1012 1012 1012 1012 1012 1012 1012 
1012 1012 1012 1012 1012 1012 1012 1012 1012 
1012 1012 1012 1012 1012 1012 1012 1012 1012 
1012 1012 1012 1012 1012 1012 1012 1012 1012 
1012 1012 1012 1012 1012 1012 1012 1012 1012 
1012 1012 1012 1012 1012 1012 1012 1012 1012 
1012 1012 1012 1012 1012 1012 1012 1012 1012 
1012 1012 1012 1012 1012 1012 1012 1012 1012 
1012 1012 1012 1012 1012 1012 1012 1012 1012 
1012 1012 1012 1012 1012 1012 1012 1012 1012 
1012 1012 1012 1012 1012 1012 1012 1012 1012 
1012 1012 1012 1012 1012 1012 1012 1012 1012 
1012 1012 1012 1012 1012 1012 1012 1012 1012 
1012 1012 1012 1012 1012 1012 1012 1012 1012 
1012 1012 1012 1012 1012 1012 1012 1012 1012 
1012 1012 1012 1012 1012 1012 1012 1012 1012 
1012 1012 1012 1012 1012 1012 1012 1012 1012 
1012 1012 1012 1012 1012 1012 1012 1012 1012 
1012 1012 1012 1012 1012 1012 1012 1012 1012 
1012 1012 1012 1012 1012 1012 1012 1012 1012 
1012 1012 1012 1012 1012 1012 1012 1012 1012 
1012 1012 1012 1012 1012 1012 1012 1012 1012 
1012 1012 1012 1012 1012 1012 1012 1012 1012 
1012 1012 1012 1012 1012 1012 1012 1012 1012 
1012 1012 1012 1012 1012 1012 1012 1012 1012 
1012 1012 1012 1012 1012 1012 1012 1012 1012 
1012 1012 1012 1012 1012 1012 1012 1012 1012 
1012 1012 1012 1012 1012 1012 1012 1012 1012 
1012 1012 1012 1012 1012 1012 1012 1012 1012 
1012 1012 1012 1012 1012 1012 1012 1012 1012 
1012 1012 1012 1012 1012 1012 1012 1012 1012 
1012 1012 1012 1012 1012 1012 1012 1012 1012 
1012 1012 1012 1012 1012 1012 1012 1012 1012 
1012 1012 1012 1012 1012 1012 1012 1012 1012 
1012 1012 1012 1012 1012 1012 1012 1012 1012 
1012 1012 1012 1012 1012 1012 1012 1012 1012 
1012 1012 1012 1012 1012 1012 1012 1012 1012 
1012 1012 1012 1012 1012 1012 1012 1012 1012 
1012 1012 1012 1012 1012 1012 1012 1012 1012 
1012 1012 1012 1012 1012 1012 1012 1012 1012 
1012 1012 1012 1012 1012 1012 1012 1012 1012 
1012 1012 1012 1012 1012 1012 1012 1012 1012 
1012 1012 1012 1012 1012 1012 1012 1012 1012 
1012 1012 1012 1012 1012 1012 1012 1012 1012 
1012 1012 1012 1012 1012 1012 1012 1012 1012 
1012 1012 1012 1012 1012 1012 1012 1012 1012 
1012 1012 1012 1012 1012 1012 1012 1012 1012 
1012 1012 1012 1012 1012 1012 1012 1012 1012 
1012 1012 1012 1012 1012 1012 1012 1012 1012 
1012 1012 1012 1012 1012 1012 1012 1012 1012 
1012 1012 1012 1012 1012 1012 1012 1012 1012 
1012 1012 1012 1012 1012 1012 1012 1012 1012 
1012 1012 1012 1012 1012 1012 1012 1012 1012 
1012 1012 1012 1012 1012 1012 1012 1012 1012 
1012 1012 1012 1012 1012 1012 1012 1012 1012 
1012 1012 1012 1012 1012 1012 1012 1012 1012 
1012 1012 1012 1012 1012 1012 1012 1012 1012 
1012 1012 1012 1012 1012 1012 1012 1012 1012 
1012 1012 1012 1012 1012 1012 1012 1012 1012 
1012 1012 1012 1012 1012 1012 1012 1012 1012 
1012 1012 1012 1012 1012 1012 1012 1012 1012 
1012 1012 1012 1012 1012 1012 1012 1012 1012 
1012 1012 1012 1012 1012 1012 1012 1012 1012 
1012 1012 1012 1012 1012 1012 1012 1012 1012 
1012 1012 1012 1012 1012 1012 1012 1012 1012 
1012 1012 1012 1012 1012 1012 1012 1012 1012 
1012 1012 1012 1012 1012 1012 1012 1012 1012 
1012 1012 1012 1012 1012 1012 1012 1012 1012 
1012 1012 1012 1012 1012 1012 1012 1012 1012 
1012 1012 1012 1012 1012 1012 1012 1012 1012 
1012 1012 1012 1012 1012 1012 1012 1012 1012 
1012 1012 1012 1012 1012 1012 1012 1012 1012 
1012 1012 1012 1012 1012 1012 1012 1012 1012 
1012 1012 1012 1012 1012 1012 1012 1012 1012 
1012 1012 1012 1012 1012 1012 1012 1012 1012 
1012 1012 1012 1012 1012 1012 1012 1012 1012 
1012 1012 1012 1012 1012 1012 1012 1012 1012 
1012 1012 1012 1012 1012 1012 1012 1012 1012 
1012 1012 1012 1012 1012 1012 1012 1012 1012 
1012 1012 1012 1012 1012 1012 1012 1012 1012 
1012 1012 1012 1012 1012 1012 1012 1012 1012 
1012 1012 1012 1012 1012 1012 1012 1012 1012 
1012 1012 1012 1012 1012 1012 1012 1012 1012 
1012 1012 1012 1012 1012 1012 1012 1012 1012 
1012 1012 1012 1012 1012 1012 1012 1012 1012 
1012 1012 1012 1012 1012 1012 1012 1012 1012 
1012 1012 1012 1012 1012 1012 1012 1012 1012 
1012 1012 1012 1012 1012 1012 1012 1012 1012 
1012 1012 1012 1012 1012 1012 1012 1012 1012 
1012 1012 1012 1012 1012 1012 1012 1012 1012 
1012 1012 1012 1012 1012 1012 1012 1012 1012 
1012 1012 1012 1012 1012 1012 1012 1012 1012 
1012 1012 1012 1012 1012 1012 1012 1012 1012 
1012 1012 1012 1012 1012 1012 1012 1012 1012 
1012 1012 1012 1012 1012 1012 1012 1012 1012 
1012 1012 1012 1012 1012 1012 1012 1012 1012 
1012 1012 1012 1012 1012 1012 1012 1012 1012 
1012 1012 1012 1012 1012 1012 1012 1012 1012 
1012 1012 1012 1012 1012 1012 1012 1012 1012 
1012 1012 1012 1012 1012 1012 1012 1012 1012 
1012 1012 1012 1012 1012 1012 1012 1012 1012 
1012 1012 1012 1012 1012 1012 1012 1012 1012 
1012 1012 1012 1012 1012 1012 1012 1012 1012 
1012 1012 1012 1012 1012 1012 1012 1012 1012 
1012 1012 1012 1012 1012 1012 1012 1012 1012 
1012 1012 1012 1012 1012 1012 1012 1012 1012 
1012 1012 1012 1012 1012 1012 1012 1012 1012 
1012 1012 1012 1012 1012 1012 1012 1012 1012 
1012 1012 1012 1012 1012 1012 1012 1012 1012 
1012 1012 1012 1012 1012 1012 1012 1012 1012 
1012 1012 1012 1012 1012 1012 1012 1012 1012 
1012 1012 1012 1012 1012 1012 1012 1012 1012 
1012 1012 1012 1012 1012 1012 1012 1012 1012 
1012 1012 1012 1012 1012 1012 1012 1012 1012 
1012 1012 1012 1012 1012 1012 1012 1012 1012 
1012 1012 1012 1012 1012 1012 1012 1012 1012 
1012 1012 1012 1012 1012 1012 1012 1012 1012 
1012 1012 1012 1012 1012 1012 1012 1012 1012 
1012 1012 1012 1012 1012 1012 1012 1012 1012 
1012 1012 1012 1012 1012 1012 1012 1012 1012 
1012 1012 1012 1012 1012 1012 1012 1012 1012 
1012 1012 1012 1012 1012 1012 1012 1012 1012 
1012 1012 1012 1012 1012 1012 1012 1012 1012 
1012 1012 1012 1012 1012 1012 1012 1012 1012 
1012 1012 1012 1012 1012 1012 1012 1012 1012 
1012 1012 1012 1012 1012 1012 1012 1012 1012 
1012 1012 1012 1012 1012 1012 1012 1012 1012 
1012 1012 1012 1012 1012 1012 1012 1012 1012 
1012 1012 1012 1012 1012 1012 1012 1012 1012 
1012 1012 1012 1012 1012 1012 1012 1012 1012 
1012 1012 1012 1012 1012 1012 1012 1012 1012 
1012 1012 1012 1012 1012 1012 1012 1012 1012 
1012 1012 1012 1012 1012 1012 1012 1012 1012 
1012 1012 1012 1012 1012 1012 1012 1012 1012 
1012 1012 1012 1012 1012 1012 1012 1012 1012 
1012 1012 1012 1012 1012 1012 1012 1012 1012 
1012 1012 1012 1012 1012 1012 1012 1012 1012 
1012 1012 1012 1012 1012 1012 1012 1012 1012 
1012 1012 1012 1012 1012 1012 1012 1012 1012 
1012 1012 1012 1012 1012 1012 1012 1012 1012 
1012 1012 1012 1012 1012 1012 1012 1012 1012 
1012 1012 1012 1012 1012 1012 1012 1012 1012 
1012 1012 1012 1012 1012 1012 1012 1012 1012 
1012 1012 1012 1012 1012 1012 1012 1012 1012 
1012 1012 1012 1012 1012 1012 1012 1012 1012 
1012 1012 1012 1012 1012 1012 1012 1012 1012 
1012 1012 1012 1012 1012 1012 1012 1012 1012 
1012 1012 1012 1012 1012 1012 1012 1012 1012 
1012 1012 1012 1012 1012 1012 1012 1012 1012 
1012 1012 1012 1012 1012 1012 1012 1012 1012 
1012 1012 1012 1012 1012 1012 1012 1012 1012 
1012 1012 1012 1012 1012 1012 1012 1012 1012 
1012 1012 1012 1012 1012 1012 1012 1012 1012 
1012 1012 1012 1012 1012 1012 1012 1012 1012 
1012 1012 1012 1012 1012 1012 1012 1012 1012 
1012 1012 1012 1012 1012 1012 1012 1012 1012 
1012 1012 1012 1012 1012 1012 1012 1012 1012 