# vtk DataFile Version 4.2
vtk output
ASCII
DATASET POLYDATA
POINTS 14954 float
-54.0152 22.2157 13.7867 -54.5304 22.7732 13.251 -54.729 22.1674 13.5591 
-53.7711 22.699 13.3437 -52.1974 22.3142 13.8817 -52.0035 22.8285 13.3335 
-52.8207 22.5293 13.4595 -51.5195 22.2067 13.8505 -51.4764 22.7386 13.585 
-50.8739 22.6565 13.3925 -54.4109 21.4372 13.9513 -55.0033 21.4054 13.6488 
-53.4235 22.2545 13.672 -53.3656 21.5336 13.924 -52.333 21.5794 13.9058 
-51.7609 21.6066 13.6207 -51.0361 22.0002 13.2404 -55.0622 20.6755 13.7799 
-55.4875 20.8717 13.4759 -55.5709 20.3931 13.5094 -54.37 20.5486 13.853 
-53.7784 20.5233 13.5866 -53.0335 20.8995 13.3177 -52.2579 21.1813 13.3607 
-57.0882 19.4303 13.8391 -57.3515 19.9974 13.403 -57.641 19.3672 13.3921 
-56.5612 19.1156 13.8044 -56.6356 19.9007 13.5756 -55.1241 20.1165 13.3348 
-56.1121 19.5473 13.3812 -54.3276 20.1081 13.313 -57.2486 18.711 13.8163 
-57.6293 18.6263 13.3806 -56.9066 18.4953 13.6521 -56.4794 18.9162 13.1794 
-57.351 18.28 13.5938 -53.2943 23.139 12.8522 -53.5585 23.6859 12.1784 
-53.7985 23.4631 12.4968 -52.7902 23.642 12.2548 -50.3072 23.1369 12.8011 
-50.0557 23.7168 12.2618 -50.7477 23.6847 12.3209 -49.6751 23.3022 12.2729 
-56.1655 22.3365 12.8085 -56.4178 22.8695 12.4198 -56.9474 22.3725 12.5431 
-55.2339 22.5506 13.088 -55.4058 23.0453 12.5968 -54.2794 23.2051 12.676 
-53.2834 22.5988 13.3592 -52.3697 23.1112 12.7719 -51.3419 23.153 12.8046 
-50.3621 22.4808 13.0677 -49.9316 22.6946 12.602 -57.0018 21.5631 12.7906 
-57.5479 21.9537 12.4184 -57.8168 21.1975 12.4713 -56.2935 21.5397 12.9754 
-55.5494 21.6817 13.2072 -51.7197 21.4205 12.8313 -51.0921 21.7659 12.2161 
-50.3358 22.1657 12.4945 -57.2097 20.6332 13.0202 -57.791 20.2342 12.6205 
-56.0582 20.4675 13.1405 -53.8335 20.3703 12.8448 -53.3399 20.811 12.1815 
-52.403 21.0429 12.509 -59.9667 19.4497 12.8221 -60.4168 19.9021 12.4878 
-60.5553 19.3481 12.5033 -59.0592 19.2094 12.8638 -59.642 19.9162 12.5438 
-58.6883 19.2863 12.2468 -57.6172 19.2553 12.6214 -55.3677 19.9631 12.6551 
-55.8899 19.5827 12.6393 -54.6307 20.0775 12.6235 -65.3647 18.5038 12.7319 
-65.5197 18.8759 12.3974 -65.5557 18.2145 12.3588 -65.023 18.5372 12.2692 
-60.1326 18.8989 12.6488 -59.86 18.3463 12.4094 -59.425 18.7343 12.8678 
-58.3332 18.8145 12.6587 -58.5437 18.4989 12.7935 -58.0967 18.4114 12.577 
-57.063 18.9368 12.6189 -57.2645 18.5434 13.1718 -56.5041 19.1476 12.4377 
-65.327 18.2201 12.6334 -59.1823 18.1131 12.3796 -58.4676 18.1639 12.2719 
-56.922 41.3639 11.8126 -57.3388 41.8742 11.4348 -57.6863 41.2014 11.5136 
-56.2686 41.3077 11.776 -56.6066 41.9599 11.5147 -55.9494 41.6125 11.453 
-57.2689 40.3951 11.9216 -57.9578 40.4362 11.5742 -56.407 40.5387 11.8887 
-55.7855 40.7837 11.5242 -58.0923 39.4746 11.8724 -58.4768 39.9407 11.4184 
-58.8776 39.3549 11.5444 -57.1601 39.3409 12.0444 -56.474 39.5158 11.8971 
-55.8204 39.7801 11.5149 -58.9541 38.5516 11.8302 -59.4538 38.9134 11.4146 
-59.7501 38.1616 11.5069 -58.1223 38.3799 12.0442 -57.2848 38.477 12.0543 
-56.4423 38.4948 11.8896 -55.8322 38.7639 11.4793 -59.2821 37.3629 11.9214 
-59.978 37.3996 11.5944 -58.2811 37.5039 12.067 -57.2987 37.4601 12.0712 
-56.2447 37.3996 11.9019 -55.6997 37.7965 11.4938 -60.0624 36.6593 11.8077 
-60.4892 36.9003 11.4513 -60.766 36.1326 11.5065 -59.377 36.2277 11.914 
-58.3341 36.4805 12.0501 -57.4674 36.6201 12.0673 -56.5538 36.3833 11.9068 
-55.4193 37.0498 11.5664 -55.5887 36.519 11.7181 -55.0145 36.6311 11.4067 
-60.2639 35.8171 11.73 -60.6958 35.3895 11.4183 -59.7802 35.6488 11.5987 
-59.2012 35.7213 11.5961 -58.7381 35.3188 11.4089 -58.5006 35.7336 11.806 
-57.4691 35.7187 11.8443 -56.7018 35.5871 11.5877 -55.9086 35.8731 11.5098 
-55.1604 36.1516 11.4003 -60.2059 35.2552 11.4164 -57.9605 35.0804 11.4633 
-57.1941 35.1155 11.4238 -47.3003 26.4389 11.6541 -47.3493 26.6387 11.3104 
-47.484 26.3136 11.3967 -46.8372 26.4581 11.2251 -52.0436 25.2606 11.714 
-52.3021 25.6876 11.483 -52.5487 25.2081 11.4079 -52.0747 25.4952 11.3317 
-48.181 25.1932 11.7417 -48.1124 25.6372 11.3855 -48.7155 25.3739 11.4113 
-47.2247 26.0687 11.4287 -47.8313 25.1888 11.4308 -52.3223 24.3481 11.8604 
-52.8133 24.6049 11.358 -51.5845 25.0238 11.3399 -51.3091 24.4009 11.8694 
-50.8033 24.691 11.3028 -48.3571 24.7048 11.7527 -48.6484 24.5613 11.5535 
-47.9896 24.6822 11.5867 -57.2494 23.4066 11.8019 -57.2238 23.9163 11.508 
-57.8002 23.5075 11.4913 -56.225 23.4205 11.9893 -56.5829 24.0186 11.4951 
-55.0249 23.537 12.0151 -55.552 24.0143 11.4858 -54.1989 23.5833 12.156 
-54.299 23.9587 11.4651 -53.184 24.101 11.4971 -52.0598 23.5208 12.2762 
-51.5127 23.7357 12.1811 -50.3807 24.1273 11.7808 -49.2753 23.3033 11.7662 
-49.5475 23.9015 11.7022 -48.3128 24.2787 11.3075 -49.0385 23.6035 11.3591 
-58.2059 22.5688 11.8155 -58.4864 22.9129 11.4339 -58.9174 22.2804 11.5388 
-57.2983 22.6542 12.1655 -49.7334 22.6414 11.8782 -49.3628 22.9951 11.1464 
-61.2142 21.18 11.7616 -61.4655 21.7373 11.4153 -61.9001 21.3327 11.5695 
-60.8818 21.6485 11.4002 -59.1231 21.4204 11.8219 -59.4786 21.8476 11.4075 
-59.913 21.3231 11.5546 -58.165 21.7353 12.1067 -51.8211 21.4016 11.8238 
-51.4732 21.7891 11.2289 -50.5691 22.104 11.4305 -65.2237 20.1889 11.8394 
-65.6464 20.8058 11.2714 -65.9766 20.4037 11.6401 -64.8351 20.6886 11.3436 
-62.0995 20.4414 11.8709 -62.4804 20.9344 11.4474 -62.9134 20.3325 11.5751 
-61.2753 20.5477 12.0207 -60.4787 21.2511 11.5706 -60.3031 20.6389 12.0298 
-59.1251 20.3036 12.1079 -58.355 20.6573 12.0391 -55.1901 20.2337 11.9575 
-55.7894 20.4719 11.4183 -55.1961 20.8366 11.4399 -54.3799 20.9509 11.5431 
-54.2152 20.4741 12.1326 -53.4307 21.1292 11.4171 -52.5955 21.1439 11.5798 
-65.9772 19.5748 11.8782 -66.4339 20.1582 11.4034 -66.5958 19.5484 11.2643 
-65.118 19.3986 12.168 -64.4136 20.1485 11.6163 -64.2041 19.5683 11.9067 
-63.1107 19.6692 11.8892 -63.6519 20.0568 11.5464 -62.3216 19.2225 11.9474 
-61.1816 19.6684 12.1653 -58.3241 19.7448 11.8254 -57.6091 19.8904 11.7464 
-57.8926 19.6069 11.369 -57.0037 19.4091 12.0153 -56.6385 20.0251 11.4334 
-56.1654 19.6951 11.9211 -67.328 18.4833 11.6972 -67.3263 18.6568 11.3309 
-67.4982 18.415 11.3014 -66.3169 19.0319 11.5537 -67.0751 18.5069 11.6147 
-65.971 18.4174 11.5578 -64.3976 18.8492 11.7513 -64.5805 18.2512 11.2849 
-64.0174 18.143 11.2753 -63.3204 18.4528 11.877 -62.6549 18.6236 11.5268 
-62.1555 18.8237 11.3072 -61.8055 18.3741 11.4562 -61.5674 18.488 11.9327 
-60.6386 18.4102 12.0992 -58.2597 18.5531 12.2868 -58.607 18.5835 11.6628 
-58.3401 19.1843 11.5972 -67.0676 18.288 11.3219 -65.1704 17.7758 12.0933 
-65.6175 17.3603 11.4163 -64.5751 17.9785 11.6955 -64.3215 17.5963 11.7956 
-63.4972 17.3804 11.8624 -62.4357 18.0329 11.3658 -62.3438 17.6241 11.8276 
-61.381 17.4894 11.7889 -60.8678 17.5115 11.554 -60.1343 17.911 11.6688 
-59.2686 18.0764 11.6051 -65.0637 17.1516 11.4671 -64.2955 17.1702 11.4607 
-63.3155 17.1471 11.5246 -62.2652 17.1065 11.489 -61.4935 17.1443 11.386 
-56.0468 16.3822 11.8956 -56.1297 16.7079 11.4866 -56.5459 16.2467 11.4995 
-55.0912 16.3979 11.9766 -55.3696 16.775 11.5561 -54.0553 16.418 11.9728 
-54.258 16.8328 11.3914 -53.0553 16.4024 11.9805 -53.2738 16.9464 11.4279 
-52.1342 16.2511 11.9024 -52.3539 16.8845 11.4252 -51.7015 16.6236 11.4228 
-56.4252 15.7412 11.8075 -56.8234 15.555 11.2858 -55.6704 15.6621 11.966 
-54.6313 15.6399 11.9888 -53.5911 15.6467 11.9882 -52.5634 15.6117 11.9873 
-51.4679 16.0711 11.6742 -51.6429 15.5252 11.8286 -51.0628 15.6297 11.5248 
-56.2049 15.1519 11.3353 -55.2107 15.1318 11.597 -54.1875 14.9679 11.2969 
-53.0565 15.1172 11.4322 -52.0068 15.0848 11.4499 -51.0772 15.1379 11.3188 
-58.2288 44.1867 10.7946 -58.373 44.8072 10.5395 -58.8764 44.5361 10.549 
-57.9215 44.6871 10.469 -59.0442 43.5571 10.8559 -59.4594 44.1353 10.4089 
-59.6828 43.4225 10.4084 -58.1674 43.34 11.0096 -57.4362 44.2103 10.6024 
-57.1951 43.5011 10.9075 -56.0105 43.3723 10.8902 -56.5753 44.0441 10.5338 
-55.0588 43.2308 10.851 -55.3592 44.0174 10.3142 -54.6643 43.569 10.4167 
-59.3271 42.38 10.9076 -59.9233 42.5559 10.3855 -58.5039 42.6867 11.0378 
-57.441 42.5436 11.1445 -56.2327 42.4753 11.1559 -55.2662 42.4647 11.0593 
-54.4089 43.0472 10.642 -54.4328 42.4123 10.8616 -53.9671 42.6842 10.257 
-59.9801 41.4868 10.8424 -60.3288 41.9253 10.2173 -60.5974 41.211 10.5528 
-59.144 41.3284 11.011 -58.2618 41.7848 11.1294 -55.2859 41.3809 11.1587 
-54.4262 41.4803 10.9244 -53.7711 41.7243 10.3765 -60.3247 40.3388 10.9109 
-60.9962 40.5607 10.4841 -59.4671 40.6268 11.0076 -58.5294 40.6731 11.1722 
-55.1583 40.2159 11.153 -54.242 40.4019 10.91 -53.6944 40.7658 10.5555 
-61.0017 39.5196 10.8293 -61.4135 40.0925 10.371 -61.6471 39.3869 10.3987 
-60.2931 39.4717 11.0103 -59.3965 39.6805 11.1462 -55.1915 39.2187 11.1162 
-54.3215 39.4581 10.9881 -53.2387 40.084 10.3805 -53.4385 39.4457 10.7996 
-52.8037 39.4847 10.3899 -61.3143 38.3443 10.8941 -61.9891 38.539 10.4513 
-60.2587 38.7465 11.117 -55.1606 38.2273 11.0936 -54.3235 38.4991 10.971 
-53.2761 38.4674 10.8889 -52.7163 38.8248 10.5486 -61.9984 37.5035 10.845 
-62.3904 38.0622 10.3635 -62.6481 37.3796 10.4133 -61.3221 37.4684 11.0193 
-60.5723 37.6361 11.195 -55.0131 37.2775 11.1838 -54.2884 37.4923 10.9837 
-53.2867 37.5049 10.9789 -52.4658 38.0779 10.6108 -52.4337 37.4247 10.7985 
-51.9663 37.557 10.4369 -62.337 36.3506 10.9385 -63.0133 36.5459 10.4995 
-61.2929 36.7305 11.1454 -54.4044 36.3462 11.089 -53.2598 36.4836 11.0173 
-52.1874 36.4104 10.914 -51.7022 36.7972 10.5112 -63.0419 35.5774 10.8304 
-63.4404 36.0642 10.4005 -63.6528 35.3478 10.239 -62.2012 35.2937 11.0497 
-61.3546 35.5338 11.1655 -59.4425 35.14 11.2219 -56.3021 35.1006 11.1864 
-55.1368 35.4736 11.1139 -54.2857 35.4697 10.9834 -53.4188 35.3573 10.9013 
-52.2631 35.452 11.017 -51.3921 36.0314 10.6094 -51.3889 35.3735 10.834 
-50.8787 35.5116 10.4548 -63.1972 34.8731 10.6359 -62.7835 34.2722 10.5071 
-62.3841 34.572 10.8763 -61.3564 34.4758 11.0282 -60.276 34.5993 11.1028 
-59.1325 34.2852 10.9923 -58.3331 34.5176 11.0923 -57.1679 34.4465 11.1029 
[...]
CELL_DATA 29996
SCALARS scalars float
LOOKUP_TABLE default
2031 2031 2031 2031 2031 2031 2031 2031 2031 
2031 2031 2031 2031 2031 2031 2031 2031 2031 
2031 2031 2031 2031 2031 2031 2031 2031 2031 
2031 2031 2031 2031 2031 2031 2031 2031 2031 
2031 2031 2031 2031 2031 2031 2031 2031 2031 
2031 2031 2031 2031 2031 2031 2031 2031 2031 
2031 2031 2031 2031 2031 2031 2031 2031 2031 
2031 2031 2031 2031 2031 2031 2031 2031 2031 
2031 2031 2031 2031 2031 2031 2031 2031 2031 
2031 2031 2031 2031 2031 2031 2031 2031 2031 
2031 2031 2031 2031 2031 2031 2031 2031 2031 
2031 2031 2031 2031 2031 2031 2031 2031 2031 
2031 2031 2031 2031 2031 2031 2031 2031 2031 
2031 2031 2031 2031 2031 2031 2031 2031 2031 
2031 2031 2031 2031 2031 2031 2031 2031 2031 
2031 2031 2031 2031 2031 2031 2031 2031 2031 
2031 2031 2031 2031 2031 2031 2031 2031 2031 
2031 2031 2031 2031 2031 2031 2031 2031 2031 
2031 2031 2031 2031 2031 2031 2031 2031 2031 
2031 2031 2031 2031 2031 2031 2031 2031 2031 
2031 2031 2031 2031 2031 2031 2031 2031 2031 
2031 2031 2031 2031 2031 2031 2031 2031 2031 
2031 2031 2031 2031 2031 2031 2031 2031 2031 
2031 2031 2031 2031 2031 2031 2031 2031 2031 
2031 2031 2031 2031 2031 2031 2031 2031 2031 
2031 2031 2031 2031 2031 2031 2031 2031 2031 
2031 2031 2031 2031 2031 2031 2031 2031 2031 
2031 2031 2031 2031 2031 2031 2031 2031 2031 
2031 2031 2031 2031 2031 2031 2031 2031 2031 
2031 2031 2031 2031 2031 2031 2031 2031 2031 
2031 2031 2031 2031 2031 2031 2031 2031 2031 
2031 2031 2031 2031 2031 2031 2031 2031 2031 
2031 2031 2031 2031 2031 2031 2031 2031 2031 
2031 2031 2031 2031 2031 2031 2031 2031 2031 
2031 2031 2031 2031 2031 2031 2031 2031 2031 
2031 2031 2031 2031 2031 2031 2031 2031 2031 
2031 2031 2031 2031 2031 2031 2031 2031 2031 
2031 2031 2031 2031 2031 2031 2031 2031 2031 
2031 2031 2031 2031 2031 2031 2031 2031 2031 
2031 2031 2031 2031 2031 2031 2031 2031 2031 
2031 2031 2031 2031 2031 2031 2031 2031 2031 
2031 2031 2031 2031 2031 2031 2031 2031 2031 
2031 2031 2031 2031 2031 2031 2031 2031 2031 
2031 2031 2031 2031 2031 2031 2031 2031 2031 
2031 2031 2031 2031 2031 2031 2031 2031 2031 
2031 2031 2031 2031 2031 2031 2031 2031 2031 
2031 2031 2031 2031 2031 2031 2031 2031 2031 
2031 2031 2031 2031 2031 2031 2031 2031 2031 
2031 2031 2031 2031 2031 2031 2031 2031 2031 
2031 2031 2031 2031 2031 2031 2031 2031 2031 
2031 2031 2031 2031 2031 2031 2031 2031 2031 
2031 2031 2031 2031 2031 2031 2031 2031 2031 
2031 2031 2031 2031 2031 2031 2031 2031 2031 
2031 2031 2031 2031 2031 2031 2031 2031 2031 
2031 2031 2031 2031 2031 2031 2031 2031 2031 
2031 2031 2031 2031 2031 2031 2031 2031 2031 
2031 2031 2031 2031 2031 2031 2031 2031 2031 
2031 2031 2031 2031 2031 2031 2031 2031 2031 
2031 2031 2031 2031 2031 2031 2031 2031 2031 
2031 2031 2031 2031 2031 2031 2031 2031 2031 
2031 2031 2031 2031 2031 2031 2031 2031 2031 
2031 2031 2031 2031 2031 2031 2031 2031 2031 
2031 2031 2031 2031 2031 2031 2031 2031 2031 
2031 2031 2031 2031 2031 2031 2031 2031 2031 
2031 2031 2031 2031 2031 2031 2031 2031 2031 
2031 2031 2031 2031 2031 2031 2031 2031 2031 
2031 2031 2031 2031 2031 2031 2031 2031 2031 
2031 2031 2031 2031 2031 2031 2031 2031 2031 
2031 2031 2031 2031 2031 2031 2031 2031 2031 
2031 2031 2031 2031 2031 2031 2031 2031 2031 
2031 2031 2031 2031 2031 2031 2031 2031 2031 
2031 2031 2031 2031 2031 2031 2031 2031 2031 
2031 2031 2031 2031 2031 2031 2031 2031 2031 
2031 2031 2031 2031 2031 2031 2031 2031 2031 
2031 2031 2031 2031 2031 2031 2031 2031 2031 
2031 2031 2031 2031 2031 2031 2031 2031 2031 
2031 2031 2031 2031 2031 2031 2031 2031 2031 
2031 2031 2031 2031 2031 2031 2031 2031 2031 
2031 2031 2031 2031 2031 2031 2031 2031 2031 
2031 2031 2031 2031 2031 2031 2031 2031 2031 
2031 2031 2031 2031 2031 2031 2031 2031 2031 
2031 2031 2031 2031 2031 2031 2031 2031 2031 
2031 2031 2031 2031 2031 2031 2031 2031 2031 
2031 2031 2031 2031 2031 2031 2031 2031 2031 
2031 2031 2031 2031 2031 2031 2031 2031 2031 
2031 2031 2031 2031 2031 2031 2031 2031 2031 
2031 2031 2031 2031 2031 2031 2031 2031 2031 
2031 2031 2031 2031 2031 2031 2031 2031 2031 
2031 2031 2031 2031 2031 2031 2031 2031 2031 
2031 2031 2031 2031 2031 2031 2031 2031 2031 
2031 2031 2031 2031 2031 2031 2031 2031 2031 
2031 2031 2031 2031 2031 2031 2031 2031 2031 
2031 2031 2031 2031 2031 2031 2031 2031 2031 
2031 2031 2031 2031 2031 2031 2031 2031 2031 
2031 2031 2031 2031 2031 2031 2031 2031 2031 
2031 2031 2031 2031 2031 2031 2031 2031 2031 
2031 2031 2031 2031 2031 2031 2031 2031 2031 
2031 2031 2031 2031 2031 2031 2031 2031 2031 
2031 2031 2031 2031 2031 2031 2031 2031 2031 
2031 2031 2031 2031 2031 2031 2031 2031 2031 
2031 2031 2031 2031 2031 2031 2031 2031 2031 
2031 2031 2031 2031 2031 2031 2031 2031 2031 
2031 2031 2031 2031 2031 2031 2031 2031 2031 
2031 2031 2031 2031 2031 2031 2031 2031 2031 
2031 2031 2031 2031 2031 2031 2031 2031 2031 
2031 2031 2031 2031 2031 2031 2031 2031 2031 
2031 2031 2031 2031 2031 2031 2031 2031 2031 
2031 2031 2031 2031 2031 2031 2031 2031 2031 
2031 2031 2031 2031 2031 2031 2031 2031 2031 
2031 2031 2031 2031 2031 2031 2031 2031 2031 
2031 2031 2031 2031 2031 2031 2031 2031 2031 
2031 2031 2031 2031 2031 2031 2031 2031 2031 
2031 2031 2031 2031 2031 2031 2031 2031 2031 
2031 2031 2031 2031 2031 2031 2031 2031 2031 
2031 2031 2031 2031 2031 2031 2031 2031 2031 
2031 2031 2031 2031 2031 2031 2031 2031 2031 
2031 2031 2031 2031 2031 2031 2031 2031 2031 
2031 2031 2031 2031 2031 2031 2031 2031 2031 
2031 2031 2031 2031 2031 2031 2031 2031 2031 
2031 2031 2031 2031 2031 2031 2031 2031 2031 
2031 2031 2031 2031 2031 2031 2031 2031 2031 
2031 2031 2031 2031 2031 2031 2031 2031 2031 
2031 2031 2031 2031 2031 2031 2031 2031 2031 
2031 2031 2031 2031 2031 2031 2031 2031 2031 
2031 2031 2031 2031 2031 2031 2031 2031 2031 
2031 2031 2031 2031 2031 2031 2031 2031 2031 
2031 2031 2031 2031 2031 2031 2031 2031 2031 
2031 2031 2031 2031 2031 2031 2031 2031 2031 
2031 2031 2031 2031 2031 2031 2031 2031 2031 
2031 2031 2031 2031 2031 2031 2031 2031 2031 
2031 2031 2031 2031 2031 2031 2031 2031 2031 
2031 2031 2031 2031 2031 2031 2031 2031 2031 
2031 2031 2031 2031 2031 2031 2031 2031 2031 
2031 2031 2031 2031 2031 2031 2031 2031 2031 
2031 2031 2031 2031 2031 2031 2031 2031 2031 
2031 2031 2031 2031 2031 2031 2031 2031 2031 
2031 2031 2031 2031 2031 2031 2031 2031 2031 
2031 2031 2031 2031 2031 2031 2031 2031 2031 
2031 2031 2031 2031 2031 2031 2031 2031 2031 
2031 2031 2031 2031 2031 2031 2031 2031 2031 
2031 2031 2031 2031 2031 2031 2031 2031 2031 
2031 2031 2031 2031 2031 2031 2031 2031 2031 
2031 2031 2031 2031 2031 2031 2031 2031 2031 
2031 2031 2031 2031 2031 2031 2031 2031 2031 
2031 2031 2031 2031 2031 2031 2031 2031 2031 
2031 2031 2031 2031 2031 2031 2031 2031 2031 
2031 2031 2031 2031 2031 2031 2031 2031 2031 
2031 2031 2031 2031 2031 2031 2031 2031 2031 
2031 2031 2031 2031 2031 2031 2031 2031 2031 
2031 2031 2031 2031 2031 2031 2031 2031 2031 
2031 2031 2031 2031 2031 2031 2031 2031 2031 
2031 2031 2031 2031 2031 2031 2031 2031 2031 
2031 2031 2031 2031 2031 2031 2031 2031 2031 
2031 2031 2031 2031 2031 2031 2031 2031 2031 
2031 2031 2031 2031 2031 2031 2031 2031 2031 
2031 2031 2031 2031 2031 2031 2031 2031 2031 
2031 2031 2031 2031 2031 2031 2031 2031 2031 
2031 2031 2031 2031 2031 2031 2031 2031 2031 
2031 2031 2031 2031 2031 2031 2031 2031 2031 
2031 2031 2031 2031 2031 2031 2031 2031 2031 
2031 2031 2031 2031 2031 2031 2031 2031 2031 
2031 2031 2031 2031 2031 2031 2031 2031 2031 
2031 2031 2031 2031 2031 2031 2031 2031 2031 
2031 2031 2031 2031 2031 2031 2031 2031 2031 
2031 2031 2031 2031 2031 2031 2031 2031 2031 
2031 2031 2031 2031 2031 2031 2031 2031 2031 
2031 2031 2031 2031 2031 2031 2031 2031 2031 
2031 2031 2031 2031 2031 2031 2031 2031 2031 
2031 2031 2031 2031 2031 2031 2031 2031 2031 
2031 2031 2031 2031 2031 2031 2031 2031 2031 
2031 2031 2031 2031 2031 2031 2031 2031 2031 
2031 2031 2031 2031 2031 2031 2031 2031 2031 
2031 2031 2031 2031 2031 2031 2031 2031 2031 
2031 2031 2031 2031 2031 2031 2031 2031 2031 
2031 2031 2031 2031 2031 2031 2031 2031 2031 
2031 2031 2031 2031 2031 2031 2031 2031 2031 
2031 2031 2031 2031 2031 2031 2031 2031 2031 
2031 2031 2031 2031 2031 2031 2031 2031 2031 
2031 2031 2031 2031 2031 2031 2031 2031 2031 
2031 2031 2031 2031 2031 2031 2031 2031 2031 
2031 2031 2031 2031 2031 2031 2031 2031 2031 
2031 2031 2031 2031 2031 2031 2031 2031 2031 
2031 2031 2031 2031 2031 2031 2031 2031 2031 
2031 2031 2031 2031 2031 2031 2031 2031 2031 
2031 2031 2031 2031 2031 2031 2031 2031 2031 
2031 2031 2031 2031 2031 2031 2031 2031 2031 
2031 2031 2031 2031 2031 2031 2031 2031 2031 
2031 2031 2031 2031 2031 2031 2031 2031 2031 
2031 2031 2031 2031 2031 2031 2031 2031 2031 
2031 2031 2031 2031 2031 2031 2031 2031 2031 
2031 2031 2031 2031 2031 2031 2031 2031 2031 
2031 2031 2031 2031 2031 2031 2031 2031 2031 
2031 2031 2031 2031 2031 2031 2031 2031 2031 
2031 2031 2031 2031 2031 2031 2031 2031 2031 
2031 2031 2031 2031 2031 2031 2031 2031 2031 
2031 2031 2031 2031 2031 2031 2031 2031 2031 
2031 2031 2031 2031 2031 2031 2031 2031 2031 
2031 2031 2031 2031 2031 2031 2031 2031 2031 
2031 2031 2031 2031 2031 2031 2031 2031 2031 
2031 2031 2031 2031 2031 2031 2031 2031 2031 
2031 2031 2031 2031 2031 2031 2031 2031 2031 
2031 2031 2031 2031 2031 2031 2031 2031 2031 
2031 2031 2031 2031 2031 2031 2031 2031 2031 
2031 2031 2031 2031 2031 2031 2031 2031 2031 
2031 2031 2031 2031 2031 2031 2031 2031 2031 
2031 2031 2031 2031 2031 2031 2031 2031 2031 
2031 2031 2031 2031 2031 2031 2031 2031 2031 
2031 2031 2031 2031 2031 2031 2031 2031 2031 
2031 2031 2031 2031 2031 2031 2031 2031 2031 
2031 2031 2031 2031 2031 2031 2031 2031 2031 
2031 2031 2031 2031 2031 2031 2031 2031 2031 
2031 2031 2031 2031 2031 2031 2031 2031 2031 
2031 2031 2031 2031 2031 2031 2031 2031 2031 
2031 2031 2031 2031 2031 2031 2031 2031 2031 
2031 2031 2031 2031 2031 2031 2031 2031 2031 
2031 2031 2031 2031 2031 2031 2031 2031 2031 
2031 2031 2031 2031 2031 2031 2031 2031 2031 
2031 2031 2031 2031 2031 2031 2031 2031 2031 
2031 2031 2031 2031 2031 2031 2031 2031 2031 
2031 2031 2031 2031 2031 2031 2031 2031 2031 
2031 2031 2031 2031 2031 2031 2031 2031 2031 
2031 2031 2031 2031 2031 2031 2031 2031 2031 
2031 2031 2031 2031 2031 2031 2031 2031 2031 
2031 2031 2031 2031 2031 2031 2031 2031 2031 
2031 2031 2031 2031 2031 2031 2031 2031 2031 
2031 2031 2031 2031 2031 2031 2031 2031 2031 
2031 2031 2031 2031 2031 2031 2031 2031 2031 
2031 2031 2031 2031 2031 2031 2031 2031 2031 
2031 2031 2031 2031 2031 2031 2031 2031 2031 
2031 2031 2031 2031 2031 2031 2031 2031 2031 
2031 2031 2031 2031 2031 2031 2031 2031 2031 
2031 2031 2031 2031 2031 2031 2031 2031 2031 
2031 2031 2031 2031 2031 2031 2031 2031 2031 
2031 2031 2031 2031 2031 2031 2031 2031 2031 
2031 2031 2031 2031 2031 2031 2031 2031 2031 
2031 2031 2031 2031 2031 2031 2031 2031 2031 
2031 2031 2031 2031 2031 2031 2031 2031 2031 
2031 2031 2031 2031 2031 2031 2031 2031 2031 
2031 2031 2031 2031 2031 2031 2031 2031 2031 
2031 2031 2031 2031 2031 2031 2031 2031 2031 
2031 2031 2031 2031 2031 2031 2031 2031 2031 
2031 2031 2031 2031 2031 2031 2031 2031 2031 
2031 2031 2031 2031 2031 2031 2031 2031 2031 
2031 2031 2031 2031 2031 2031 2031 2031 2031 
2031 2031 2031 2031 2031 2031 2031 2031 2031 
2031 2031 2031 2031 2031 2031 2031 2031 2031 
2031 2031 2031 2031 2031 2031 2031 2031 2031 
2031 2031 2031 2031 2031 2031 2031 2031 2031 
2031 2031 2031 2031 2031 2031 2031 2031 2031 
2031 2031 2031 2031 2031 2031 2031 2031 2031 
2031 2031 2031 2031 2031 2031 2031 2031 2031 
2031 2031 2031 2031 2031 2031 2031 2031 2031 
2031 2031 2031 2031 2031 2031 2031 2031 2031 
2031 2031 2031 2031 2031 2031 2031 2031 2031 
2031 2031 2031 2031 2031 2031 2031 2031 2031 
2031 2031 2031 2031 2031 2031 2031 2031 2031 
2031 2031 2031 2031 2031 2031 2031 2031 2031 
2031 2031 2031 2031 2031 2031 2031 2031 2031 
2031 2031 2031 2031 2031 2031 2031 2031 2031 
2031 2031 2031 2031 2031 2031 2031 2031 2031 
2031 2031 2031 2031 2031 2031 2031 2031 2031 
2031 2031 2031 2031 2031 2031 2031 2031 2031 
2031 2031 2031 2031 2031 2031 2031 2031 2031 
2031 2031 2031 2031 2031 2031 2031 2031 2031 
2031 2031 2031 2031 2031 2031 2031 2031 2031 
2031 2031 2031 2031 2031 2031 2031 2031 2031 
2031 2031 2031 2031 2031 2031 2031 2031 2031 
2031 2031 2031 2031 2031 2031 2031 2031 2031 
2031 2031 2031 2031 2031 2031 2031 2031 2031 
2031 2031 2031 2031 2031 2031 2031 2031 2031 
2031 2031 2031 2031 2031 2031 2031 2031 2031 
2031 2031 2031 2031 2031 2031 2031 2031 2031 
2031 2031 2031 2031 2031 2031 2031 2031 2031 
2031 2031 2031 2031 2031 2031 2031 2031 2031 
2031 2031 2031 2031 2031 2031 2031 2031 2031 
2031 2031 2031 2031 2031 2031 2031 2031 2031 
2031 2031 2031 2031 2031 2031 2031 2031 2031 
2031 2031 2031 2031 2031 2031 2031 2031 2031 
2031 2031 2031 2031 2031 2031 2031 2031 2031 
2031 2031 2031 2031 2031 2031 2031 2031 2031 
2031 2031 2031 2031 2031 2031 2031 2031 2031 
2031 2031 2031 2031 2031 2031 2031 2031 2031 
2031 2031 2031 2031 2031 2031 2031 2031 2031 
2031 2031 2031 2031 2031 2031 2031 2031 2031 
2031 2031 2031 2031 2031 2031 2031 2031 2031 
2031 2031 2031 2031 2031 2031 2031 2031 2031 
2031 2031 2031 2031 2031 2031 2031 2031 2031 
2031 2031 2031 2031 2031 2031 2031 2031 2031 
2031 2031 2031 2031 2031 2031 2031 2031 2031 
2031 2031 2031 2031 2031 2031 2031 2031 2031 
2031 2031 2031 2031 2031 2031 2031 2031 2031 
2031 2031 2031 2031 2031 2031 2031 2031 2031 
2031 2031 2031 2031 2031 2031 2031 2031 2031 
2031 2031 2031 2031 2031 2031 2031 2031 2031 
2031 2031 2031 2031 2031 2031 2031 2031 2031 
2031 2031 2031 2031 2031 2031 2031 2031 2031 
2031 2031 2031 2031 2031 2031 2031 2031 2031 
2031 2031 2031 2031 2031 2031 2031 2031 2031 
2031 2031 2031 2031 2031 2031 2031 2031 2031 
2031 2031 2031 2031 2031 2031 2031 2031 2031 
2031 2031 2031 2031 2031 2031 2031 2031 2031 
2031 2031 2031 2031 2031 2031 2031 2031 2031 
2031 2031 2031 2031 2031 2031 2031 2031 2031 
2031 2031 2031 2031 2031 2031 2031 2031 2031 
2031 2031 2031 2031 2031 2031 2031 2031 2031 
2031 2031 2031 2031 2031 2031 2031 2031 2031 
2031 2031 2031 2031 2031 2031 2031 2031 2031 
2031 2031 2031 2031 2031 2031 2031 2031 2031 
2031 2031 2031 2031 2031 2031 2031 2031 2031 
2031 2031 2031 2031 2031 2031 2031 2031 2031 
2031 2031 2031 2031 2031 2031 2031 2031 2031 
2031 2031 2031 2031 2031 2031 2031 2031 2031 
2031 2031 2031 2031 2031 2031 2031 2031 2031 
2031 2031 2031 2031 2031 2031 2031 2031 2031 
2031 2031 2031 2031 2031 2031 2031 2031 2031 
2031 2031 2031 2031 2031 2031 2031 2031 2031 
2031 2031 2031 2031 2031 2031 2031 2031 2031 
2031 2031 2031 2031 2031 2031 2031 2031 2031 
2031 2031 2031 2031 2031 2031 2031 2031 2031 
2031 2031 2031 2031 2031 2031 2031 2031 2031 
2031 2031 2031 2031 2031 2031 2031 2031 2031 
2031 2031 2031 2031 2031 2031 2031 2031 2031 
2031 2031 2031 2031 2031 2031 2031 2031 2031 
2031 2031 2031 2031 2031 2031 2031 2031 2031 
2031 2031 2031 2031 2031 2031 2031 2031 2031 
2031 2031 2031 2031 2031 2031 2031 2031 2031 
2031 2031 2031 2031 2031 2031 2031 2031 2031 
2031 2031 2031 2031 2031 2031 2031 2031 2031 
2031 2031 2031 2031 2031 2031 2031 2031 2031 
2031 2031 2031 2031 2031 2031 2031 2031 2031 
2031 2031 2031 2031 2031 2031 2031 2031 2031 
2031 2031 2031 2031 2031 2031 2031 2031 2031 
2031 2031 2031 2031 2031 2031 2031 2031 2031 
2031 2031 2031 2031 2031 2031 2031 2031 2031 
2031 2031 2031 2031 2031 2031 2031 2031 2031 
2031 2031 2031 2031 2031 2031 2031 2031 2031 
2031 2031 2031 2031 2031 2031 2031 2031 2031 
2031 2031 2031 2031 2031 2031 2031 2031 2031 
2031 2031 2031 2031 2031 2031 2031 2031 2031 
2031 2031 2031 2031 2031 2031 2031 2031 2031 
2031 2031 2031 2031 2031 2031 2031 2031 2031 
2031 2031 2031 2031 2031 2031 2031 2031 2031 
2031 2031 2031 2031 2031 2031 2031 2031 2031 
2031 2031 2031 2031 2031 2031 2031 2031 2031 
2031 2031 2031 2031 2031 2031 2031 2031 2031 
2031 2031 2031 2031 2031 2031 2031 2031 2031 
2031 2031 2031 2031 2031 2031 2031 2031 2031 
2031 2031 2031 2031 2031 2031 2031 2031 2031 
2031 2031 2031 2031 2031 2031 2031 2031 2031 
2031 2031 2031 2031 2031 2031 2031 2031 2031 
2031 2031 2031 2031 2031 2031 2031 2031 2031 
2031 2031 2031 2031 2031 2031 2031 2031 2031 
2031 2031 2031 2031 2031 2031 2031 2031 2031 
2031 2031 2031 2031 2031 2031 2031 2031 2031 
2031 2031 2031 2031 2031 2031 2031 2031 2031 
2031 2031 2031 2031 2031 2031 2031 2031 2031 
2031 2031 2031 2031 2031 2031 2031 2031 2031 
2031 2031 2031 2031 2031 2031 2031 2031 2031 
2031 2031 2031 2031 2031 2031 2031 2031 2031 
2031 2031 2031 2031 2031 2031 2031 2031 2031 
2031 2031 2031 2031 2031 2031 2031 2031 2031 
2031 2031 2031 2031 2031 2031 2031 2031 2031 
2031 2031 2031 2031 2031 2031 2031 2031 2031 
2031 2031 2031 2031 2031 2031 2031 2031 2031 
2031 2031 2031 2031 2031 2031 2031 2031 2031 
2031 2031 2031 2031 2031 2031 2031 2031 2031 
2031 2031 2031 2031 2031 2031 2031 2031 2031 
2031 2031 2031 2031 2031 2031 2031 2031 2031 
2031 2031 2031 2031 2031 2031 2031 2031 2031 
2031 2031 2031 2031 2031 2031 2031 2031 2031 
2031 2031 2031 2031 2031 2031 2031 2031 2031 
2031 2031 2031 2031 2031 2031 2031 2031 2031 
2031 2031 2031 2031 2031 2031 2031 2031 2031 
2031 2031 2031 2031 2031 2031 2031 2031 2031 
2031 2031 2031 2031 2031 2031 2031 2031 2031 
2031 2031 2031 2031 2031 2031 2031 2031 2031 
2031 2031 2031 2031 2031 2031 2031 2031 2031 
2031 2031 2031 2031 2031 2031 2031 2031 2031 
2031 2031 2031 2031 2031 2031 2031 2031 2031 
2031 2031 2031 2031 2031 2031 2031 2031 2031 
2031 2031 2031 2031 2031 2031 2031 2031 2031 
2031 2031 2031 2031 2031 2031 2031 2031 2031 
2031 2031 2031 2031 2031 2031 2031 2031 2031 
2031 2031 2031 2031 2031 2031 2031 2031 2031 
2031 2031 2031 2031 2031 2031 2031 2031 2031 
2031 2031 2031 2031 2031 2031 2031 2031 2031 
2031 2031 2031 2031 2031 2031 2031 2031 2031 
2031 2031 2031 2031 2031 2031 2031 2031 2031 
2031 2031 2031 2031 2031 2031 2031 2031 2031 
2031 2031 2031 2031 2031 2031 2031 2031 2031 
2031 2031 2031 2031 2031 2031 2031 2031 2031 
2031 2031 2031 2031 2031 2031 2031 2031 2031 
2031 2031 2031 2031 2031 2031 2031 2031 2031 
2031 2031 2031 2031 2031 2031 2031 2031 2031 
2031 2031 2031 2031 2031 2031 2031 2031 2031 
2031 2031 2031 2031 2031 2031 2031 2031 2031 
2031 2031 2031 2031 2031 2031 2031 2031 2031 
2031 2031 2031 2031 2031 2031 2031 2031 2031 
2031 2031 2031 2031 2031 2031 2031 2031 2031 
2031 2031 2031 2031 2031 2031 2031 2031 2031 
2031 2031 2031 2031 2031 2031 2031 2031 2031 
2031 2031 2031 2031 2031 2031 2031 2031 2031 
2031 2031 2031 2031 2031 2031 2031 2031 2031 
2031 2031 2031 2031 2031 2031 2031 2031 2031 
2031 2031 2031 2031 2031 2031 2031 2031 2031 
2031 2031 2031 2031 2031 2031 2031 2031 2031 
2031 2031 2031 2031 2031 2031 2031 2031 2031 
2031 2031 2031 2031 2031 2031 2031 2031 2031 
2031 2031 2031 2031 2031 2031 2031 2031 2031 
2031 2031 2031 2031 2031 2031 2031 2031 2031 
2031 2031 2031 2031 2031 2031 2031 2031 2031 
2031 2031 2031 2031 2031 2031 2031 2031 2031 
2031 2031 2031 2031 2031 2031 2031 2031 2031 
2031 2031 2031 2031 2031 2031 2031 2031 2031 
2031 2031 2031 2031 2031 2031 2031 2031 2031 
2031 2031 2031 2031 2031 2031 2031 2031 2031 
2031 2031 2031 2031 2031 2031 2031 2031 2031 
2031 2031 2031 2031 2031 2031 2031 2031 2031 
2031 2031 2031 2031 2031 2031 2031 2031 2031 
2031 2031 2031 2031 2031 2031 2031 2031 2031 
2031 2031 2031 2031 2031 2031 2031 2031 2031 
2031 2031 2031 2031 2031 2031 2031 2031 2031 
2031 2031 2031 2031 2031 2031 2031 2031 2031 
2031 2031 2031 2031 2031 2031 2031 2031 2031 
2031 2031 2031 2031 2031 2031 2031 2031 2031 
2031 2031 2031 2031 2031 2031 2031 2031 2031 
2031 2031 2031 2031 2031 2031 2031 2031 2031 
2031 2031 2031 2031 2031 2031 2031 2031 2031 
2031 2031 2031 2031 2031 2031 2031 2031 2031 
2031 2031 2031 2031 2031 2031 2031 2031 2031 
2031 2031 2031 2031 2031 2031 2031 2031 2031 
2031 2031 2031 2031 2031 2031 2031 2031 2031 
2031 2031 2031 2031 2031 2031 2031 2031 2031 