# vtk DataFile Version 4.2
vtk output
ASCII
DATASET POLYDATA
POINTS 16336 float
23.3706 -42.9757 14.3208 23.6092 -42.6728 14.0925 23.8412 -43.0919 14.1425 
22.9585 -42.9872 14.3079 23.0327 -42.5704 14.0293 22.6558 -42.8648 14.0703 
23.5667 -43.5856 14.3902 24.0024 -43.5631 14.1835 23.0567 -43.4698 14.3826 
22.6645 -43.312 14.1551 24.0033 -44.0477 14.3072 24.2947 -43.848 14.0815 
24.3778 -44.105 14.1117 23.5035 -44.2162 14.451 23.0813 -44.1054 14.3837 
22.673 -43.93 14.1572 24.2718 -44.4034 14.0544 23.8813 -44.8101 14.0861 
23.7228 -44.5643 14.3174 23.1958 -44.6349 14.3225 22.7274 -44.5191 14.1369 
23.4042 -44.9713 14.132 22.9361 -44.9171 14.0844 25.3222 -41.8157 13.7306 
25.4906 -41.4526 13.5103 25.7956 -41.7556 13.5815 24.6621 -41.7498 13.7511 
24.9705 -41.357 13.5418 24.0267 -41.7672 13.7501 24.2633 -41.3572 13.4702 
23.444 -41.8283 13.716 23.6173 -41.4892 13.4456 23.2069 -41.6289 13.4379 
25.8262 -42.2171 13.6826 26.1414 -42.0119 13.4846 26.1973 -42.3748 13.47 
25.3105 -42.3906 13.814 24.8 -42.2925 13.8304 24.2865 -42.1726 13.8415 
23.6541 -42.2665 13.909 23.0427 -41.9162 13.574 23.1254 -42.1738 13.7941 
22.7253 -42.2983 13.4016 25.9204 -42.6345 13.5492 25.6655 -42.989 13.4646 
25.4304 -42.8318 13.697 24.8183 -42.8877 13.8185 24.173 -42.7138 13.908 
22.3698 -43.0895 13.7984 22.4923 -42.7192 13.6922 22.231 -43.0644 13.3559 
25.3064 -43.2675 13.5267 25.1099 -43.7202 13.4802 24.9151 -43.3916 13.7115 
24.3458 -43.3939 13.921 22.3515 -43.6383 13.8271 22.1641 -43.4009 13.4872 
24.65 -43.9707 13.7969 24.9687 -44.1708 13.4467 22.2608 -44.288 13.834 
22.0209 -43.9039 13.4214 24.6424 -44.4582 13.624 24.2138 -44.8112 13.8196 
24.5281 -44.908 13.5191 22.4026 -44.9008 13.8974 21.8555 -44.3741 13.5685 
21.8591 -44.7659 13.7122 21.5952 -44.5918 13.3705 24.1112 -45.2774 13.6968 
24.4138 -45.2557 13.5082 23.6148 -45.2804 13.9024 22.8951 -45.3213 13.9117 
22.2791 -45.4234 13.8329 21.852 -45.3075 13.751 21.4713 -45.1382 13.4405 
24.2288 -45.6079 13.4583 23.8693 -45.9343 13.5387 23.6136 -45.844 13.7303 
22.9827 -45.9099 13.8437 22.3628 -45.9361 13.8351 21.8401 -45.9082 13.7549 
21.4617 -45.7595 13.5419 23.6344 -46.224 13.4747 23.2655 -46.5129 13.5366 
23.0871 -46.3596 13.716 22.4372 -46.5285 13.7638 21.8503 -46.5167 13.7504 
21.4543 -46.3754 13.544 22.9297 -46.7631 13.4538 22.3135 -46.944 13.5862 
21.9968 -47.2281 13.4996 21.9071 -46.9796 13.6682 21.4913 -46.9422 13.5276 
21.6507 -47.285 13.4797 25.9406 -41.1388 13.114 26.0073 -40.8887 12.713 
26.3444 -41.1517 12.9783 25.3212 -41.1281 13.2465 25.3843 -40.861 12.8396 
24.6286 -41.0704 13.235 24.7743 -40.8581 12.8582 24.1223 -41.1119 13.1314 
24.2157 -40.9077 12.8459 23.8188 -41.0479 12.8268 26.4444 -41.5307 13.1136 
26.6013 -41.3594 12.9412 26.845 -41.7749 12.89 25.9951 -41.5841 13.3416 
23.6149 -41.2724 12.9955 22.9211 -41.7696 13.2705 23.1364 -41.4902 13.046 
22.7809 -41.7686 12.8595 26.5429 -42.2612 13.2191 27.0368 -42.3642 12.9707 
22.5887 -42.1895 12.7824 27.0173 -42.8603 13.0844 27.3298 -42.6642 12.8897 
27.3971 -42.9212 12.9199 26.4991 -43.0044 13.2154 26.0851 -42.8747 13.3217 
22.4189 -42.811 13.2672 22.5132 -42.7208 12.9527 27.2656 -43.2181 12.8652 
26.904 -43.5242 12.9423 26.6168 -43.4576 13.1186 25.9954 -43.5062 13.2202 
25.5481 -43.405 13.3244 22.24 -43.0718 12.8438 22.0019 -43.4662 12.9928 
26.6344 -43.8166 12.8726 26.2574 -44.1236 12.9358 25.9935 -44.053 13.114 
25.3787 -44.0536 13.2611 21.8021 -43.8693 13.0026 21.7353 -44.204 13.2663 
21.5778 -44.0911 12.8436 26.0172 -44.4239 12.8626 25.6546 -44.7345 12.9188 
25.4007 -44.6421 13.1124 24.9366 -44.597 13.3231 21.3735 -44.6364 12.9004 
25.4258 -45.0208 12.8493 25.0656 -45.3167 12.9155 24.8108 -45.1672 13.2158 
21.2287 -45.0702 13.0408 21.1809 -45.5088 13.1939 21.0083 -45.1795 12.7644 
24.7709 -45.6138 12.9175 24.1688 -45.9289 13.2324 24.471 -45.9126 12.9162 
21.1577 -46.0818 13.2364 20.8808 -45.7356 12.817 24.1804 -46.2108 12.9167 
23.5677 -46.517 13.232 23.8841 -46.5057 12.9181 21.1565 -46.6883 13.236 
20.8672 -46.3638 12.9199 23.5767 -46.796 12.9146 22.9259 -47.1412 13.1504 
23.2707 -47.0887 12.9189 22.3864 -47.2115 13.3696 21.2534 -47.2964 13.2256 
20.8598 -46.9588 12.921 23.0362 -47.4058 12.8694 22.7245 -47.9197 12.9462 
22.403 -47.6871 13.1797 21.7935 -47.58 13.3059 21.309 -47.8419 13.1082 
20.892 -47.5286 12.9059 22.3816 -48.2104 13.0952 22.6798 -48.3325 12.859 
21.8734 -48.1873 13.1285 21.4039 -48.2469 12.9846 21.0429 -47.9792 12.8902 
22.3435 -48.529 12.863 21.8132 -48.5652 12.8372 26.6154 -41.1798 12.687 
26.5482 -40.8603 12.1941 26.916 -41.1671 12.35 25.9735 -40.7786 12.3008 
25.5488 -40.713 12.2974 24.9329 -40.6888 12.406 24.3331 -40.6927 12.4087 
23.4653 -41.1222 12.5588 23.7577 -40.8167 12.4072 23.2778 -40.9701 12.0903 
27.1541 -41.6465 12.5402 27.2823 -41.4248 12.2701 27.5498 -41.7832 12.341 
22.9896 -41.3784 12.3846 22.5755 -41.7239 12.3359 27.6533 -42.194 12.487 
27.9173 -42.0708 12.2667 28.0835 -42.5158 12.3021 27.3024 -42.254 12.7332 
22.4056 -42.0445 12.3879 22.3908 -42.5107 12.5742 22.1821 -42.1767 12.1228 
27.6795 -42.7794 12.624 28.0669 -42.8765 12.3153 22.3733 -42.8761 12.6771 
22.0775 -42.7679 12.271 27.8176 -43.216 12.314 27.1952 -43.5258 12.6337 
27.4875 -43.5177 12.3139 21.7388 -43.6224 12.6592 21.8717 -43.2477 12.4644 
21.5751 -43.468 12.2404 27.1782 -43.8063 12.3144 26.5628 -44.114 12.6325 
26.8687 -44.1 12.3153 21.3784 -44.0208 12.2715 26.5766 -44.4039 12.3144 
25.9644 -44.7209 12.6247 26.2729 -44.7027 12.3147 21.1202 -44.4033 12.2556 
21.1441 -44.8015 12.6736 20.8904 -44.7792 12.3109 25.9802 -45.0064 12.3066 
25.3711 -45.3203 12.6107 25.6777 -45.3037 12.3069 20.7605 -45.2461 12.3925 
25.3798 -45.6044 12.3088 24.7827 -45.9038 12.6063 25.0899 -45.897 12.3068 
20.6312 -45.6487 12.418 20.5945 -46.0937 12.5663 20.4053 -45.7767 12.1575 
24.7948 -46.1893 12.3098 24.1982 -46.4968 12.6043 24.5141 -46.4867 12.3004 
20.5664 -46.6523 12.6185 20.2779 -46.3445 12.2184 24.2007 -46.7886 12.3073 
23.5796 -47.0835 12.618 23.8877 -47.0857 12.3024 20.5572 -47.2386 12.6211 
20.2606 -46.9581 12.3242 18.203 -47.0393 12.4356 18.1457 -46.9243 12.1478 
18.3429 -47.2239 12.206 17.9607 -47.0043 12.296 23.5806 -47.3965 12.3095 
23.0741 -47.7175 12.6392 23.308 -47.9012 12.2087 20.6581 -47.8712 12.625 
20.2571 -47.5451 12.3293 18.1062 -47.206 12.3448 22.9749 -48.1356 12.5934 
23.1243 -48.3092 12.1843 21.2041 -48.41 12.7446 20.7434 -48.4437 12.522 
20.3093 -48.118 12.3198 22.8165 -48.5139 12.4597 22.3628 -48.7519 12.412 
21.7563 -48.8268 12.5643 22.1436 -48.9752 12.2404 21.2324 -48.8432 12.5197 
20.8325 -48.8234 12.3862 20.4786 -48.5664 12.301 21.6833 -49.1167 12.1992 
21.0516 -49.0986 12.1924 25.178 -40.4797 11.959 25.4232 -40.2662 11.4716 
25.65 -40.5294 11.8104 24.5907 -40.4501 12.0067 24.7807 -40.2335 11.6047 
23.9979 -40.4592 12.0114 24.2495 -40.2471 11.687 23.561 -40.5729 12.0065 
23.7516 -40.3266 11.6699 23.3932 -40.6066 11.7815 27.7628 -41.1482 11.8965 
27.7483 -40.8314 11.7166 28.1115 -41.0782 11.7121 27.2252 -41.1177 12.0855 
27.2524 -40.7614 11.772 26.6768 -40.6531 11.7019 26.0886 -40.6685 11.8565 
23.1553 -40.905 11.5984 28.2586 -41.572 11.8951 28.4326 -41.4032 11.7221 
28.6699 -41.8225 11.6926 27.7766 -41.6198 12.1107 22.8472 -41.2405 11.6988 
22.3029 -41.7723 12.0246 22.4879 -41.4998 11.8005 22.1655 -41.7738 11.6371 
28.334 -42.1663 12.0163 28.7529 -42.4923 11.7291 22.0864 -42.2791 11.6546 
28.3759 -42.8104 12.0111 28.6926 -42.8837 11.7152 21.8827 -42.6747 11.6725 
21.7333 -42.9946 12.0548 21.607 -42.9815 11.6669 28.431 -43.2204 11.7145 
27.8073 -43.5168 12.0003 28.1289 -43.5155 11.696 21.3849 -43.4125 11.6732 
27.8084 -43.799 11.7053 27.1925 -44.0965 12.0014 27.5194 -44.0929 11.6963 
21.1163 -43.7774 11.646 21.1895 -44.0948 11.9939 20.8907 -44.0969 11.7167 
27.2089 -44.3858 11.7055 26.5955 -44.6953 11.9998 26.9212 -44.6852 11.6926 
20.5792 -44.8908 11.9727 20.7035 -44.4378 11.8539 20.3857 -44.5474 11.5293 
26.6026 -44.9903 11.6996 25.9863 -45.2986 12.0019 26.2971 -45.2959 11.6944 
20.5337 -45.3497 12.1145 20.2716 -45.1991 11.6719 25.9949 -45.6035 11.7013 
25.3856 -45.8984 12.0108 25.7277 -45.9349 11.623 20.1558 -45.8574 11.801 
25.3213 -46.1815 11.7144 24.8002 -46.4814 12.0039 25.069 -46.5831 11.5057 
20.0223 -46.264 11.8259 19.9948 -46.713 11.9726 19.8177 -46.4001 11.553 
24.6625 -46.8178 11.8148 24.2014 -47.0889 11.9972 24.5227 -47.0793 11.7036 
19.9765 -47.2805 12.0116 19.7791 -46.9784 11.6046 18.0348 -46.8087 11.6447 
18.49 -47.0438 11.6792 17.6762 -47.2707 12.0306 17.7399 -46.8988 11.858 
17.4322 -47.0923 11.5818 24.1994 -47.3895 11.6985 23.6666 -47.662 11.95 
23.8847 -47.6914 11.6897 19.9745 -47.8628 12.0164 19.6885 -47.5583 11.5757 
18.0429 -47.6601 12.1171 18.5146 -47.7642 11.8038 17.452 -47.8196 11.9971 
17.2458 -47.564 11.5894 23.684 -47.9401 11.6638 23.3187 -48.2287 11.8442 
20.0821 -48.48 12.02 19.6761 -48.1749 11.6878 18.1352 -48.2989 11.9715 
18.5191 -48.4802 11.7055 17.681 -48.1963 12.078 17.0547 -48.0044 11.7485 
17.1782 -48.373 11.9343 16.8256 -48.3469 11.555 23.0132 -48.6297 11.798 
22.5028 -48.9004 11.9772 22.7458 -48.9519 11.609 20.5278 -48.8855 12.1148 
20.1344 -48.9168 11.8607 19.7167 -48.8559 11.606 18.1787 -48.7861 11.8799 
18.3874 -48.9772 11.6797 17.6843 -48.7596 11.9534 17.1849 -48.942 11.6501 
16.9138 -48.6494 11.663 22.3178 -49.1149 11.7562 21.7911 -49.304 11.6848 
21.1986 -49.3159 11.8204 20.4977 -49.2227 11.6973 20.0389 -49.0903 11.6344 
17.9865 -49.1848 11.7462 17.5612 -49.2298 11.6545 27.7442 -40.5738 11.4179 
27.9085 -40.2745 10.965 28.1523 -40.5548 11.1614 27.0277 -40.4587 11.4125 
27.2927 -40.3243 11.0065 26.4216 -40.4615 11.4144 26.6048 -40.3471 11.1201 
25.9449 -40.4366 11.4997 25.9017 -40.2959 11.0567 25.2911 -40.1537 10.9791 
24.8956 -40.1362 11.1802 24.2163 -40.2331 11.2287 23.5378 -40.5274 11.3743 
23.8634 -40.4376 11.0958 28.4163 -41.0896 11.43 28.4084 -40.7791 11.1326 
28.7165 -41.0825 11.1213 23.6194 -40.7434 10.976 23.1025 -40.9039 11.1938 
22.8233 -41.123 11.3113 22.6889 -41.189 11.0431 28.921 -41.6008 11.3489 
[...]
CELL_DATA 32704
SCALARS scalars float
LOOKUP_TABLE default
2015 2015 2015 2015 2015 2015 2015 2015 2015 
2015 2015 2015 2015 2015 2015 2015 2015 2015 
2015 2015 2015 2015 2015 2015 2015 2015 2015 
2015 2015 2015 2015 2015 2015 2015 2015 2015 
2015 2015 2015 2015 2015 2015 2015 2015 2015 
2015 2015 2015 2015 2015 2015 2015 2015 2015 
2015 2015 2015 2015 2015 2015 2015 2015 2015 
2015 2015 2015 2015 2015 2015 2015 2015 2015 
2015 2015 2015 2015 2015 2015 2015 2015 2015 
2015 2015 2015 2015 2015 2015 2015 2015 2015 
2015 2015 2015 2015 2015 2015 2015 2015 2015 
2015 2015 2015 2015 2015 2015 2015 2015 2015 
2015 2015 2015 2015 2015 2015 2015 2015 2015 
2015 2015 2015 2015 2015 2015 2015 2015 2015 
2015 2015 2015 2015 2015 2015 2015 2015 2015 
2015 2015 2015 2015 2015 2015 2015 2015 2015 
2015 2015 2015 2015 2015 2015 2015 2015 2015 
2015 2015 2015 2015 2015 2015 2015 2015 2015 
2015 2015 2015 2015 2015 2015 2015 2015 2015 
2015 2015 2015 2015 2015 2015 2015 2015 2015 
2015 2015 2015 2015 2015 2015 2015 2015 2015 
2015 2015 2015 2015 2015 2015 2015 2015 2015 
2015 2015 2015 2015 2015 2015 2015 2015 2015 
2015 2015 2015 2015 2015 2015 2015 2015 2015 
2015 2015 2015 2015 2015 2015 2015 2015 2015 
2015 2015 2015 2015 2015 2015 2015 2015 2015 
2015 2015 2015 2015 2015 2015 2015 2015 2015 
2015 2015 2015 2015 2015 2015 2015 2015 2015 
2015 2015 2015 2015 2015 2015 2015 2015 2015 
2015 2015 2015 2015 2015 2015 2015 2015 2015 
2015 2015 2015 2015 2015 2015 2015 2015 2015 
2015 2015 2015 2015 2015 2015 2015 2015 2015 
2015 2015 2015 2015 2015 2015 2015 2015 2015 
2015 2015 2015 2015 2015 2015 2015 2015 2015 
2015 2015 2015 2015 2015 2015 2015 2015 2015 
2015 2015 2015 2015 2015 2015 2015 2015 2015 
2015 2015 2015 2015 2015 2015 2015 2015 2015 
2015 2015 2015 2015 2015 2015 2015 2015 2015 
2015 2015 2015 2015 2015 2015 2015 2015 2015 
2015 2015 2015 2015 2015 2015 2015 2015 2015 
2015 2015 2015 2015 2015 2015 2015 2015 2015 
2015 2015 2015 2015 2015 2015 2015 2015 2015 
2015 2015 2015 2015 2015 2015 2015 2015 2015 
2015 2015 2015 2015 2015 2015 2015 2015 2015 
2015 2015 2015 2015 2015 2015 2015 2015 2015 
2015 2015 2015 2015 2015 2015 2015 2015 2015 
2015 2015 2015 2015 2015 2015 2015 2015 2015 
2015 2015 2015 2015 2015 2015 2015 2015 2015 
2015 2015 2015 2015 2015 2015 2015 2015 2015 
2015 2015 2015 2015 2015 2015 2015 2015 2015 
2015 2015 2015 2015 2015 2015 2015 2015 2015 
2015 2015 2015 2015 2015 2015 2015 2015 2015 
2015 2015 2015 2015 2015 2015 2015 2015 2015 
2015 2015 2015 2015 2015 2015 2015 2015 2015 
2015 2015 2015 2015 2015 2015 2015 2015 2015 
2015 2015 2015 2015 2015 2015 2015 2015 2015 
2015 2015 2015 2015 2015 2015 2015 2015 2015 
2015 2015 2015 2015 2015 2015 2015 2015 2015 
2015 2015 2015 2015 2015 2015 2015 2015 2015 
2015 2015 2015 2015 2015 2015 2015 2015 2015 
2015 2015 2015 2015 2015 2015 2015 2015 2015 
2015 2015 2015 2015 2015 2015 2015 2015 2015 
2015 2015 2015 2015 2015 2015 2015 2015 2015 
2015 2015 2015 2015 2015 2015 2015 2015 2015 
2015 2015 2015 2015 2015 2015 2015 2015 2015 
2015 2015 2015 2015 2015 2015 2015 2015 2015 
2015 2015 2015 2015 2015 2015 2015 2015 2015 
2015 2015 2015 2015 2015 2015 2015 2015 2015 
2015 2015 2015 2015 2015 2015 2015 2015 2015 
2015 2015 2015 2015 2015 2015 2015 2015 2015 
2015 2015 2015 2015 2015 2015 2015 2015 2015 
2015 2015 2015 2015 2015 2015 2015 2015 2015 
2015 2015 2015 2015 2015 2015 2015 2015 2015 
2015 2015 2015 2015 2015 2015 2015 2015 2015 
2015 2015 2015 2015 2015 2015 2015 2015 2015 
2015 2015 2015 2015 2015 2015 2015 2015 2015 
2015 2015 2015 2015 2015 2015 2015 2015 2015 
2015 2015 2015 2015 2015 2015 2015 2015 2015 
2015 2015 2015 2015 2015 2015 2015 2015 2015 
2015 2015 2015 2015 2015 2015 2015 2015 2015 
2015 2015 2015 2015 2015 2015 2015 2015 2015 
2015 2015 2015 2015 2015 2015 2015 2015 2015 
2015 2015 2015 2015 2015 2015 2015 2015 2015 
2015 2015 2015 2015 2015 2015 2015 2015 2015 
2015 2015 2015 2015 2015 2015 2015 2015 2015 
2015 2015 2015 2015 2015 2015 2015 2015 2015 
2015 2015 2015 2015 2015 2015 2015 2015 2015 
2015 2015 2015 2015 2015 2015 2015 2015 2015 
2015 2015 2015 2015 2015 2015 2015 2015 2015 
2015 2015 2015 2015 2015 2015 2015 2015 2015 
2015 2015 2015 2015 2015 2015 2015 2015 2015 
2015 2015 2015 2015 2015 2015 2015 2015 2015 
2015 2015 2015 2015 2015 2015 2015 2015 2015 
2015 2015 2015 2015 2015 2015 2015 2015 2015 
2015 2015 2015 2015 2015 2015 2015 2015 2015 
2015 2015 2015 2015 2015 2015 2015 2015 2015 
2015 2015 2015 2015 2015 2015 2015 2015 2015 
2015 2015 2015 2015 2015 2015 2015 2015 2015 
2015 2015 2015 2015 2015 2015 2015 2015 2015 
2015 2015 2015 2015 2015 2015 2015 2015 2015 
2015 2015 2015 2015 2015 2015 2015 2015 2015 
2015 2015 2015 2015 2015 2015 2015 2015 2015 
2015 2015 2015 2015 2015 2015 2015 2015 2015 
2015 2015 2015 2015 2015 2015 2015 2015 2015 
2015 2015 2015 2015 2015 2015 2015 2015 2015 
2015 2015 2015 2015 2015 2015 2015 2015 2015 
2015 2015 2015 2015 2015 2015 2015 2015 2015 
2015 2015 2015 2015 2015 2015 2015 2015 2015 
2015 2015 2015 2015 2015 2015 2015 2015 2015 
2015 2015 2015 2015 2015 2015 2015 2015 2015 
2015 2015 2015 2015 2015 2015 2015 2015 2015 
2015 2015 2015 2015 2015 2015 2015 2015 2015 
2015 2015 2015 2015 2015 2015 2015 2015 2015 
2015 2015 2015 2015 2015 2015 2015 2015 2015 
2015 2015 2015 2015 2015 2015 2015 2015 2015 
2015 2015 2015 2015 2015 2015 2015 2015 2015 
2015 2015 2015 2015 2015 2015 2015 2015 2015 
2015 2015 2015 2015 2015 2015 2015 2015 2015 
2015 2015 2015 2015 2015 2015 2015 2015 2015 
2015 2015 2015 2015 2015 2015 2015 2015 2015 
2015 2015 2015 2015 2015 2015 2015 2015 2015 
2015 2015 2015 2015 2015 2015 2015 2015 2015 
2015 2015 2015 2015 2015 2015 2015 2015 2015 
2015 2015 2015 2015 2015 2015 2015 2015 2015 
2015 2015 2015 2015 2015 2015 2015 2015 2015 
2015 2015 2015 2015 2015 2015 2015 2015 2015 
2015 2015 2015 2015 2015 2015 2015 2015 2015 
2015 2015 2015 2015 2015 2015 2015 2015 2015 
2015 2015 2015 2015 2015 2015 2015 2015 2015 
2015 2015 2015 2015 2015 2015 2015 2015 2015 
2015 2015 2015 2015 2015 2015 2015 2015 2015 
2015 2015 2015 2015 2015 2015 2015 2015 2015 
2015 2015 2015 2015 2015 2015 2015 2015 2015 
2015 2015 2015 2015 2015 2015 2015 2015 2015 
2015 2015 2015 2015 2015 2015 2015 2015 2015 
2015 2015 2015 2015 2015 2015 2015 2015 2015 
2015 2015 2015 2015 2015 2015 2015 2015 2015 
2015 2015 2015 2015 2015 2015 2015 2015 2015 
2015 2015 2015 2015 2015 2015 2015 2015 2015 
2015 2015 2015 2015 2015 2015 2015 2015 2015 
2015 2015 2015 2015 2015 2015 2015 2015 2015 
2015 2015 2015 2015 2015 2015 2015 2015 2015 
2015 2015 2015 2015 2015 2015 2015 2015 2015 
2015 2015 2015 2015 2015 2015 2015 2015 2015 
2015 2015 2015 2015 2015 2015 2015 2015 2015 
2015 2015 2015 2015 2015 2015 2015 2015 2015 
2015 2015 2015 2015 2015 2015 2015 2015 2015 
2015 2015 2015 2015 2015 2015 2015 2015 2015 
2015 2015 2015 2015 2015 2015 2015 2015 2015 
2015 2015 2015 2015 2015 2015 2015 2015 2015 
2015 2015 2015 2015 2015 2015 2015 2015 2015 
2015 2015 2015 2015 2015 2015 2015 2015 2015 
2015 2015 2015 2015 2015 2015 2015 2015 2015 
2015 2015 2015 2015 2015 2015 2015 2015 2015 
2015 2015 2015 2015 2015 2015 2015 2015 2015 
2015 2015 2015 2015 2015 2015 2015 2015 2015 
2015 2015 2015 2015 2015 2015 2015 2015 2015 
2015 2015 2015 2015 2015 2015 2015 2015 2015 
2015 2015 2015 2015 2015 2015 2015 2015 2015 
2015 2015 2015 2015 2015 2015 2015 2015 2015 
2015 2015 2015 2015 2015 2015 2015 2015 2015 
2015 2015 2015 2015 2015 2015 2015 2015 2015 
2015 2015 2015 2015 2015 2015 2015 2015 2015 
2015 2015 2015 2015 2015 2015 2015 2015 2015 
2015 2015 2015 2015 2015 2015 2015 2015 2015 
2015 2015 2015 2015 2015 2015 2015 2015 2015 
2015 2015 2015 2015 2015 2015 2015 2015 2015 
2015 2015 2015 2015 2015 2015 2015 2015 2015 
2015 2015 2015 2015 2015 2015 2015 2015 2015 
2015 2015 2015 2015 2015 2015 2015 2015 2015 
2015 2015 2015 2015 2015 2015 2015 2015 2015 
2015 2015 2015 2015 2015 2015 2015 2015 2015 
2015 2015 2015 2015 2015 2015 2015 2015 2015 
2015 2015 2015 2015 2015 2015 2015 2015 2015 
2015 2015 2015 2015 2015 2015 2015 2015 2015 
2015 2015 2015 2015 2015 2015 2015 2015 2015 
2015 2015 2015 2015 2015 2015 2015 2015 2015 
2015 2015 2015 2015 2015 2015 2015 2015 2015 
2015 2015 2015 2015 2015 2015 2015 2015 2015 
2015 2015 2015 2015 2015 2015 2015 2015 2015 
2015 2015 2015 2015 2015 2015 2015 2015 2015 
2015 2015 2015 2015 2015 2015 2015 2015 2015 
2015 2015 2015 2015 2015 2015 2015 2015 2015 
2015 2015 2015 2015 2015 2015 2015 2015 2015 
2015 2015 2015 2015 2015 2015 2015 2015 2015 
2015 2015 2015 2015 2015 2015 2015 2015 2015 
2015 2015 2015 2015 2015 2015 2015 2015 2015 
2015 2015 2015 2015 2015 2015 2015 2015 2015 
2015 2015 2015 2015 2015 2015 2015 2015 2015 
2015 2015 2015 2015 2015 2015 2015 2015 2015 
2015 2015 2015 2015 2015 2015 2015 2015 2015 
2015 2015 2015 2015 2015 2015 2015 2015 2015 
2015 2015 2015 2015 2015 2015 2015 2015 2015 
2015 2015 2015 2015 2015 2015 2015 2015 2015 
2015 2015 2015 2015 2015 2015 2015 2015 2015 
2015 2015 2015 2015 2015 2015 2015 2015 2015 
2015 2015 2015 2015 2015 2015 2015 2015 2015 
2015 2015 2015 2015 2015 2015 2015 2015 2015 
2015 2015 2015 2015 2015 2015 2015 2015 2015 
2015 2015 2015 2015 2015 2015 2015 2015 2015 
2015 2015 2015 2015 2015 2015 2015 2015 2015 
2015 2015 2015 2015 2015 2015 2015 2015 2015 
2015 2015 2015 2015 2015 2015 2015 2015 2015 
2015 2015 2015 2015 2015 2015 2015 2015 2015 
2015 2015 2015 2015 2015 2015 2015 2015 2015 
2015 2015 2015 2015 2015 2015 2015 2015 2015 
2015 2015 2015 2015 2015 2015 2015 2015 2015 
2015 2015 2015 2015 2015 2015 2015 2015 2015 
2015 2015 2015 2015 2015 2015 2015 2015 2015 
2015 2015 2015 2015 2015 2015 2015 2015 2015 
2015 2015 2015 2015 2015 2015 2015 2015 2015 
2015 2015 2015 2015 2015 2015 2015 2015 2015 
2015 2015 2015 2015 2015 2015 2015 2015 2015 
2015 2015 2015 2015 2015 2015 2015 2015 2015 
2015 2015 2015 2015 2015 2015 2015 2015 2015 
2015 2015 2015 2015 2015 2015 2015 2015 2015 
2015 2015 2015 2015 2015 2015 2015 2015 2015 
2015 2015 2015 2015 2015 2015 2015 2015 2015 
2015 2015 2015 2015 2015 2015 2015 2015 2015 
2015 2015 2015 2015 2015 2015 2015 2015 2015 
2015 2015 2015 2015 2015 2015 2015 2015 2015 
2015 2015 2015 2015 2015 2015 2015 2015 2015 
2015 2015 2015 2015 2015 2015 2015 2015 2015 
2015 2015 2015 2015 2015 2015 2015 2015 2015 
2015 2015 2015 2015 2015 2015 2015 2015 2015 
2015 2015 2015 2015 2015 2015 2015 2015 2015 
2015 2015 2015 2015 2015 2015 2015 2015 2015 
2015 2015 2015 2015 2015 2015 2015 2015 2015 
2015 2015 2015 2015 2015 2015 2015 2015 2015 
2015 2015 2015 2015 2015 2015 2015 2015 2015 
2015 2015 2015 2015 2015 2015 2015 2015 2015 
2015 2015 2015 2015 2015 2015 2015 2015 2015 
2015 2015 2015 2015 2015 2015 2015 2015 2015 
2015 2015 2015 2015 2015 2015 2015 2015 2015 
2015 2015 2015 2015 2015 2015 2015 2015 2015 
2015 2015 2015 2015 2015 2015 2015 2015 2015 
2015 2015 2015 2015 2015 2015 2015 2015 2015 
2015 2015 2015 2015 2015 2015 2015 2015 2015 
2015 2015 2015 2015 2015 2015 2015 2015 2015 
2015 2015 2015 2015 2015 2015 2015 2015 2015 
2015 2015 2015 2015 2015 2015 2015 2015 2015 
2015 2015 2015 2015 2015 2015 2015 2015 2015 
2015 2015 2015 2015 2015 2015 2015 2015 2015 
2015 2015 2015 2015 2015 2015 2015 2015 2015 
2015 2015 2015 2015 2015 2015 2015 2015 2015 
2015 2015 2015 2015 2015 2015 2015 2015 2015 
2015 2015 2015 2015 2015 2015 2015 2015 2015 
2015 2015 2015 2015 2015 2015 2015 2015 2015 
2015 2015 2015 2015 2015 2015 2015 2015 2015 
2015 2015 2015 2015 2015 2015 2015 2015 2015 
2015 2015 2015 2015 2015 2015 2015 2015 2015 
2015 2015 2015 2015 2015 2015 2015 2015 2015 
2015 2015 2015 2015 2015 2015 2015 2015 2015 
2015 2015 2015 2015 2015 2015 2015 2015 2015 
2015 2015 2015 2015 2015 2015 2015 2015 2015 
2015 2015 2015 2015 2015 2015 2015 2015 2015 
2015 2015 2015 2015 2015 2015 2015 2015 2015 
2015 2015 2015 2015 2015 2015 2015 2015 2015 
2015 2015 2015 2015 2015 2015 2015 2015 2015 
2015 2015 2015 2015 2015 2015 2015 2015 2015 
2015 2015 2015 2015 2015 2015 2015 2015 2015 
2015 2015 2015 2015 2015 2015 2015 2015 2015 
2015 2015 2015 2015 2015 2015 2015 2015 2015 
2015 2015 2015 2015 2015 2015 2015 2015 2015 
2015 2015 2015 2015 2015 2015 2015 2015 2015 
2015 2015 2015 2015 2015 2015 2015 2015 2015 
2015 2015 2015 2015 2015 2015 2015 2015 2015 
2015 2015 2015 2015 2015 2015 2015 2015 2015 
2015 2015 2015 2015 2015 2015 2015 2015 2015 
2015 2015 2015 2015 2015 2015 2015 2015 2015 
2015 2015 2015 2015 2015 2015 2015 2015 2015 
2015 2015 2015 2015 2015 2015 2015 2015 2015 
2015 2015 2015 2015 2015 2015 2015 2015 2015 
2015 2015 2015 2015 2015 2015 2015 2015 2015 
2015 2015 2015 2015 2015 2015 2015 2015 2015 
2015 2015 2015 2015 2015 2015 2015 2015 2015 
2015 2015 2015 2015 2015 2015 2015 2015 2015 
2015 2015 2015 2015 2015 2015 2015 2015 2015 
2015 2015 2015 2015 2015 2015 2015 2015 2015 
2015 2015 2015 2015 2015 2015 2015 2015 2015 
2015 2015 2015 2015 2015 2015 2015 2015 2015 
2015 2015 2015 2015 2015 2015 2015 2015 2015 
2015 2015 2015 2015 2015 2015 2015 2015 2015 
2015 2015 2015 2015 2015 2015 2015 2015 2015 
2015 2015 2015 2015 2015 2015 2015 2015 2015 
2015 2015 2015 2015 2015 2015 2015 2015 2015 
2015 2015 2015 2015 2015 2015 2015 2015 2015 
2015 2015 2015 2015 2015 2015 2015 2015 2015 
2015 2015 2015 2015 2015 2015 2015 2015 2015 
2015 2015 2015 2015 2015 2015 2015 2015 2015 
2015 2015 2015 2015 2015 2015 2015 2015 2015 
2015 2015 2015 2015 2015 2015 2015 2015 2015 
2015 2015 2015 2015 2015 2015 2015 2015 2015 
2015 2015 2015 2015 2015 2015 2015 2015 2015 
2015 2015 2015 2015 2015 2015 2015 2015 2015 
2015 2015 2015 2015 2015 2015 2015 2015 2015 
2015 2015 2015 2015 2015 2015 2015 2015 2015 
2015 2015 2015 2015 2015 2015 2015 2015 2015 
2015 2015 2015 2015 2015 2015 2015 2015 2015 
2015 2015 2015 2015 2015 2015 2015 2015 2015 
2015 2015 2015 2015 2015 2015 2015 2015 2015 
2015 2015 2015 2015 2015 2015 2015 2015 2015 
2015 2015 2015 2015 2015 2015 2015 2015 2015 
2015 2015 2015 2015 2015 2015 2015 2015 2015 
2015 2015 2015 2015 2015 2015 2015 2015 2015 
2015 2015 2015 2015 2015 2015 2015 2015 2015 
2015 2015 2015 2015 2015 2015 2015 2015 2015 
2015 2015 2015 2015 2015 2015 2015 2015 2015 
2015 2015 2015 2015 2015 2015 2015 2015 2015 
2015 2015 2015 2015 2015 2015 2015 2015 2015 
2015 2015 2015 2015 2015 2015 2015 2015 2015 
2015 2015 2015 2015 2015 2015 2015 2015 2015 
2015 2015 2015 2015 2015 2015 2015 2015 2015 
2015 2015 2015 2015 2015 2015 2015 2015 2015 
2015 2015 2015 2015 2015 2015 2015 2015 2015 
2015 2015 2015 2015 2015 2015 2015 2015 2015 
2015 2015 2015 2015 2015 2015 2015 2015 2015 
2015 2015 2015 2015 2015 2015 2015 2015 2015 
2015 2015 2015 2015 2015 2015 2015 2015 2015 
2015 2015 2015 2015 2015 2015 2015 2015 2015 
2015 2015 2015 2015 2015 2015 2015 2015 2015 
2015 2015 2015 2015 2015 2015 2015 2015 2015 
2015 2015 2015 2015 2015 2015 2015 2015 2015 
2015 2015 2015 2015 2015 2015 2015 2015 2015 
2015 2015 2015 2015 2015 2015 2015 2015 2015 
2015 2015 2015 2015 2015 2015 2015 2015 2015 
2015 2015 2015 2015 2015 2015 2015 2015 2015 
2015 2015 2015 2015 2015 2015 2015 2015 2015 
2015 2015 2015 2015 2015 2015 2015 2015 2015 
2015 2015 2015 2015 2015 2015 2015 2015 2015 
2015 2015 2015 2015 2015 2015 2015 2015 2015 
2015 2015 2015 2015 2015 2015 2015 2015 2015 
2015 2015 2015 2015 2015 2015 2015 2015 2015 
2015 2015 2015 2015 2015 2015 2015 2015 2015 
2015 2015 2015 2015 2015 2015 2015 2015 2015 
2015 2015 2015 2015 2015 2015 2015 2015 2015 
2015 2015 2015 2015 2015 2015 2015 2015 2015 
2015 2015 2015 2015 2015 2015 2015 2015 2015 
2015 2015 2015 2015 2015 2015 2015 2015 2015 
2015 2015 2015 2015 2015 2015 2015 2015 2015 
2015 2015 2015 2015 2015 2015 2015 2015 2015 
2015 2015 2015 2015 2015 2015 2015 2015 2015 
2015 2015 2015 2015 2015 2015 2015 2015 2015 
2015 2015 2015 2015 2015 2015 2015 2015 2015 
2015 2015 2015 2015 2015 2015 2015 2015 2015 
2015 2015 2015 2015 2015 2015 2015 2015 2015 
2015 2015 2015 2015 2015 2015 2015 2015 2015 
2015 2015 2015 2015 2015 2015 2015 2015 2015 
2015 2015 2015 2015 2015 2015 2015 2015 2015 
2015 2015 2015 2015 2015 2015 2015 2015 2015 
2015 2015 2015 2015 2015 2015 2015 2015 2015 
2015 2015 2015 2015 2015 2015 2015 2015 2015 
2015 2015 2015 2015 2015 2015 2015 2015 2015 
2015 2015 2015 2015 2015 2015 2015 2015 2015 
2015 2015 2015 2015 2015 2015 2015 2015 2015 
2015 2015 2015 2015 2015 2015 2015 2015 2015 
2015 2015 2015 2015 2015 2015 2015 2015 2015 
2015 2015 2015 2015 2015 2015 2015 2015 2015 
2015 2015 2015 2015 2015 2015 2015 2015 2015 
2015 2015 2015 2015 2015 2015 2015 2015 2015 
2015 2015 2015 2015 2015 2015 2015 2015 2015 
2015 2015 2015 2015 2015 2015 2015 2015 2015 
2015 2015 2015 2015 2015 2015 2015 2015 2015 
2015 2015 2015 2015 2015 2015 2015 2015 2015 
2015 2015 2015 2015 2015 2015 2015 2015 2015 
2015 2015 2015 2015 2015 2015 2015 2015 2015 
2015 2015 2015 2015 2015 2015 2015 2015 2015 
2015 2015 2015 2015 2015 2015 2015 2015 2015 
2015 2015 2015 2015 2015 2015 2015 2015 2015 
2015 2015 2015 2015 2015 2015 2015 2015 2015 
2015 2015 2015 2015 2015 2015 2015 2015 2015 
2015 2015 2015 2015 2015 2015 2015 2015 2015 
2015 2015 2015 2015 2015 2015 2015 2015 2015 
2015 2015 2015 2015 2015 2015 2015 2015 2015 
2015 2015 2015 2015 2015 2015 2015 2015 2015 
2015 2015 2015 2015 2015 2015 2015 2015 2015 
2015 2015 2015 2015 2015 2015 2015 2015 2015 
2015 2015 2015 2015 2015 2015 2015 2015 2015 
2015 2015 2015 2015 2015 2015 2015 2015 2015 
2015 2015 2015 2015 2015 2015 2015 2015 2015 
2015 2015 2015 2015 2015 2015 2015 2015 2015 
2015 2015 2015 2015 2015 2015 2015 2015 2015 
2015 2015 2015 2015 2015 2015 2015 2015 2015 
2015 2015 2015 2015 2015 2015 2015 2015 2015 
2015 2015 2015 2015 2015 2015 2015 2015 2015 
2015 2015 2015 2015 2015 2015 2015 2015 2015 
2015 2015 2015 2015 2015 2015 2015 2015 2015 
2015 2015 2015 2015 2015 2015 2015 2015 2015 
2015 2015 2015 2015 2015 2015 2015 2015 2015 
2015 2015 2015 2015 2015 2015 2015 2015 2015 
2015 2015 2015 2015 2015 2015 2015 2015 2015 
2015 2015 2015 2015 2015 2015 2015 2015 2015 
2015 2015 2015 2015 2015 2015 2015 2015 2015 
2015 2015 2015 2015 2015 2015 2015 2015 2015 
2015 2015 2015 2015 2015 2015 2015 2015 2015 
2015 2015 2015 2015 2015 2015 2015 2015 2015 
2015 2015 2015 2015 2015 2015 2015 2015 2015 
2015 2015 2015 2015 2015 2015 2015 2015 2015 
2015 2015 2015 2015 2015 2015 2015 2015 2015 
2015 2015 2015 2015 2015 2015 2015 2015 2015 
2015 2015 2015 2015 2015 2015 2015 2015 2015 
2015 2015 2015 2015 2015 2015 2015 2015 2015 
2015 2015 2015 2015 2015 2015 2015 2015 2015 
2015 2015 2015 2015 2015 2015 2015 2015 2015 
2015 2015 2015 2015 2015 2015 2015 2015 2015 
2015 2015 2015 2015 2015 2015 2015 2015 2015 
2015 2015 2015 2015 2015 2015 2015 2015 2015 
2015 2015 2015 2015 2015 2015 2015 2015 2015 
2015 2015 2015 2015 2015 2015 2015 2015 2015 
2015 2015 2015 2015 2015 2015 2015 2015 2015 
2015 2015 2015 2015 2015 2015 2015 2015 2015 
2015 2015 2015 2015 2015 2015 2015 2015 2015 
2015 2015 2015 2015 2015 2015 2015 2015 2015 
2015 2015 2015 2015 2015 2015 2015 2015 2015 
2015 2015 2015 2015 2015 2015 2015 2015 2015 
2015 2015 2015 2015 2015 2015 2015 2015 2015 
2015 2015 2015 2015 2015 2015 2015 2015 2015 
2015 2015 2015 2015 2015 2015 2015 2015 2015 
2015 2015 2015 2015 2015 2015 2015 2015 2015 
2015 2015 2015 2015 2015 2015 2015 2015 2015 
2015 2015 2015 2015 2015 2015 2015 2015 2015 
2015 2015 2015 2015 2015 2015 2015 2015 2015 
2015 2015 2015 2015 2015 2015 2015 2015 2015 
2015 2015 2015 2015 2015 2015 2015 2015 2015 
2015 2015 2015 2015 2015 2015 2015 2015 2015 
2015 2015 2015 2015 2015 2015 2015 2015 2015 
2015 2015 2015 2015 2015 2015 2015 2015 2015 
2015 2015 2015 2015 2015 2015 2015 2015 2015 
2015 2015 2015 2015 2015 2015 2015 2015 2015 
2015 2015 2015 2015 2015 2015 2015 2015 2015 
2015 2015 2015 2015 2015 2015 2015 2015 2015 
2015 2015 2015 2015 2015 2015 2015 2015 2015 
2015 2015 2015 2015 2015 2015 2015 2015 2015 