# vtk DataFile Version 4.2
vtk output
ASCII
DATASET POLYDATA
POINTS 14328 float
-1.56576 6.95262 -15.7674 -1.64495 7.05209 -16.0375 -1.449 6.91609 -15.8826 
-1.83347 6.99276 -15.9359 -1.54481 6.7389 -15.9504 -2.22619 5.66477 -15.7953 
-2.11537 5.82428 -15.89 -1.95042 5.62389 -15.9432 -2.3671 5.75924 -15.8862 
-2.20472 5.5349 -16.0077 -2.89822 5.32532 -15.9857 -2.68206 5.08667 -15.9893 
-2.80151 5.05619 -15.779 -3.03846 5.09528 -15.9253 -2.95331 4.90278 -15.9977 
-1.71586 7.04595 -16.5246 -1.37557 6.80979 -16.3419 -2.25179 6.77602 -16.1362 
-2.16769 7.16926 -16.4471 -2.83466 6.80012 -16.3259 -2.69662 7.08701 -16.4488 
-2.99201 6.9511 -16.6096 -1.1612 6.34351 -16.2642 -1.01381 6.64168 -16.6124 
-0.79823 6.21961 -16.6621 -1.68012 6.3705 -16.085 -2.22871 6.11938 -16.0572 
-2.7462 6.31868 -16.2359 -3.13897 6.52561 -16.5857 -1.15999 5.90066 -16.5971 
-1.36623 5.68566 -16.4459 -1.57373 5.88065 -16.1704 -2.58738 5.60576 -16.1201 
-3.13025 5.84482 -16.3812 -1.73046 5.54341 -16.2902 -2.24494 5.48238 -16.5474 
-2.59922 5.16628 -16.45 -3.30911 5.00889 -16.2027 -3.30426 5.33069 -16.2856 
-3.58986 5.14142 -16.5223 -2.88459 4.86448 -16.4099 -3.43984 4.85467 -16.5442 
-1.77216 7.48294 -16.9849 -1.69029 7.7109 -17.2575 -1.49637 7.42788 -17.1793 
-2.22007 7.43161 -16.8791 -2.05317 7.70218 -17.0644 -2.46677 7.54671 -17.2505 
-1.08899 6.85568 -16.9305 -1.048 6.99974 -17.2515 -0.791931 6.72678 -16.9593 
-1.60003 7.23364 -17.0821 -1.6007 6.90143 -16.7653 -1.28096 6.91784 -17.1051 
-1.7857 7.10841 -16.9049 -2.80137 7.23608 -16.9739 -3.20379 6.90126 -17.0374 
-0.588245 6.28044 -17.2207 -1.40394 6.83122 -16.906 -3.50874 6.63183 -17.0688 
-3.57699 6.17738 -16.7651 -4.00313 6.17353 -16.9154 -3.86666 6.46805 -17.0632 
-4.16584 6.33813 -17.2008 -0.918329 5.79338 -16.8111 -0.747702 5.84411 -17.0256 
-1.20101 5.74693 -16.9899 -1.65377 5.89414 -17.174 -1.67304 5.71894 -16.7188 
-2.1586 5.92071 -17.2019 -2.12542 5.71505 -16.8589 -2.50976 5.72954 -17.1013 
-3.60258 5.56871 -16.6445 -3.96825 5.69665 -16.8601 -4.32704 5.89485 -17.174 
-0.935559 5.51173 -17.1898 -1.72802 5.38685 -17.2347 -1.36051 4.97982 -17.0941 
-1.66182 4.98182 -16.9634 -1.93288 5.11583 -17.1548 -2.82154 5.39981 -17.0975 
-2.88471 5.00898 -16.8193 -3.1595 5.10626 -17.1892 -3.87585 5.14832 -16.8 
-4.30067 5.147 -17.145 -1.39928 4.43586 -17.0819 -1.56112 4.6369 -16.9313 
-1.87762 4.68433 -17.0339 -3.37881 4.84747 -17.0077 -3.87191 4.85574 -17.0241 
-1.70357 4.32929 -17.0671 -0.411612 0.916635 -16.9439 -0.226849 1.06344 -17.1762 
-0.185532 0.771112 -17.1356 -0.647223 1.05403 -17.1319 -2.84185 0.892181 -16.9899 
-2.8258 1.17005 -17.2345 -2.69713 0.878064 -17.091 -3.07675 0.911884 -17.1272 
-0.596054 0.761993 -17.1578 -2.79478 0.67348 -17.1493 -6.43537 17.5977 -17.528 
-6.33871 17.9984 -17.7491 -6.1972 17.6819 -17.7256 -6.59637 17.7838 -17.6846 
-6.34941 17.0464 -17.4615 -6.04529 17.162 -17.7249 -6.72019 17.2509 -17.6278 
-6.00085 16.5708 -17.471 -5.80266 16.7777 -17.86 -5.67644 16.5166 -17.6893 
-6.42003 16.3844 -17.4133 -6.74247 16.5254 -17.6835 -5.76565 16.167 -17.6963 
-6.05522 15.6695 -17.6372 -6.31389 15.9021 -17.4651 -6.63871 15.9547 -17.6107 
-6.40312 15.3855 -17.5457 -6.18735 15.1843 -17.7744 -6.62897 15.4625 -17.7182 
-6.50663 15.138 -17.8237 -5.35214 14.1482 -17.5382 -5.20073 14.4011 -17.7395 
-5.04733 14.0373 -17.8665 -5.67455 14.0392 -17.5312 -5.59846 14.3671 -17.634 
-5.98966 14.1491 -17.8555 -5.43986 13.8405 -17.6479 -5.8347 13.7837 -17.7333 
-5.42293 12.8143 -17.4596 -5.19803 13.2298 -17.7537 -5.02373 12.8733 -17.7341 
-5.84142 12.7413 -17.4814 -5.61557 13.163 -17.6558 -6.0205 13.0105 -17.8036 
-5.28386 12.3106 -17.3968 -4.96518 12.3044 -17.7305 -5.75399 12.269 -17.3873 
-6.08445 12.4326 -17.7231 -5.19915 11.8596 -17.4701 -4.99452 11.6581 -17.8494 
-5.60552 11.7553 -17.4196 -6.0305 11.7738 -17.7666 -5.401 11.4229 -17.6216 
-5.81168 11.3592 -17.706 1.33096 9.13819 -17.5124 1.5227 9.48235 -17.719 
1.78586 9.24517 -17.6172 1.14456 9.43642 -17.7295 -5.81333 9.27491 -17.5804 
-5.7294 9.42664 -17.6687 -5.63659 9.27239 -17.6446 -5.96332 9.37125 -17.685 
1.80558 8.75893 -17.4632 2.04121 9.04649 -17.6456 2.26656 8.62375 -17.6833 
1.26762 8.62809 -17.3517 0.840472 9.1501 -17.6286 0.701349 8.70346 -17.4273 
0.162524 8.56504 -17.5179 0.377774 8.98636 -17.6728 -0.0358612 8.7459 -17.7224 
-5.75251 9.13629 -17.7621 1.92167 8.09555 -17.4167 2.33982 7.90822 -17.6396 
1.39272 8.11891 -17.3295 0.787628 8.10531 -17.3269 0.233167 8.1042 -17.4358 
-0.153186 8.2372 -17.6605 1.93796 7.46486 -17.4099 2.33112 7.27901 -17.7547 
1.50485 7.5926 -17.3266 0.958282 7.45483 -17.4002 0.365359 7.56226 -17.4644 
-0.134015 7.54279 -17.794 -1.76498 7.7051 -17.7964 -1.43184 7.48274 -17.5348 
-2.11247 7.75302 -17.5089 -2.52462 7.52551 -17.8466 1.99866 7.00356 -17.4823 
2.16062 6.85 -17.7793 1.50743 7.01466 -17.4464 1.00559 6.84802 -17.758 
0.579254 7.14098 -17.658 0.181448 7.18281 -17.7754 -1.14953 7.19004 -17.8399 
-0.682452 6.76173 -17.6276 -1.41183 7.10354 -17.2599 -2.91674 7.30177 -17.7014 
-3.53329 6.87992 -17.4426 -3.3714 7.10288 -17.6597 -3.78719 6.9671 -17.8048 
1.85842 6.7106 -17.6325 1.49043 6.57334 -17.8054 -0.410065 6.4207 -17.5545 
-0.428989 6.47044 -17.8038 -0.321021 6.31668 -17.7154 -4.03038 6.68476 -17.6359 
-4.40132 6.31511 -17.6184 -0.412234 6.16216 -17.5967 -0.605557 5.78287 -17.6378 
-1.41378 5.55731 -17.2477 -1.92162 5.76768 -17.5514 -2.30372 5.96506 -17.767 
-2.68208 5.94571 -17.606 -2.83844 5.74947 -17.4065 -3.05857 5.71151 -17.8043 
-4.68334 6.03449 -17.7424 -4.73032 5.50969 -17.3752 -4.9558 5.78674 -17.7398 
-0.605356 5.07076 -17.4413 -0.428494 5.32088 -17.9091 -0.248529 4.91637 -17.6706 
-1.03322 5.13295 -17.2612 -2.21567 4.91519 -17.4005 -2.11738 5.41848 -17.5409 
-2.40873 5.25156 -17.869 -3.31002 5.32655 -17.5992 -3.52093 5.02917 -17.4425 
-3.69301 5.09504 -17.8836 -4.77504 4.97293 -17.2937 -5.11233 5.47912 -17.604 
-5.13107 5.04532 -17.4616 -5.42437 5.1815 -17.8227 -0.456619 4.51337 -17.4722 
-0.128842 4.61805 -17.753 -0.998456 4.54567 -17.2751 -2.13153 4.30759 -17.3355 
-2.45398 4.66176 -17.7754 -3.99176 4.79823 -17.5013 -4.55719 4.62101 -17.4319 
-4.33932 4.36587 -17.8698 -5.03111 4.5495 -17.4585 -5.43083 4.52065 -17.8329 
-6.46693 4.37109 -17.5239 -6.38878 4.77149 -17.7522 -6.25459 4.44379 -17.7221 
-6.6412 4.59628 -17.8012 -0.315894 4.18182 -17.7365 -0.694116 3.8809 -17.6804 
-0.866116 4.04372 -17.4789 -1.5935 3.94792 -17.3499 -2.22058 3.78505 -17.4464 
-2.54312 4.05872 -17.7625 -4.81105 4.18623 -17.6587 -5.17131 4.2068 -17.6515 
-6.35525 3.82114 -17.4481 -6.04418 3.91883 -17.6864 -6.73042 4.05451 -17.7318 
-0.424667 3.19666 -17.5593 -0.374057 3.4162 -17.6662 -0.239749 3.14403 -17.7129 
-1.05694 3.65741 -17.7678 -0.487628 3.26359 -17.7609 -1.68237 3.50212 -17.6225 
-1.89602 3.10277 -17.6642 -2.13233 3.32406 -17.4964 -2.53415 3.43949 -17.6545 
-5.96715 3.4248 -17.4823 -5.69652 3.56407 -17.776 -5.70513 3.22186 -17.7687 
-6.27431 3.2662 -17.4447 -6.73549 3.30531 -17.736 -0.332098 2.84597 -17.5733 
-0.207193 2.7039 -17.8094 -0.589609 2.73119 -17.7966 -2.32937 2.65377 -17.5038 
-1.93309 2.52742 -17.6658 -2.56229 2.88605 -17.6542 -5.9654 3.09754 -17.617 
-6.33492 2.94393 -17.7644 -0.349365 2.56038 -17.7334 -2.30088 2.08701 -17.4345 
-1.95137 1.90144 -17.7902 -2.85542 2.46294 -17.7657 -2.73917 2.07248 -17.4755 
-3.12676 2.07229 -17.7585 -1.06951 1.32473 -17.5015 -1.0279 1.62389 -17.7062 
-0.874832 1.43884 -17.8384 -1.20057 1.51663 -17.7797 -2.33202 1.49141 -17.4692 
-2.09138 1.42636 -17.7923 -2.66969 1.6656 -17.3506 -3.13116 1.62462 -17.5785 
0.137036 0.881506 -17.3174 0.268195 1.1186 -17.7162 0.432898 0.750549 -17.6038 
-0.404691 1.17515 -17.7351 -1.00256 0.920435 -17.275 -1.58855 1.18555 -17.8053 
-1.47931 0.925543 -17.5316 -2.22274 1.18378 -17.6604 -1.84146 0.890039 -17.7013 
-2.4258 0.876068 -17.4391 -3.31687 0.668491 -17.3526 -3.32826 1.14247 -17.4771 
-3.63491 1.01781 -17.7994 0.156015 0.458798 -17.4816 0.40957 0.426508 -17.7997 
-0.374808 0.584747 -17.5847 -0.0320435 0.324188 -17.7316 -1.05293 0.612305 -17.6429 
-1.69044 0.670157 -17.7182 -2.2076 0.559186 -17.6557 -2.0566 0.352048 -17.7364 
-2.38118 0.38985 -17.4753 -2.83915 0.296906 -17.3707 -3.30537 0.266107 -17.4519 
-3.63039 0.47287 -17.7255 0.216998 0.192151 -17.6995 -2.2604 0.0141724 -17.8315 
-2.9799 0.0442657 -17.72 -3.4481 0.116226 -17.7824 -6.39218 21.3509 -18.1708 
-6.41887 21.5156 -18.4256 -6.23079 21.1807 -18.389 -6.7082 21.2956 -18.4156 
-6.4487 21.0689 -18.3106 -6.93971 19.3491 -18.083 -6.9477 19.6477 -18.375 
-6.69371 19.4044 -18.3204 -7.16178 19.552 -18.3795 -6.5887 18.9795 -18.0373 
-6.43098 19.1211 -18.3448 -6.28125 18.8119 -18.2043 -7.00189 18.8544 -18.0275 
-7.31825 19.0998 -18.33 -6.48568 18.3178 -17.9441 -6.21272 18.242 -18.2279 
-6.92264 18.321 -18.0211 -7.33056 18.3565 -18.3062 -6.09882 17.6384 -18.1483 
-6.9424 17.6325 -17.9447 -7.22845 17.783 -18.2537 -6.01991 17.1901 -18.2894 
-7.04631 16.9154 -17.9606 -7.27384 17.2242 -18.3523 -5.81171 16.7921 -18.4598 
-5.53234 16.4445 -18.1165 -7.01759 16.3973 -18.0711 -7.23563 16.6664 -18.3974 
-5.38613 15.932 -18.0546 -5.19146 16.1724 -18.4979 -5.03441 15.7708 -18.3276 
-5.7179 15.8515 -17.8258 -6.82413 15.8761 -18.087 -7.06252 16.2051 -18.4946 
-5.28905 15.3389 -18.0627 -4.89229 15.2551 -18.3522 -5.73167 15.4595 -17.8737 
-6.66888 15.3138 -18.261 -5.26952 14.7849 -17.9419 -4.8882 14.5536 -18.1801 
-5.84819 14.8069 -17.9199 -6.3625 14.9505 -18.3171 -6.1583 14.5382 -18.2365 
-4.7919 14.0228 -18.2894 -6.16985 14.1953 -18.3856 -5.27885 13.5581 -17.8322 
-4.88442 13.4422 -18.1397 -5.74988 13.4685 -17.811 -6.0958 13.592 -18.197 
-4.80168 12.7586 -18.1863 -6.17104 12.8944 -18.2751 -4.79764 12.1359 -18.1853 
-6.17803 12.2838 -18.2752 -4.77589 11.5907 -18.2633 -6.16603 11.7886 -18.3784 
-5.29169 11.0579 -17.9072 -4.87581 11.0064 -18.2899 -5.74937 11.0008 -17.9277 
-6.07204 11.2469 -18.2279 -5.27052 10.5065 -18.032 -4.95283 10.4063 -18.2752 
-5.86187 10.4663 -18.0154 -6.13222 10.5375 -18.41 1.88402 9.91934 -18.1093 
[...]
CELL_DATA 28708
SCALARS scalars float
LOOKUP_TABLE default
1025 1025 1025 1025 1025 1025 1025 1025 1025 
1025 1025 1025 1025 1025 1025 1025 1025 1025 
1025 1025 1025 1025 1025 1025 1025 1025 1025 
1025 1025 1025 1025 1025 1025 1025 1025 1025 
1025 1025 1025 1025 1025 1025 1025 1025 1025 
1025 1025 1025 1025 1025 1025 1025 1025 1025 
1025 1025 1025 1025 1025 1025 1025 1025 1025 
1025 1025 1025 1025 1025 1025 1025 1025 1025 
1025 1025 1025 1025 1025 1025 1025 1025 1025 
1025 1025 1025 1025 1025 1025 1025 1025 1025 
1025 1025 1025 1025 1025 1025 1025 1025 1025 
1025 1025 1025 1025 1025 1025 1025 1025 1025 
1025 1025 1025 1025 1025 1025 1025 1025 1025 
1025 1025 1025 1025 1025 1025 1025 1025 1025 
1025 1025 1025 1025 1025 1025 1025 1025 1025 
1025 1025 1025 1025 1025 1025 1025 1025 1025 
1025 1025 1025 1025 1025 1025 1025 1025 1025 
1025 1025 1025 1025 1025 1025 1025 1025 1025 
1025 1025 1025 1025 1025 1025 1025 1025 1025 
1025 1025 1025 1025 1025 1025 1025 1025 1025 
1025 1025 1025 1025 1025 1025 1025 1025 1025 
1025 1025 1025 1025 1025 1025 1025 1025 1025 
1025 1025 1025 1025 1025 1025 1025 1025 1025 
1025 1025 1025 1025 1025 1025 1025 1025 1025 
1025 1025 1025 1025 1025 1025 1025 1025 1025 
1025 1025 1025 1025 1025 1025 1025 1025 1025 
1025 1025 1025 1025 1025 1025 1025 1025 1025 
1025 1025 1025 1025 1025 1025 1025 1025 1025 
1025 1025 1025 1025 1025 1025 1025 1025 1025 
1025 1025 1025 1025 1025 1025 1025 1025 1025 
1025 1025 1025 1025 1025 1025 1025 1025 1025 
1025 1025 1025 1025 1025 1025 1025 1025 1025 
1025 1025 1025 1025 1025 1025 1025 1025 1025 
1025 1025 1025 1025 1025 1025 1025 1025 1025 
1025 1025 1025 1025 1025 1025 1025 1025 1025 
1025 1025 1025 1025 1025 1025 1025 1025 1025 
1025 1025 1025 1025 1025 1025 1025 1025 1025 
1025 1025 1025 1025 1025 1025 1025 1025 1025 
1025 1025 1025 1025 1025 1025 1025 1025 1025 
1025 1025 1025 1025 1025 1025 1025 1025 1025 
1025 1025 1025 1025 1025 1025 1025 1025 1025 
1025 1025 1025 1025 1025 1025 1025 1025 1025 
1025 1025 1025 1025 1025 1025 1025 1025 1025 
1025 1025 1025 1025 1025 1025 1025 1025 1025 
1025 1025 1025 1025 1025 1025 1025 1025 1025 
1025 1025 1025 1025 1025 1025 1025 1025 1025 
1025 1025 1025 1025 1025 1025 1025 1025 1025 
1025 1025 1025 1025 1025 1025 1025 1025 1025 
1025 1025 1025 1025 1025 1025 1025 1025 1025 
1025 1025 1025 1025 1025 1025 1025 1025 1025 
1025 1025 1025 1025 1025 1025 1025 1025 1025 
1025 1025 1025 1025 1025 1025 1025 1025 1025 
1025 1025 1025 1025 1025 1025 1025 1025 1025 
1025 1025 1025 1025 1025 1025 1025 1025 1025 
1025 1025 1025 1025 1025 1025 1025 1025 1025 
1025 1025 1025 1025 1025 1025 1025 1025 1025 
1025 1025 1025 1025 1025 1025 1025 1025 1025 
1025 1025 1025 1025 1025 1025 1025 1025 1025 
1025 1025 1025 1025 1025 1025 1025 1025 1025 
1025 1025 1025 1025 1025 1025 1025 1025 1025 
1025 1025 1025 1025 1025 1025 1025 1025 1025 
1025 1025 1025 1025 1025 1025 1025 1025 1025 
1025 1025 1025 1025 1025 1025 1025 1025 1025 
1025 1025 1025 1025 1025 1025 1025 1025 1025 
1025 1025 1025 1025 1025 1025 1025 1025 1025 
1025 1025 1025 1025 1025 1025 1025 1025 1025 
1025 1025 1025 1025 1025 1025 1025 1025 1025 
1025 1025 1025 1025 1025 1025 1025 1025 1025 
1025 1025 1025 1025 1025 1025 1025 1025 1025 
1025 1025 1025 1025 1025 1025 1025 1025 1025 
1025 1025 1025 1025 1025 1025 1025 1025 1025 
1025 1025 1025 1025 1025 1025 1025 1025 1025 
1025 1025 1025 1025 1025 1025 1025 1025 1025 
1025 1025 1025 1025 1025 1025 1025 1025 1025 
1025 1025 1025 1025 1025 1025 1025 1025 1025 
1025 1025 1025 1025 1025 1025 1025 1025 1025 
1025 1025 1025 1025 1025 1025 1025 1025 1025 
1025 1025 1025 1025 1025 1025 1025 1025 1025 
1025 1025 1025 1025 1025 1025 1025 1025 1025 
1025 1025 1025 1025 1025 1025 1025 1025 1025 
1025 1025 1025 1025 1025 1025 1025 1025 1025 
1025 1025 1025 1025 1025 1025 1025 1025 1025 
1025 1025 1025 1025 1025 1025 1025 1025 1025 
1025 1025 1025 1025 1025 1025 1025 1025 1025 
1025 1025 1025 1025 1025 1025 1025 1025 1025 
1025 1025 1025 1025 1025 1025 1025 1025 1025 
1025 1025 1025 1025 1025 1025 1025 1025 1025 
1025 1025 1025 1025 1025 1025 1025 1025 1025 
1025 1025 1025 1025 1025 1025 1025 1025 1025 
1025 1025 1025 1025 1025 1025 1025 1025 1025 
1025 1025 1025 1025 1025 1025 1025 1025 1025 
1025 1025 1025 1025 1025 1025 1025 1025 1025 
1025 1025 1025 1025 1025 1025 1025 1025 1025 
1025 1025 1025 1025 1025 1025 1025 1025 1025 
1025 1025 1025 1025 1025 1025 1025 1025 1025 
1025 1025 1025 1025 1025 1025 1025 1025 1025 
1025 1025 1025 1025 1025 1025 1025 1025 1025 
1025 1025 1025 1025 1025 1025 1025 1025 1025 
1025 1025 1025 1025 1025 1025 1025 1025 1025 
1025 1025 1025 1025 1025 1025 1025 1025 1025 
1025 1025 1025 1025 1025 1025 1025 1025 1025 
1025 1025 1025 1025 1025 1025 1025 1025 1025 
1025 1025 1025 1025 1025 1025 1025 1025 1025 
1025 1025 1025 1025 1025 1025 1025 1025 1025 
1025 1025 1025 1025 1025 1025 1025 1025 1025 
1025 1025 1025 1025 1025 1025 1025 1025 1025 
1025 1025 1025 1025 1025 1025 1025 1025 1025 
1025 1025 1025 1025 1025 1025 1025 1025 1025 
1025 1025 1025 1025 1025 1025 1025 1025 1025 
1025 1025 1025 1025 1025 1025 1025 1025 1025 
1025 1025 1025 1025 1025 1025 1025 1025 1025 
1025 1025 1025 1025 1025 1025 1025 1025 1025 
1025 1025 1025 1025 1025 1025 1025 1025 1025 
1025 1025 1025 1025 1025 1025 1025 1025 1025 
1025 1025 1025 1025 1025 1025 1025 1025 1025 
1025 1025 1025 1025 1025 1025 1025 1025 1025 
1025 1025 1025 1025 1025 1025 1025 1025 1025 
1025 1025 1025 1025 1025 1025 1025 1025 1025 
1025 1025 1025 1025 1025 1025 1025 1025 1025 
1025 1025 1025 1025 1025 1025 1025 1025 1025 
1025 1025 1025 1025 1025 1025 1025 1025 1025 
1025 1025 1025 1025 1025 1025 1025 1025 1025 
1025 1025 1025 1025 1025 1025 1025 1025 1025 
1025 1025 1025 1025 1025 1025 1025 1025 1025 
1025 1025 1025 1025 1025 1025 1025 1025 1025 
1025 1025 1025 1025 1025 1025 1025 1025 1025 
1025 1025 1025 1025 1025 1025 1025 1025 1025 
1025 1025 1025 1025 1025 1025 1025 1025 1025 
1025 1025 1025 1025 1025 1025 1025 1025 1025 
1025 1025 1025 1025 1025 1025 1025 1025 1025 
1025 1025 1025 1025 1025 1025 1025 1025 1025 
1025 1025 1025 1025 1025 1025 1025 1025 1025 
1025 1025 1025 1025 1025 1025 1025 1025 1025 
1025 1025 1025 1025 1025 1025 1025 1025 1025 
1025 1025 1025 1025 1025 1025 1025 1025 1025 
1025 1025 1025 1025 1025 1025 1025 1025 1025 
1025 1025 1025 1025 1025 1025 1025 1025 1025 
1025 1025 1025 1025 1025 1025 1025 1025 1025 
1025 1025 1025 1025 1025 1025 1025 1025 1025 
1025 1025 1025 1025 1025 1025 1025 1025 1025 
1025 1025 1025 1025 1025 1025 1025 1025 1025 
1025 1025 1025 1025 1025 1025 1025 1025 1025 
1025 1025 1025 1025 1025 1025 1025 1025 1025 
1025 1025 1025 1025 1025 1025 1025 1025 1025 
1025 1025 1025 1025 1025 1025 1025 1025 1025 
1025 1025 1025 1025 1025 1025 1025 1025 1025 
1025 1025 1025 1025 1025 1025 1025 1025 1025 
1025 1025 1025 1025 1025 1025 1025 1025 1025 
1025 1025 1025 1025 1025 1025 1025 1025 1025 
1025 1025 1025 1025 1025 1025 1025 1025 1025 
1025 1025 1025 1025 1025 1025 1025 1025 1025 
1025 1025 1025 1025 1025 1025 1025 1025 1025 
1025 1025 1025 1025 1025 1025 1025 1025 1025 
1025 1025 1025 1025 1025 1025 1025 1025 1025 
1025 1025 1025 1025 1025 1025 1025 1025 1025 
1025 1025 1025 1025 1025 1025 1025 1025 1025 
1025 1025 1025 1025 1025 1025 1025 1025 1025 
1025 1025 1025 1025 1025 1025 1025 1025 1025 
1025 1025 1025 1025 1025 1025 1025 1025 1025 
1025 1025 1025 1025 1025 1025 1025 1025 1025 
1025 1025 1025 1025 1025 1025 1025 1025 1025 
1025 1025 1025 1025 1025 1025 1025 1025 1025 
1025 1025 1025 1025 1025 1025 1025 1025 1025 
1025 1025 1025 1025 1025 1025 1025 1025 1025 
1025 1025 1025 1025 1025 1025 1025 1025 1025 
1025 1025 1025 1025 1025 1025 1025 1025 1025 
1025 1025 1025 1025 1025 1025 1025 1025 1025 
1025 1025 1025 1025 1025 1025 1025 1025 1025 
1025 1025 1025 1025 1025 1025 1025 1025 1025 
1025 1025 1025 1025 1025 1025 1025 1025 1025 
1025 1025 1025 1025 1025 1025 1025 1025 1025 
1025 1025 1025 1025 1025 1025 1025 1025 1025 
1025 1025 1025 1025 1025 1025 1025 1025 1025 
1025 1025 1025 1025 1025 1025 1025 1025 1025 
1025 1025 1025 1025 1025 1025 1025 1025 1025 
1025 1025 1025 1025 1025 1025 1025 1025 1025 
1025 1025 1025 1025 1025 1025 1025 1025 1025 
1025 1025 1025 1025 1025 1025 1025 1025 1025 
1025 1025 1025 1025 1025 1025 1025 1025 1025 
1025 1025 1025 1025 1025 1025 1025 1025 1025 
1025 1025 1025 1025 1025 1025 1025 1025 1025 
1025 1025 1025 1025 1025 1025 1025 1025 1025 
1025 1025 1025 1025 1025 1025 1025 1025 1025 
1025 1025 1025 1025 1025 1025 1025 1025 1025 
1025 1025 1025 1025 1025 1025 1025 1025 1025 
1025 1025 1025 1025 1025 1025 1025 1025 1025 
1025 1025 1025 1025 1025 1025 1025 1025 1025 
1025 1025 1025 1025 1025 1025 1025 1025 1025 
1025 1025 1025 1025 1025 1025 1025 1025 1025 
1025 1025 1025 1025 1025 1025 1025 1025 1025 
1025 1025 1025 1025 1025 1025 1025 1025 1025 
1025 1025 1025 1025 1025 1025 1025 1025 1025 
1025 1025 1025 1025 1025 1025 1025 1025 1025 
1025 1025 1025 1025 1025 1025 1025 1025 1025 
1025 1025 1025 1025 1025 1025 1025 1025 1025 
1025 1025 1025 1025 1025 1025 1025 1025 1025 
1025 1025 1025 1025 1025 1025 1025 1025 1025 
1025 1025 1025 1025 1025 1025 1025 1025 1025 
1025 1025 1025 1025 1025 1025 1025 1025 1025 
1025 1025 1025 1025 1025 1025 1025 1025 1025 
1025 1025 1025 1025 1025 1025 1025 1025 1025 
1025 1025 1025 1025 1025 1025 1025 1025 1025 
1025 1025 1025 1025 1025 1025 1025 1025 1025 
1025 1025 1025 1025 1025 1025 1025 1025 1025 
1025 1025 1025 1025 1025 1025 1025 1025 1025 
1025 1025 1025 1025 1025 1025 1025 1025 1025 
1025 1025 1025 1025 1025 1025 1025 1025 1025 
1025 1025 1025 1025 1025 1025 1025 1025 1025 
1025 1025 1025 1025 1025 1025 1025 1025 1025 
1025 1025 1025 1025 1025 1025 1025 1025 1025 
1025 1025 1025 1025 1025 1025 1025 1025 1025 
1025 1025 1025 1025 1025 1025 1025 1025 1025 
1025 1025 1025 1025 1025 1025 1025 1025 1025 
1025 1025 1025 1025 1025 1025 1025 1025 1025 
1025 1025 1025 1025 1025 1025 1025 1025 1025 
1025 1025 1025 1025 1025 1025 1025 1025 1025 
1025 1025 1025 1025 1025 1025 1025 1025 1025 
1025 1025 1025 1025 1025 1025 1025 1025 1025 
1025 1025 1025 1025 1025 1025 1025 1025 1025 
1025 1025 1025 1025 1025 1025 1025 1025 1025 
1025 1025 1025 1025 1025 1025 1025 1025 1025 
1025 1025 1025 1025 1025 1025 1025 1025 1025 
1025 1025 1025 1025 1025 1025 1025 1025 1025 
1025 1025 1025 1025 1025 1025 1025 1025 1025 
1025 1025 1025 1025 1025 1025 1025 1025 1025 
1025 1025 1025 1025 1025 1025 1025 1025 1025 
1025 1025 1025 1025 1025 1025 1025 1025 1025 
1025 1025 1025 1025 1025 1025 1025 1025 1025 
1025 1025 1025 1025 1025 1025 1025 1025 1025 
1025 1025 1025 1025 1025 1025 1025 1025 1025 
1025 1025 1025 1025 1025 1025 1025 1025 1025 
1025 1025 1025 1025 1025 1025 1025 1025 1025 
1025 1025 1025 1025 1025 1025 1025 1025 1025 
1025 1025 1025 1025 1025 1025 1025 1025 1025 
1025 1025 1025 1025 1025 1025 1025 1025 1025 
1025 1025 1025 1025 1025 1025 1025 1025 1025 
1025 1025 1025 1025 1025 1025 1025 1025 1025 
1025 1025 1025 1025 1025 1025 1025 1025 1025 
1025 1025 1025 1025 1025 1025 1025 1025 1025 
1025 1025 1025 1025 1025 1025 1025 1025 1025 
1025 1025 1025 1025 1025 1025 1025 1025 1025 
1025 1025 1025 1025 1025 1025 1025 1025 1025 
1025 1025 1025 1025 1025 1025 1025 1025 1025 
1025 1025 1025 1025 1025 1025 1025 1025 1025 
1025 1025 1025 1025 1025 1025 1025 1025 1025 
1025 1025 1025 1025 1025 1025 1025 1025 1025 
1025 1025 1025 1025 1025 1025 1025 1025 1025 
1025 1025 1025 1025 1025 1025 1025 1025 1025 
1025 1025 1025 1025 1025 1025 1025 1025 1025 
1025 1025 1025 1025 1025 1025 1025 1025 1025 
1025 1025 1025 1025 1025 1025 1025 1025 1025 
1025 1025 1025 1025 1025 1025 1025 1025 1025 
1025 1025 1025 1025 1025 1025 1025 1025 1025 
1025 1025 1025 1025 1025 1025 1025 1025 1025 
1025 1025 1025 1025 1025 1025 1025 1025 1025 
1025 1025 1025 1025 1025 1025 1025 1025 1025 
1025 1025 1025 1025 1025 1025 1025 1025 1025 
1025 1025 1025 1025 1025 1025 1025 1025 1025 
1025 1025 1025 1025 1025 1025 1025 1025 1025 
1025 1025 1025 1025 1025 1025 1025 1025 1025 
1025 1025 1025 1025 1025 1025 1025 1025 1025 
1025 1025 1025 1025 1025 1025 1025 1025 1025 
1025 1025 1025 1025 1025 1025 1025 1025 1025 
1025 1025 1025 1025 1025 1025 1025 1025 1025 
1025 1025 1025 1025 1025 1025 1025 1025 1025 
1025 1025 1025 1025 1025 1025 1025 1025 1025 
1025 1025 1025 1025 1025 1025 1025 1025 1025 
1025 1025 1025 1025 1025 1025 1025 1025 1025 
1025 1025 1025 1025 1025 1025 1025 1025 1025 
1025 1025 1025 1025 1025 1025 1025 1025 1025 
1025 1025 1025 1025 1025 1025 1025 1025 1025 
1025 1025 1025 1025 1025 1025 1025 1025 1025 
1025 1025 1025 1025 1025 1025 1025 1025 1025 
1025 1025 1025 1025 1025 1025 1025 1025 1025 
1025 1025 1025 1025 1025 1025 1025 1025 1025 
1025 1025 1025 1025 1025 1025 1025 1025 1025 
1025 1025 1025 1025 1025 1025 1025 1025 1025 
1025 1025 1025 1025 1025 1025 1025 1025 1025 
1025 1025 1025 1025 1025 1025 1025 1025 1025 
1025 1025 1025 1025 1025 1025 1025 1025 1025 
1025 1025 1025 1025 1025 1025 1025 1025 1025 
1025 1025 1025 1025 1025 1025 1025 1025 1025 
1025 1025 1025 1025 1025 1025 1025 1025 1025 
1025 1025 1025 1025 1025 1025 1025 1025 1025 
1025 1025 1025 1025 1025 1025 1025 1025 1025 
1025 1025 1025 1025 1025 1025 1025 1025 1025 
1025 1025 1025 1025 1025 1025 1025 1025 1025 
1025 1025 1025 1025 1025 1025 1025 1025 1025 
1025 1025 1025 1025 1025 1025 1025 1025 1025 
1025 1025 1025 1025 1025 1025 1025 1025 1025 
1025 1025 1025 1025 1025 1025 1025 1025 1025 
1025 1025 1025 1025 1025 1025 1025 1025 1025 
1025 1025 1025 1025 1025 1025 1025 1025 1025 
1025 1025 1025 1025 1025 1025 1025 1025 1025 
1025 1025 1025 1025 1025 1025 1025 1025 1025 
1025 1025 1025 1025 1025 1025 1025 1025 1025 
1025 1025 1025 1025 1025 1025 1025 1025 1025 
1025 1025 1025 1025 1025 1025 1025 1025 1025 
1025 1025 1025 1025 1025 1025 1025 1025 1025 
1025 1025 1025 1025 1025 1025 1025 1025 1025 
1025 1025 1025 1025 1025 1025 1025 1025 1025 
1025 1025 1025 1025 1025 1025 1025 1025 1025 
1025 1025 1025 1025 1025 1025 1025 1025 1025 
1025 1025 1025 1025 1025 1025 1025 1025 1025 
1025 1025 1025 1025 1025 1025 1025 1025 1025 
1025 1025 1025 1025 1025 1025 1025 1025 1025 
1025 1025 1025 1025 1025 1025 1025 1025 1025 
1025 1025 1025 1025 1025 1025 1025 1025 1025 
1025 1025 1025 1025 1025 1025 1025 1025 1025 
1025 1025 1025 1025 1025 1025 1025 1025 1025 
1025 1025 1025 1025 1025 1025 1025 1025 1025 
1025 1025 1025 1025 1025 1025 1025 1025 1025 
1025 1025 1025 1025 1025 1025 1025 1025 1025 
1025 1025 1025 1025 1025 1025 1025 1025 1025 
1025 1025 1025 1025 1025 1025 1025 1025 1025 
1025 1025 1025 1025 1025 1025 1025 1025 1025 
1025 1025 1025 1025 1025 1025 1025 1025 1025 
1025 1025 1025 1025 1025 1025 1025 1025 1025 
1025 1025 1025 1025 1025 1025 1025 1025 1025 
1025 1025 1025 1025 1025 1025 1025 1025 1025 
1025 1025 1025 1025 1025 1025 1025 1025 1025 
1025 1025 1025 1025 1025 1025 1025 1025 1025 
1025 1025 1025 1025 1025 1025 1025 1025 1025 
1025 1025 1025 1025 1025 1025 1025 1025 1025 
1025 1025 1025 1025 1025 1025 1025 1025 1025 
1025 1025 1025 1025 1025 1025 1025 1025 1025 
1025 1025 1025 1025 1025 1025 1025 1025 1025 
1025 1025 1025 1025 1025 1025 1025 1025 1025 
1025 1025 1025 1025 1025 1025 1025 1025 1025 
1025 1025 1025 1025 1025 1025 1025 1025 1025 
1025 1025 1025 1025 1025 1025 1025 1025 1025 
1025 1025 1025 1025 1025 1025 1025 1025 1025 
1025 1025 1025 1025 1025 1025 1025 1025 1025 
1025 1025 1025 1025 1025 1025 1025 1025 1025 
1025 1025 1025 1025 1025 1025 1025 1025 1025 
1025 1025 1025 1025 1025 1025 1025 1025 1025 
1025 1025 1025 1025 1025 1025 1025 1025 1025 
1025 1025 1025 1025 1025 1025 1025 1025 1025 
1025 1025 1025 1025 1025 1025 1025 1025 1025 
1025 1025 1025 1025 1025 1025 1025 1025 1025 
1025 1025 1025 1025 1025 1025 1025 1025 1025 
1025 1025 1025 1025 1025 1025 1025 1025 1025 
1025 1025 1025 1025 1025 1025 1025 1025 1025 
1025 1025 1025 1025 1025 1025 1025 1025 1025 
1025 1025 1025 1025 1025 1025 1025 1025 1025 
1025 1025 1025 1025 1025 1025 1025 1025 1025 
1025 1025 1025 1025 1025 1025 1025 1025 1025 
1025 1025 1025 1025 1025 1025 1025 1025 1025 
1025 1025 1025 1025 1025 1025 1025 1025 1025 
1025 1025 1025 1025 1025 1025 1025 1025 1025 
1025 1025 1025 1025 1025 1025 1025 1025 1025 
1025 1025 1025 1025 1025 1025 1025 1025 1025 
1025 1025 1025 1025 1025 1025 1025 1025 1025 
1025 1025 1025 1025 1025 1025 1025 1025 1025 
1025 1025 1025 1025 1025 1025 1025 1025 1025 
1025 1025 1025 1025 1025 1025 1025 1025 1025 
1025 1025 1025 1025 1025 1025 1025 1025 1025 
1025 1025 1025 1025 1025 1025 1025 1025 1025 
1025 1025 1025 1025 1025 1025 1025 1025 1025 
1025 1025 1025 1025 1025 1025 1025 1025 1025 
1025 1025 1025 1025 1025 1025 1025 1025 1025 
1025 1025 1025 1025 1025 1025 1025 1025 1025 
1025 1025 1025 1025 1025 1025 1025 1025 1025 
1025 1025 1025 1025 1025 1025 1025 1025 1025 
1025 1025 1025 1025 1025 1025 1025 1025 1025 
1025 1025 1025 1025 1025 1025 1025 1025 1025 
1025 1025 1025 1025 1025 1025 1025 1025 1025 
1025 1025 1025 1025 1025 1025 1025 1025 1025 
1025 1025 1025 1025 1025 1025 1025 1025 1025 
1025 1025 1025 1025 1025 1025 1025 1025 1025 
1025 1025 1025 1025 1025 1025 1025 1025 1025 
1025 1025 1025 1025 1025 1025 1025 1025 1025 
1025 1025 1025 1025 1025 1025 1025 1025 1025 
1025 1025 1025 1025 1025 1025 1025 1025 1025 
1025 1025 1025 1025 1025 1025 1025 1025 1025 
1025 1025 1025 1025 1025 1025 1025 1025 1025 
1025 1025 1025 1025 1025 1025 1025 1025 1025 
1025 1025 1025 1025 1025 1025 1025 1025 1025 
1025 1025 1025 1025 1025 1025 1025 1025 1025 
1025 1025 1025 1025 1025 1025 1025 1025 1025 
1025 1025 1025 1025 1025 1025 1025 1025 1025 
1025 1025 1025 1025 1025 1025 1025 1025 1025 
1025 1025 1025 1025 1025 1025 1025 1025 1025 
1025 1025 1025 1025 1025 1025 1025 1025 1025 
1025 1025 1025 1025 1025 1025 1025 1025 1025 
1025 1025 1025 1025 1025 1025 1025 1025 1025 
1025 1025 1025 1025 1025 1025 1025 1025 1025 
1025 1025 1025 1025 1025 1025 1025 1025 1025 
1025 1025 1025 1025 1025 1025 1025 1025 1025 
1025 1025 1025 1025 1025 1025 1025 1025 1025 
1025 1025 1025 1025 1025 1025 1025 1025 1025 
1025 1025 1025 1025 1025 1025 1025 1025 1025 
1025 1025 1025 1025 1025 1025 1025 1025 1025 
1025 1025 1025 1025 1025 1025 1025 1025 1025 
1025 1025 1025 1025 1025 1025 1025 1025 1025 
1025 1025 1025 1025 1025 1025 1025 1025 1025 
1025 1025 1025 1025 1025 1025 1025 1025 1025 
1025 1025 1025 1025 1025 1025 1025 1025 1025 
1025 1025 1025 1025 1025 1025 1025 1025 1025 
1025 1025 1025 1025 1025 1025 1025 1025 1025 
1025 1025 1025 1025 1025 1025 1025 1025 1025 
1025 1025 1025 1025 1025 1025 1025 1025 1025 
1025 1025 1025 1025 1025 1025 1025 1025 1025 
1025 1025 1025 1025 1025 1025 1025 1025 1025 
1025 1025 1025 1025 1025 1025 1025 1025 1025 
1025 1025 1025 1025 1025 1025 1025 1025 1025 
1025 1025 1025 1025 1025 1025 1025 1025 1025 
1025 1025 1025 1025 1025 1025 1025 1025 1025 
1025 1025 1025 1025 1025 1025 1025 1025 1025 
1025 1025 1025 1025 1025 1025 1025 1025 1025 
1025 1025 1025 1025 1025 1025 1025 1025 1025 
1025 1025 1025 1025 1025 1025 1025 1025 1025 
1025 1025 1025 1025 1025 1025 1025 1025 1025 
1025 1025 1025 1025 1025 1025 1025 1025 1025 
1025 1025 1025 1025 1025 1025 1025 1025 1025 
1025 1025 1025 1025 1025 1025 1025 1025 1025 
1025 1025 1025 1025 1025 1025 1025 1025 1025 
1025 1025 1025 1025 1025 1025 1025 1025 1025 
1025 1025 1025 1025 1025 1025 1025 1025 1025 
1025 1025 1025 1025 1025 1025 1025 1025 1025 
1025 1025 1025 1025 1025 1025 1025 1025 1025 
1025 1025 1025 1025 1025 1025 1025 1025 1025 
1025 1025 1025 1025 1025 1025 1025 1025 1025 
1025 1025 1025 1025 1025 1025 1025 1025 1025 
1025 1025 1025 1025 1025 1025 1025 1025 1025 
1025 1025 1025 1025 1025 1025 1025 1025 1025 
1025 1025 1025 1025 1025 1025 1025 1025 1025 
1025 1025 1025 1025 1025 1025 1025 1025 1025 
1025 1025 1025 1025 1025 1025 1025 1025 1025 
1025 1025 1025 1025 1025 1025 1025 1025 1025 
1025 1025 1025 1025 1025 1025 1025 1025 1025 
1025 1025 1025 1025 1025 1025 1025 1025 1025 
1025 1025 1025 1025 1025 1025 1025 1025 1025 