# vtk DataFile Version 4.2
vtk output
ASCII
DATASET POLYDATA
POINTS 19824 float
33.8364 8.73664 -12.7545 33.8857 8.86263 -12.9623 33.9706 8.57651 -12.9636 
33.5389 8.74808 -13.0153 33.7682 8.46953 -12.9041 33.163 9.25029 -13.2155 
33.0921 9.52576 -13.6349 33.4169 9.36294 -13.5031 32.6935 9.16392 -13.2585 
32.6963 9.48661 -13.4068 32.4377 9.38581 -13.5456 33.7245 9.04576 -13.4676 
34.0249 8.73653 -13.3254 33.0702 8.86434 -13.1531 32.8573 8.7032 -13.5075 
32.5366 9.04894 -13.6339 33.8196 8.04871 -13.1811 34.0541 8.17141 -13.44 
33.5103 8.07676 -13.3795 33.2022 8.3985 -13.4511 33.8715 7.61518 -13.364 
34.0323 7.53711 -13.5811 33.6091 7.46897 -13.5638 33.8077 7.2912 -13.4883 
34.8149 6.23493 -13.2324 34.8504 6.50161 -13.5552 35.146 6.10852 -13.4636 
34.4215 6.19353 -13.2885 34.5361 6.53177 -13.4004 34.1681 6.39905 -13.637 
35.029 5.81137 -13.2082 35.2254 5.61293 -13.4175 34.6195 5.68186 -13.2442 
34.118 5.919 -13.5909 34.9867 5.28245 -13.3003 35.2374 5.10822 -13.5564 
34.6171 5.03278 -13.541 34.2904 5.4308 -13.4997 34.9606 4.81877 -13.5536 
33.1709 9.54177 -14.1833 33.4925 9.27989 -14.0151 32.6988 9.65288 -14.0156 
32.386 9.44333 -14.0694 33.7653 8.91581 -14.1441 34.0135 8.58067 -13.9586 
32.7769 8.6826 -13.9637 32.571 8.99749 -14.2144 34.2042 7.98838 -13.9551 
33.2631 7.96727 -13.8537 32.9941 8.1646 -14.1542 34.2915 7.45458 -13.8593 
34.4182 7.76258 -14.286 34.5583 7.3634 -14.0874 33.3292 7.61384 -13.9443 
33.1876 7.7723 -14.1424 34.4036 6.85098 -13.7964 34.6633 7.00899 -14.1983 
33.7231 7.02101 -13.7513 33.2368 7.22822 -13.9613 33.0681 6.89545 -13.8719 
32.6887 6.73837 -13.9341 32.7502 7.14736 -14.0907 32.3898 6.96529 -14.2828 
35.0711 6.22881 -13.8078 34.8162 6.53267 -14.0564 33.7998 6.50524 -13.9736 
33.9108 6.23446 -13.984 33.617 6.20619 -14.0742 33.2383 6.32419 -13.8825 
32.7574 6.25349 -14.069 32.4854 6.54828 -14.1421 35.0551 6.15114 -14.1599 
35.3154 5.72958 -13.946 33.8049 6.06017 -14.0318 33.7681 5.68836 -13.7853 
33.332 5.57547 -13.8821 33.007 5.85637 -14.0532 35.516 5.01724 -13.8307 
35.6336 5.35216 -14.259 35.7816 4.91834 -14.071 34.1609 5.06371 -13.7115 
33.7005 5.0805 -13.8295 33.4171 5.11485 -14.0506 33.1629 5.41674 -14.2487 
35.629 4.5976 -13.8988 35.7911 4.55385 -14.2496 35.2224 4.56923 -13.8002 
34.7511 4.5759 -13.9006 34.3445 4.68263 -13.933 34.0677 4.3669 -14.1913 
33.927 4.65341 -13.9322 33.5891 4.68111 -14.1341 35.4811 4.32003 -14.0757 
35.0395 4.25852 -14.1734 33.7374 4.37702 -14.2264 32.518 9.84609 -14.3986 
32.6205 10.0499 -14.8145 32.7845 9.89699 -14.619 32.314 9.86278 -14.7492 
33.1156 9.63278 -14.7575 33.4034 9.32345 -14.5912 32.3917 9.31816 -14.5725 
33.8563 8.6151 -14.4759 33.6409 8.91316 -14.6472 32.8352 8.61771 -14.5458 
32.6234 8.97731 -14.8556 33.837 8.54882 -14.8213 34.1134 8.2415 -14.6211 
32.7997 8.27786 -14.8326 34.4118 7.82333 -14.8711 34.6167 7.41568 -14.5361 
32.9837 7.55674 -14.2658 32.7005 7.80779 -14.5962 32.576 7.39962 -14.3959 
32.3206 7.3884 -14.7071 34.7639 6.87115 -14.6514 32.2396 6.91391 -14.6572 
34.9362 6.3809 -14.4489 34.9787 6.52961 -14.8968 35.1669 6.12372 -14.5619 
33.7527 6.28614 -14.1929 32.5765 6.19033 -14.39 32.3391 6.50677 -14.6329 
35.4354 5.78947 -14.637 32.8571 5.71717 -14.5723 32.5527 6.01158 -14.8988 
35.6707 5.51588 -14.7399 35.8596 5.08801 -14.6095 33.3556 4.91492 -14.5684 
33.1256 5.26092 -14.7272 35.8955 4.545 -14.7439 34.5236 4.32698 -14.2147 
33.5445 4.39969 -14.6504 35.4956 4.15306 -14.4837 34.8774 3.89033 -14.4113 
35.3187 3.69144 -14.7642 34.2634 3.91057 -14.4396 33.8177 4.09319 -14.608 
33.9984 3.7342 -14.7686 34.9901 3.39974 -14.4669 35.1882 3.19708 -14.6706 
34.5773 3.27834 -14.4596 34.1746 3.33788 -14.7553 34.9528 2.90482 -14.4977 
35.1766 2.64413 -14.8592 34.6392 2.74702 -14.5756 34.3351 2.89781 -14.7321 
34.8905 2.50629 -14.6679 32.0569 10.3634 -15.1077 31.9889 10.621 -15.2538 
32.1419 10.5579 -15.266 31.8794 10.5026 -15.2552 32.429 10.2556 -15.3368 
32.8993 9.94768 -15.1362 32.0468 9.89244 -15.081 31.7492 10.1653 -15.342 
33.2061 9.61794 -15.4588 33.4904 9.21054 -15.1515 32.3162 9.34497 -15.2184 
31.8733 9.66421 -15.4864 33.7382 8.78589 -15.0792 33.7724 8.92586 -15.5068 
33.9626 8.53012 -15.1908 32.771 8.6543 -15.1569 32.5903 8.90552 -15.4022 
34.2192 8.18884 -15.2566 32.5231 8.41071 -15.3241 32.3757 8.00148 -14.9723 
31.9535 7.9531 -15.1179 32.112 8.24297 -15.2963 31.8269 8.08368 -15.4212 
34.4411 7.90933 -15.368 34.6262 7.48746 -15.2141 32.0556 7.53292 -15.0439 
31.7875 7.69197 -15.3604 34.8141 6.98129 -15.268 32.1793 6.92074 -15.0854 
31.9707 7.23423 -15.4616 35.0241 6.68832 -15.3442 35.2879 6.26085 -15.2074 
32.3363 6.35916 -15.2963 35.5616 5.81578 -15.0526 35.5889 5.96985 -15.506 
35.7858 5.55256 -15.1623 32.7679 5.66074 -15.2034 32.5527 5.95624 -15.4929 
35.9866 5.07578 -15.2335 33.2279 4.9639 -15.0472 33.0244 5.26507 -15.222 
36.1274 4.47892 -15.0607 36.2263 4.77416 -15.4674 36.3751 4.3562 -15.2643 
33.4174 4.62045 -15.2515 33.2443 4.91761 -15.4175 36.21 4.05666 -15.1244 
36.4032 3.86918 -15.4665 35.8109 4.0148 -14.9498 33.8204 3.77995 -15.0287 
33.63 4.07653 -15.2146 35.9928 3.65933 -15.2903 35.5882 3.6113 -15.1903 
35.38 3.18706 -15.1522 34.0017 3.45244 -15.2638 33.8267 3.72495 -15.3915 
35.3586 2.57238 -15.4061 34.4741 2.43062 -14.8973 34.1326 2.84184 -15.2518 
34.8948 2.18165 -14.94 35.1502 2.144 -15.3042 34.4998 2.00926 -15.1046 
34.1849 2.2116 -15.3556 34.7683 1.8635 -15.3449 34.3517 1.86483 -15.4179 
31.9362 10.4557 -15.4636 32.5259 10.1776 -16.0609 32.9102 9.9399 -15.7411 
31.9734 10.3072 -15.9471 31.371 10.2273 -15.8677 31.3022 9.94478 -15.6137 
30.8643 9.86947 -15.7467 30.8547 10.0766 -15.8762 30.5527 9.87181 -16.0667 
33.2216 9.61463 -16.0539 33.4957 9.29339 -15.771 32.1713 9.30861 -15.785 
31.8738 9.4288 -15.9135 31.2957 9.60578 -15.7997 30.7843 9.68633 -15.8522 
33.7997 9.00969 -16.0623 34.0913 8.5912 -15.7512 32.5381 8.65868 -15.5993 
32.2916 8.90773 -15.8332 34.3551 8.20379 -15.6585 34.378 8.36128 -16.1026 
34.5582 7.94147 -15.7847 32.1106 8.43371 -15.7224 31.7583 8.11783 -15.9165 
34.7561 7.46702 -15.8538 31.6892 7.58144 -15.9057 34.938 6.99543 -15.6564 
34.992 7.17345 -16.1088 35.1559 6.74353 -15.7714 32.2814 6.75104 -15.7469 
32.0088 7.21463 -16.0646 35.3719 6.38794 -15.9015 32.4215 6.27375 -15.7782 
35.5876 6.00648 -16.0775 35.8136 5.62018 -15.7212 32.8859 5.65203 -15.7685 
32.5826 6.02864 -15.8648 35.9961 5.20876 -15.8774 33.1695 5.16356 -15.6675 
33.4091 5.00239 -15.8829 33.249 5.40753 -15.9991 36.2219 4.83813 -16.0437 
36.4409 4.42705 -15.7066 33.5876 4.47933 -15.8807 36.527 4.01656 -15.9547 
33.7673 3.97493 -15.6754 33.9737 3.73343 -15.81 33.8247 4.17524 -16.1283 
36.1782 3.18957 -15.5365 36.5541 3.41345 -15.8783 35.6987 3.32076 -15.4265 
34.0891 3.29996 -15.8973 36.6594 2.77354 -15.6626 36.8317 2.94454 -16.0515 
36.9911 2.52353 -15.8649 36.3223 2.54792 -15.6614 35.7288 2.82437 -15.601 
34.1534 2.63458 -15.9113 36.7974 2.24989 -15.7179 36.987 2.21451 -16.0248 
36.5872 2.13323 -15.8275 36.231 2.36863 -16.0059 35.6529 2.40652 -15.9226 
35.3329 2.18243 -15.7518 34.2039 2.05838 -15.7416 36.8493 2.00263 -15.8686 
35.0631 1.86966 -15.9346 34.515 1.86811 -15.8328 32.5061 10.1533 -16.6523 
32.9174 9.9214 -16.3463 32.0863 10.263 -16.4271 31.4348 10.1915 -16.4869 
30.7819 10.1196 -16.2855 30.477 9.95155 -16.4198 33.2934 9.60881 -16.6699 
33.5471 9.31893 -16.3197 32.0305 9.1389 -16.0955 31.5748 9.17829 -16.2062 
30.7875 9.40009 -16.1605 30.3536 9.68931 -16.5525 30.3056 9.23932 -16.331 
29.9374 9.31416 -16.665 33.8371 9.11158 -16.5422 34.1036 8.78042 -16.4556 
31.9152 8.72415 -16.149 31.6742 8.80502 -16.5905 31.2274 9.1211 -16.5238 
30.6686 9.00332 -16.5058 30.218 9.01562 -16.4309 34.4028 8.41957 -16.6751 
34.6111 8.01087 -16.3376 31.5852 8.08809 -16.4044 34.828 7.60761 -16.4598 
31.3211 7.76173 -16.462 31.3512 7.49813 -16.2159 30.7941 7.7064 -16.5401 
30.7563 7.51113 -16.3176 30.2801 7.46687 -16.3577 30.3096 7.65254 -16.4896 
29.9804 7.44111 -16.6683 35.0427 7.33131 -16.5642 35.2149 6.90067 -16.4287 
32.5119 6.91092 -16.2039 32.783 6.80105 -16.4921 32.4916 7.15666 -16.5906 
32.0409 7.25401 -16.4657 31.3949 7.22241 -16.4444 30.5785 7.21821 -16.4284 
30.1766 7.27823 -16.4576 35.3805 6.3959 -16.5183 32.6883 6.33574 -16.1357 
32.9815 6.38194 -16.596 35.5861 6.00041 -16.671 35.7984 5.62573 -16.3187 
33.1133 5.86258 -16.2599 33.4036 5.53345 -16.389 33.2367 5.97127 -16.7196 
35.9834 5.20461 -16.4843 33.4491 5.13105 -16.527 36.2032 4.81902 -16.6494 
36.4292 4.44593 -16.3186 33.5378 4.61338 -16.4478 36.5124 3.9223 -16.4723 
33.9959 3.84549 -16.3345 33.7336 4.2633 -16.5243 36.6042 3.39731 -16.4912 
34.1169 3.29259 -16.4205 36.8292 3.01311 -16.6573 37.021 2.54189 -16.4351 
34.3564 2.77343 -16.335 34.5355 2.53251 -16.5601 34.3308 2.9844 -16.573 
36.6764 2.29097 -16.4 36.7383 2.10815 -16.0484 36.0684 2.29256 -16.3858 
35.582 2.11516 -16.2156 35.8878 2.13316 -16.5359 34.3786 2.26229 -16.1593 
34.6019 1.86427 -16.4505 36.8694 1.76023 -16.5507 36.9796 1.3981 -16.6665 
36.7958 1.46843 -16.3916 36.6064 1.52483 -16.6773 35.5985 1.81732 -16.506 
34.9816 1.53914 -16.2671 35.243 1.29398 -16.499 34.5084 1.41083 -16.3644 
34.3439 1.63341 -16.4935 34.2631 1.48887 -16.4943 36.7506 1.18974 -16.5493 
34.941 1.03476 -16.3288 35.0978 0.906033 -16.5475 34.6613 1.0142 -16.4728 
34.3503 1.29824 -16.4849 34.9643 0.771982 -16.4641 30.6744 -8.82866 -16.235 
30.821 -8.48015 -16.6708 31.1554 -8.772 -16.3945 30.0187 -8.73488 -16.2074 
30.1616 -8.45205 -16.5591 29.4285 -8.73751 -16.2009 29.5697 -8.43095 -16.5215 
28.8659 -8.80933 -16.2558 29.1326 -8.50281 -16.4456 28.7199 -8.66124 -16.6719 
31.899 -9.25453 -16.3365 31.9924 -9.08522 -16.4325 32.2564 -9.27464 -16.5592 
31.3202 -9.27813 -16.2476 31.6202 -8.95574 -16.4198 30.6957 -9.40792 -16.1175 
30.2766 -9.2109 -16.1118 29.7644 -9.30782 -16.1968 29.0648 -9.25337 -16.2129 
28.3452 -8.92495 -16.5225 28.3111 -9.26418 -16.1947 27.6359 -9.45108 -16.2487 
27.9095 -9.12028 -16.4402 27.4976 -9.28197 -16.6549 31.9168 -9.50742 -16.5829 
[...]
CELL_DATA 39804
SCALARS scalars float
LOOKUP_TABLE default
2008 2008 2008 2008 2008 2008 2008 2008 2008 
2008 2008 2008 2008 2008 2008 2008 2008 2008 
2008 2008 2008 2008 2008 2008 2008 2008 2008 
2008 2008 2008 2008 2008 2008 2008 2008 2008 
2008 2008 2008 2008 2008 2008 2008 2008 2008 
2008 2008 2008 2008 2008 2008 2008 2008 2008 
2008 2008 2008 2008 2008 2008 2008 2008 2008 
2008 2008 2008 2008 2008 2008 2008 2008 2008 
2008 2008 2008 2008 2008 2008 2008 2008 2008 
2008 2008 2008 2008 2008 2008 2008 2008 2008 
2008 2008 2008 2008 2008 2008 2008 2008 2008 
2008 2008 2008 2008 2008 2008 2008 2008 2008 
2008 2008 2008 2008 2008 2008 2008 2008 2008 
2008 2008 2008 2008 2008 2008 2008 2008 2008 
2008 2008 2008 2008 2008 2008 2008 2008 2008 
2008 2008 2008 2008 2008 2008 2008 2008 2008 
2008 2008 2008 2008 2008 2008 2008 2008 2008 
2008 2008 2008 2008 2008 2008 2008 2008 2008 
2008 2008 2008 2008 2008 2008 2008 2008 2008 
2008 2008 2008 2008 2008 2008 2008 2008 2008 
2008 2008 2008 2008 2008 2008 2008 2008 2008 
2008 2008 2008 2008 2008 2008 2008 2008 2008 
2008 2008 2008 2008 2008 2008 2008 2008 2008 
2008 2008 2008 2008 2008 2008 2008 2008 2008 
2008 2008 2008 2008 2008 2008 2008 2008 2008 
2008 2008 2008 2008 2008 2008 2008 2008 2008 
2008 2008 2008 2008 2008 2008 2008 2008 2008 
2008 2008 2008 2008 2008 2008 2008 2008 2008 
2008 2008 2008 2008 2008 2008 2008 2008 2008 
2008 2008 2008 2008 2008 2008 2008 2008 2008 
2008 2008 2008 2008 2008 2008 2008 2008 2008 
2008 2008 2008 2008 2008 2008 2008 2008 2008 
2008 2008 2008 2008 2008 2008 2008 2008 2008 
2008 2008 2008 2008 2008 2008 2008 2008 2008 
2008 2008 2008 2008 2008 2008 2008 2008 2008 
2008 2008 2008 2008 2008 2008 2008 2008 2008 
2008 2008 2008 2008 2008 2008 2008 2008 2008 
2008 2008 2008 2008 2008 2008 2008 2008 2008 
2008 2008 2008 2008 2008 2008 2008 2008 2008 
2008 2008 2008 2008 2008 2008 2008 2008 2008 
2008 2008 2008 2008 2008 2008 2008 2008 2008 
2008 2008 2008 2008 2008 2008 2008 2008 2008 
2008 2008 2008 2008 2008 2008 2008 2008 2008 
2008 2008 2008 2008 2008 2008 2008 2008 2008 
2008 2008 2008 2008 2008 2008 2008 2008 2008 
2008 2008 2008 2008 2008 2008 2008 2008 2008 
2008 2008 2008 2008 2008 2008 2008 2008 2008 
2008 2008 2008 2008 2008 2008 2008 2008 2008 
2008 2008 2008 2008 2008 2008 2008 2008 2008 
2008 2008 2008 2008 2008 2008 2008 2008 2008 
2008 2008 2008 2008 2008 2008 2008 2008 2008 
2008 2008 2008 2008 2008 2008 2008 2008 2008 
2008 2008 2008 2008 2008 2008 2008 2008 2008 
2008 2008 2008 2008 2008 2008 2008 2008 2008 
2008 2008 2008 2008 2008 2008 2008 2008 2008 
2008 2008 2008 2008 2008 2008 2008 2008 2008 
2008 2008 2008 2008 2008 2008 2008 2008 2008 
2008 2008 2008 2008 2008 2008 2008 2008 2008 
2008 2008 2008 2008 2008 2008 2008 2008 2008 
2008 2008 2008 2008 2008 2008 2008 2008 2008 
2008 2008 2008 2008 2008 2008 2008 2008 2008 
2008 2008 2008 2008 2008 2008 2008 2008 2008 
2008 2008 2008 2008 2008 2008 2008 2008 2008 
2008 2008 2008 2008 2008 2008 2008 2008 2008 
2008 2008 2008 2008 2008 2008 2008 2008 2008 
2008 2008 2008 2008 2008 2008 2008 2008 2008 
2008 2008 2008 2008 2008 2008 2008 2008 2008 
2008 2008 2008 2008 2008 2008 2008 2008 2008 
2008 2008 2008 2008 2008 2008 2008 2008 2008 
2008 2008 2008 2008 2008 2008 2008 2008 2008 
2008 2008 2008 2008 2008 2008 2008 2008 2008 
2008 2008 2008 2008 2008 2008 2008 2008 2008 
2008 2008 2008 2008 2008 2008 2008 2008 2008 
2008 2008 2008 2008 2008 2008 2008 2008 2008 
2008 2008 2008 2008 2008 2008 2008 2008 2008 
2008 2008 2008 2008 2008 2008 2008 2008 2008 
2008 2008 2008 2008 2008 2008 2008 2008 2008 
2008 2008 2008 2008 2008 2008 2008 2008 2008 
2008 2008 2008 2008 2008 2008 2008 2008 2008 
2008 2008 2008 2008 2008 2008 2008 2008 2008 
2008 2008 2008 2008 2008 2008 2008 2008 2008 
2008 2008 2008 2008 2008 2008 2008 2008 2008 
2008 2008 2008 2008 2008 2008 2008 2008 2008 
2008 2008 2008 2008 2008 2008 2008 2008 2008 
2008 2008 2008 2008 2008 2008 2008 2008 2008 
2008 2008 2008 2008 2008 2008 2008 2008 2008 
2008 2008 2008 2008 2008 2008 2008 2008 2008 
2008 2008 2008 2008 2008 2008 2008 2008 2008 
2008 2008 2008 2008 2008 2008 2008 2008 2008 
2008 2008 2008 2008 2008 2008 2008 2008 2008 
2008 2008 2008 2008 2008 2008 2008 2008 2008 
2008 2008 2008 2008 2008 2008 2008 2008 2008 
2008 2008 2008 2008 2008 2008 2008 2008 2008 
2008 2008 2008 2008 2008 2008 2008 2008 2008 
2008 2008 2008 2008 2008 2008 2008 2008 2008 
2008 2008 2008 2008 2008 2008 2008 2008 2008 
2008 2008 2008 2008 2008 2008 2008 2008 2008 
2008 2008 2008 2008 2008 2008 2008 2008 2008 
2008 2008 2008 2008 2008 2008 2008 2008 2008 
2008 2008 2008 2008 2008 2008 2008 2008 2008 
2008 2008 2008 2008 2008 2008 2008 2008 2008 
2008 2008 2008 2008 2008 2008 2008 2008 2008 
2008 2008 2008 2008 2008 2008 2008 2008 2008 
2008 2008 2008 2008 2008 2008 2008 2008 2008 
2008 2008 2008 2008 2008 2008 2008 2008 2008 
2008 2008 2008 2008 2008 2008 2008 2008 2008 
2008 2008 2008 2008 2008 2008 2008 2008 2008 
2008 2008 2008 2008 2008 2008 2008 2008 2008 
2008 2008 2008 2008 2008 2008 2008 2008 2008 
2008 2008 2008 2008 2008 2008 2008 2008 2008 
2008 2008 2008 2008 2008 2008 2008 2008 2008 
2008 2008 2008 2008 2008 2008 2008 2008 2008 
2008 2008 2008 2008 2008 2008 2008 2008 2008 
2008 2008 2008 2008 2008 2008 2008 2008 2008 
2008 2008 2008 2008 2008 2008 2008 2008 2008 
2008 2008 2008 2008 2008 2008 2008 2008 2008 
2008 2008 2008 2008 2008 2008 2008 2008 2008 
2008 2008 2008 2008 2008 2008 2008 2008 2008 
2008 2008 2008 2008 2008 2008 2008 2008 2008 
2008 2008 2008 2008 2008 2008 2008 2008 2008 
2008 2008 2008 2008 2008 2008 2008 2008 2008 
2008 2008 2008 2008 2008 2008 2008 2008 2008 
2008 2008 2008 2008 2008 2008 2008 2008 2008 
2008 2008 2008 2008 2008 2008 2008 2008 2008 
2008 2008 2008 2008 2008 2008 2008 2008 2008 
2008 2008 2008 2008 2008 2008 2008 2008 2008 
2008 2008 2008 2008 2008 2008 2008 2008 2008 
2008 2008 2008 2008 2008 2008 2008 2008 2008 
2008 2008 2008 2008 2008 2008 2008 2008 2008 
2008 2008 2008 2008 2008 2008 2008 2008 2008 
2008 2008 2008 2008 2008 2008 2008 2008 2008 
2008 2008 2008 2008 2008 2008 2008 2008 2008 
2008 2008 2008 2008 2008 2008 2008 2008 2008 
2008 2008 2008 2008 2008 2008 2008 2008 2008 
2008 2008 2008 2008 2008 2008 2008 2008 2008 
2008 2008 2008 2008 2008 2008 2008 2008 2008 
2008 2008 2008 2008 2008 2008 2008 2008 2008 
2008 2008 2008 2008 2008 2008 2008 2008 2008 
2008 2008 2008 2008 2008 2008 2008 2008 2008 
2008 2008 2008 2008 2008 2008 2008 2008 2008 
2008 2008 2008 2008 2008 2008 2008 2008 2008 
2008 2008 2008 2008 2008 2008 2008 2008 2008 
2008 2008 2008 2008 2008 2008 2008 2008 2008 
2008 2008 2008 2008 2008 2008 2008 2008 2008 
2008 2008 2008 2008 2008 2008 2008 2008 2008 
2008 2008 2008 2008 2008 2008 2008 2008 2008 
2008 2008 2008 2008 2008 2008 2008 2008 2008 
2008 2008 2008 2008 2008 2008 2008 2008 2008 
2008 2008 2008 2008 2008 2008 2008 2008 2008 
2008 2008 2008 2008 2008 2008 2008 2008 2008 
2008 2008 2008 2008 2008 2008 2008 2008 2008 
2008 2008 2008 2008 2008 2008 2008 2008 2008 
2008 2008 2008 2008 2008 2008 2008 2008 2008 
2008 2008 2008 2008 2008 2008 2008 2008 2008 
2008 2008 2008 2008 2008 2008 2008 2008 2008 
2008 2008 2008 2008 2008 2008 2008 2008 2008 
2008 2008 2008 2008 2008 2008 2008 2008 2008 
2008 2008 2008 2008 2008 2008 2008 2008 2008 
2008 2008 2008 2008 2008 2008 2008 2008 2008 
2008 2008 2008 2008 2008 2008 2008 2008 2008 
2008 2008 2008 2008 2008 2008 2008 2008 2008 
2008 2008 2008 2008 2008 2008 2008 2008 2008 
2008 2008 2008 2008 2008 2008 2008 2008 2008 
2008 2008 2008 2008 2008 2008 2008 2008 2008 
2008 2008 2008 2008 2008 2008 2008 2008 2008 
2008 2008 2008 2008 2008 2008 2008 2008 2008 
2008 2008 2008 2008 2008 2008 2008 2008 2008 
2008 2008 2008 2008 2008 2008 2008 2008 2008 
2008 2008 2008 2008 2008 2008 2008 2008 2008 
2008 2008 2008 2008 2008 2008 2008 2008 2008 
2008 2008 2008 2008 2008 2008 2008 2008 2008 
2008 2008 2008 2008 2008 2008 2008 2008 2008 
2008 2008 2008 2008 2008 2008 2008 2008 2008 
2008 2008 2008 2008 2008 2008 2008 2008 2008 
2008 2008 2008 2008 2008 2008 2008 2008 2008 
2008 2008 2008 2008 2008 2008 2008 2008 2008 
2008 2008 2008 2008 2008 2008 2008 2008 2008 
2008 2008 2008 2008 2008 2008 2008 2008 2008 
2008 2008 2008 2008 2008 2008 2008 2008 2008 
2008 2008 2008 2008 2008 2008 2008 2008 2008 
2008 2008 2008 2008 2008 2008 2008 2008 2008 
2008 2008 2008 2008 2008 2008 2008 2008 2008 
2008 2008 2008 2008 2008 2008 2008 2008 2008 
2008 2008 2008 2008 2008 2008 2008 2008 2008 
2008 2008 2008 2008 2008 2008 2008 2008 2008 
2008 2008 2008 2008 2008 2008 2008 2008 2008 
2008 2008 2008 2008 2008 2008 2008 2008 2008 
2008 2008 2008 2008 2008 2008 2008 2008 2008 
2008 2008 2008 2008 2008 2008 2008 2008 2008 
2008 2008 2008 2008 2008 2008 2008 2008 2008 
2008 2008 2008 2008 2008 2008 2008 2008 2008 
2008 2008 2008 2008 2008 2008 2008 2008 2008 
2008 2008 2008 2008 2008 2008 2008 2008 2008 
2008 2008 2008 2008 2008 2008 2008 2008 2008 
2008 2008 2008 2008 2008 2008 2008 2008 2008 
2008 2008 2008 2008 2008 2008 2008 2008 2008 
2008 2008 2008 2008 2008 2008 2008 2008 2008 
2008 2008 2008 2008 2008 2008 2008 2008 2008 
2008 2008 2008 2008 2008 2008 2008 2008 2008 
2008 2008 2008 2008 2008 2008 2008 2008 2008 
2008 2008 2008 2008 2008 2008 2008 2008 2008 
2008 2008 2008 2008 2008 2008 2008 2008 2008 
2008 2008 2008 2008 2008 2008 2008 2008 2008 
2008 2008 2008 2008 2008 2008 2008 2008 2008 
2008 2008 2008 2008 2008 2008 2008 2008 2008 
2008 2008 2008 2008 2008 2008 2008 2008 2008 
2008 2008 2008 2008 2008 2008 2008 2008 2008 
2008 2008 2008 2008 2008 2008 2008 2008 2008 
2008 2008 2008 2008 2008 2008 2008 2008 2008 
2008 2008 2008 2008 2008 2008 2008 2008 2008 
2008 2008 2008 2008 2008 2008 2008 2008 2008 
2008 2008 2008 2008 2008 2008 2008 2008 2008 
2008 2008 2008 2008 2008 2008 2008 2008 2008 
2008 2008 2008 2008 2008 2008 2008 2008 2008 
2008 2008 2008 2008 2008 2008 2008 2008 2008 
2008 2008 2008 2008 2008 2008 2008 2008 2008 
2008 2008 2008 2008 2008 2008 2008 2008 2008 
2008 2008 2008 2008 2008 2008 2008 2008 2008 
2008 2008 2008 2008 2008 2008 2008 2008 2008 
2008 2008 2008 2008 2008 2008 2008 2008 2008 
2008 2008 2008 2008 2008 2008 2008 2008 2008 
2008 2008 2008 2008 2008 2008 2008 2008 2008 
2008 2008 2008 2008 2008 2008 2008 2008 2008 
2008 2008 2008 2008 2008 2008 2008 2008 2008 
2008 2008 2008 2008 2008 2008 2008 2008 2008 
2008 2008 2008 2008 2008 2008 2008 2008 2008 
2008 2008 2008 2008 2008 2008 2008 2008 2008 
2008 2008 2008 2008 2008 2008 2008 2008 2008 
2008 2008 2008 2008 2008 2008 2008 2008 2008 
2008 2008 2008 2008 2008 2008 2008 2008 2008 
2008 2008 2008 2008 2008 2008 2008 2008 2008 
2008 2008 2008 2008 2008 2008 2008 2008 2008 
2008 2008 2008 2008 2008 2008 2008 2008 2008 
2008 2008 2008 2008 2008 2008 2008 2008 2008 
2008 2008 2008 2008 2008 2008 2008 2008 2008 
2008 2008 2008 2008 2008 2008 2008 2008 2008 
2008 2008 2008 2008 2008 2008 2008 2008 2008 
2008 2008 2008 2008 2008 2008 2008 2008 2008 
2008 2008 2008 2008 2008 2008 2008 2008 2008 
2008 2008 2008 2008 2008 2008 2008 2008 2008 
2008 2008 2008 2008 2008 2008 2008 2008 2008 
2008 2008 2008 2008 2008 2008 2008 2008 2008 
2008 2008 2008 2008 2008 2008 2008 2008 2008 
2008 2008 2008 2008 2008 2008 2008 2008 2008 
2008 2008 2008 2008 2008 2008 2008 2008 2008 
2008 2008 2008 2008 2008 2008 2008 2008 2008 
2008 2008 2008 2008 2008 2008 2008 2008 2008 
2008 2008 2008 2008 2008 2008 2008 2008 2008 
2008 2008 2008 2008 2008 2008 2008 2008 2008 
2008 2008 2008 2008 2008 2008 2008 2008 2008 
2008 2008 2008 2008 2008 2008 2008 2008 2008 
2008 2008 2008 2008 2008 2008 2008 2008 2008 
2008 2008 2008 2008 2008 2008 2008 2008 2008 
2008 2008 2008 2008 2008 2008 2008 2008 2008 
2008 2008 2008 2008 2008 2008 2008 2008 2008 
2008 2008 2008 2008 2008 2008 2008 2008 2008 
2008 2008 2008 2008 2008 2008 2008 2008 2008 
2008 2008 2008 2008 2008 2008 2008 2008 2008 
2008 2008 2008 2008 2008 2008 2008 2008 2008 
2008 2008 2008 2008 2008 2008 2008 2008 2008 
2008 2008 2008 2008 2008 2008 2008 2008 2008 
2008 2008 2008 2008 2008 2008 2008 2008 2008 
2008 2008 2008 2008 2008 2008 2008 2008 2008 
2008 2008 2008 2008 2008 2008 2008 2008 2008 
2008 2008 2008 2008 2008 2008 2008 2008 2008 
2008 2008 2008 2008 2008 2008 2008 2008 2008 
2008 2008 2008 2008 2008 2008 2008 2008 2008 
2008 2008 2008 2008 2008 2008 2008 2008 2008 
2008 2008 2008 2008 2008 2008 2008 2008 2008 
2008 2008 2008 2008 2008 2008 2008 2008 2008 
2008 2008 2008 2008 2008 2008 2008 2008 2008 
2008 2008 2008 2008 2008 2008 2008 2008 2008 
2008 2008 2008 2008 2008 2008 2008 2008 2008 
2008 2008 2008 2008 2008 2008 2008 2008 2008 
2008 2008 2008 2008 2008 2008 2008 2008 2008 
2008 2008 2008 2008 2008 2008 2008 2008 2008 
2008 2008 2008 2008 2008 2008 2008 2008 2008 
2008 2008 2008 2008 2008 2008 2008 2008 2008 
2008 2008 2008 2008 2008 2008 2008 2008 2008 
2008 2008 2008 2008 2008 2008 2008 2008 2008 
2008 2008 2008 2008 2008 2008 2008 2008 2008 
2008 2008 2008 2008 2008 2008 2008 2008 2008 
2008 2008 2008 2008 2008 2008 2008 2008 2008 
2008 2008 2008 2008 2008 2008 2008 2008 2008 
2008 2008 2008 2008 2008 2008 2008 2008 2008 
2008 2008 2008 2008 2008 2008 2008 2008 2008 
2008 2008 2008 2008 2008 2008 2008 2008 2008 
2008 2008 2008 2008 2008 2008 2008 2008 2008 
2008 2008 2008 2008 2008 2008 2008 2008 2008 
2008 2008 2008 2008 2008 2008 2008 2008 2008 
2008 2008 2008 2008 2008 2008 2008 2008 2008 
2008 2008 2008 2008 2008 2008 2008 2008 2008 
2008 2008 2008 2008 2008 2008 2008 2008 2008 
2008 2008 2008 2008 2008 2008 2008 2008 2008 
2008 2008 2008 2008 2008 2008 2008 2008 2008 
2008 2008 2008 2008 2008 2008 2008 2008 2008 
2008 2008 2008 2008 2008 2008 2008 2008 2008 
2008 2008 2008 2008 2008 2008 2008 2008 2008 
2008 2008 2008 2008 2008 2008 2008 2008 2008 
2008 2008 2008 2008 2008 2008 2008 2008 2008 
2008 2008 2008 2008 2008 2008 2008 2008 2008 
2008 2008 2008 2008 2008 2008 2008 2008 2008 
2008 2008 2008 2008 2008 2008 2008 2008 2008 
2008 2008 2008 2008 2008 2008 2008 2008 2008 
2008 2008 2008 2008 2008 2008 2008 2008 2008 
2008 2008 2008 2008 2008 2008 2008 2008 2008 
2008 2008 2008 2008 2008 2008 2008 2008 2008 
2008 2008 2008 2008 2008 2008 2008 2008 2008 
2008 2008 2008 2008 2008 2008 2008 2008 2008 
2008 2008 2008 2008 2008 2008 2008 2008 2008 
2008 2008 2008 2008 2008 2008 2008 2008 2008 
2008 2008 2008 2008 2008 2008 2008 2008 2008 
2008 2008 2008 2008 2008 2008 2008 2008 2008 
2008 2008 2008 2008 2008 2008 2008 2008 2008 
2008 2008 2008 2008 2008 2008 2008 2008 2008 
2008 2008 2008 2008 2008 2008 2008 2008 2008 
2008 2008 2008 2008 2008 2008 2008 2008 2008 
2008 2008 2008 2008 2008 2008 2008 2008 2008 
2008 2008 2008 2008 2008 2008 2008 2008 2008 
2008 2008 2008 2008 2008 2008 2008 2008 2008 
2008 2008 2008 2008 2008 2008 2008 2008 2008 
2008 2008 2008 2008 2008 2008 2008 2008 2008 
2008 2008 2008 2008 2008 2008 2008 2008 2008 
2008 2008 2008 2008 2008 2008 2008 2008 2008 
2008 2008 2008 2008 2008 2008 2008 2008 2008 
2008 2008 2008 2008 2008 2008 2008 2008 2008 
2008 2008 2008 2008 2008 2008 2008 2008 2008 
2008 2008 2008 2008 2008 2008 2008 2008 2008 
2008 2008 2008 2008 2008 2008 2008 2008 2008 
2008 2008 2008 2008 2008 2008 2008 2008 2008 
2008 2008 2008 2008 2008 2008 2008 2008 2008 
2008 2008 2008 2008 2008 2008 2008 2008 2008 
2008 2008 2008 2008 2008 2008 2008 2008 2008 
2008 2008 2008 2008 2008 2008 2008 2008 2008 
2008 2008 2008 2008 2008 2008 2008 2008 2008 
2008 2008 2008 2008 2008 2008 2008 2008 2008 
2008 2008 2008 2008 2008 2008 2008 2008 2008 
2008 2008 2008 2008 2008 2008 2008 2008 2008 
2008 2008 2008 2008 2008 2008 2008 2008 2008 
2008 2008 2008 2008 2008 2008 2008 2008 2008 
2008 2008 2008 2008 2008 2008 2008 2008 2008 
2008 2008 2008 2008 2008 2008 2008 2008 2008 
2008 2008 2008 2008 2008 2008 2008 2008 2008 
2008 2008 2008 2008 2008 2008 2008 2008 2008 
2008 2008 2008 2008 2008 2008 2008 2008 2008 
2008 2008 2008 2008 2008 2008 2008 2008 2008 
2008 2008 2008 2008 2008 2008 2008 2008 2008 
2008 2008 2008 2008 2008 2008 2008 2008 2008 
2008 2008 2008 2008 2008 2008 2008 2008 2008 
2008 2008 2008 2008 2008 2008 2008 2008 2008 
2008 2008 2008 2008 2008 2008 2008 2008 2008 
2008 2008 2008 2008 2008 2008 2008 2008 2008 
2008 2008 2008 2008 2008 2008 2008 2008 2008 
2008 2008 2008 2008 2008 2008 2008 2008 2008 
2008 2008 2008 2008 2008 2008 2008 2008 2008 
2008 2008 2008 2008 2008 2008 2008 2008 2008 
2008 2008 2008 2008 2008 2008 2008 2008 2008 
2008 2008 2008 2008 2008 2008 2008 2008 2008 
2008 2008 2008 2008 2008 2008 2008 2008 2008 
2008 2008 2008 2008 2008 2008 2008 2008 2008 
2008 2008 2008 2008 2008 2008 2008 2008 2008 
2008 2008 2008 2008 2008 2008 2008 2008 2008 
2008 2008 2008 2008 2008 2008 2008 2008 2008 
2008 2008 2008 2008 2008 2008 2008 2008 2008 
2008 2008 2008 2008 2008 2008 2008 2008 2008 
2008 2008 2008 2008 2008 2008 2008 2008 2008 
2008 2008 2008 2008 2008 2008 2008 2008 2008 
2008 2008 2008 2008 2008 2008 2008 2008 2008 
2008 2008 2008 2008 2008 2008 2008 2008 2008 
2008 2008 2008 2008 2008 2008 2008 2008 2008 
2008 2008 2008 2008 2008 2008 2008 2008 2008 
2008 2008 2008 2008 2008 2008 2008 2008 2008 
2008 2008 2008 2008 2008 2008 2008 2008 2008 
2008 2008 2008 2008 2008 2008 2008 2008 2008 
2008 2008 2008 2008 2008 2008 2008 2008 2008 
2008 2008 2008 2008 2008 2008 2008 2008 2008 
2008 2008 2008 2008 2008 2008 2008 2008 2008 
2008 2008 2008 2008 2008 2008 2008 2008 2008 
2008 2008 2008 2008 2008 2008 2008 2008 2008 
2008 2008 2008 2008 2008 2008 2008 2008 2008 
2008 2008 2008 2008 2008 2008 2008 2008 2008 
2008 2008 2008 2008 2008 2008 2008 2008 2008 
2008 2008 2008 2008 2008 2008 2008 2008 2008 
2008 2008 2008 2008 2008 2008 2008 2008 2008 
2008 2008 2008 2008 2008 2008 2008 2008 2008 
2008 2008 2008 2008 2008 2008 2008 2008 2008 
2008 2008 2008 2008 2008 2008 2008 2008 2008 
2008 2008 2008 2008 2008 2008 2008 2008 2008 
2008 2008 2008 2008 2008 2008 2008 2008 2008 
2008 2008 2008 2008 2008 2008 2008 2008 2008 
2008 2008 2008 2008 2008 2008 2008 2008 2008 
2008 2008 2008 2008 2008 2008 2008 2008 2008 
2008 2008 2008 2008 2008 2008 2008 2008 2008 
2008 2008 2008 2008 2008 2008 2008 2008 2008 
2008 2008 2008 2008 2008 2008 2008 2008 2008 
2008 2008 2008 2008 2008 2008 2008 2008 2008 
2008 2008 2008 2008 2008 2008 2008 2008 2008 
2008 2008 2008 2008 2008 2008 2008 2008 2008 
2008 2008 2008 2008 2008 2008 2008 2008 2008 
2008 2008 2008 2008 2008 2008 2008 2008 2008 
2008 2008 2008 2008 2008 2008 2008 2008 2008 
2008 2008 2008 2008 2008 2008 2008 2008 2008 
2008 2008 2008 2008 2008 2008 2008 2008 2008 
2008 2008 2008 2008 2008 2008 2008 2008 2008 
2008 2008 2008 2008 2008 2008 2008 2008 2008 
2008 2008 2008 2008 2008 2008 2008 2008 2008 
2008 2008 2008 2008 2008 2008 2008 2008 2008 
2008 2008 2008 2008 2008 2008 2008 2008 2008 
2008 2008 2008 2008 2008 2008 2008 2008 2008 
2008 2008 2008 2008 2008 2008 2008 2008 2008 
2008 2008 2008 2008 2008 2008 2008 2008 2008 
2008 2008 2008 2008 2008 2008 2008 2008 2008 
2008 2008 2008 2008 2008 2008 2008 2008 2008 
2008 2008 2008 2008 2008 2008 2008 2008 2008 
2008 2008 2008 2008 2008 2008 2008 2008 2008 
2008 2008 2008 2008 2008 2008 2008 2008 2008 
2008 2008 2008 2008 2008 2008 2008 2008 2008 
2008 2008 2008 2008 2008 2008 2008 2008 2008 
2008 2008 2008 2008 2008 2008 2008 2008 2008 
2008 2008 2008 2008 2008 2008 2008 2008 2008 
2008 2008 2008 2008 2008 2008 2008 2008 2008 
2008 2008 2008 2008 2008 2008 2008 2008 2008 
2008 2008 2008 2008 2008 2008 2008 2008 2008 
2008 2008 2008 2008 2008 2008 2008 2008 2008 
2008 2008 2008 2008 2008 2008 2008 2008 2008 
2008 2008 2008 2008 2008 2008 2008 2008 2008 
2008 2008 2008 2008 2008 2008 2008 2008 2008 
2008 2008 2008 2008 2008 2008 2008 2008 2008 
2008 2008 2008 2008 2008 2008 2008 2008 2008 
2008 2008 2008 2008 2008 2008 2008 2008 2008 
2008 2008 2008 2008 2008 2008 2008 2008 2008 
2008 2008 2008 2008 2008 2008 2008 2008 2008 
2008 2008 2008 2008 2008 2008 2008 2008 2008 