# vtk DataFile Version 4.2
vtk output
ASCII
DATASET POLYDATA
POINTS 5116 float
-28.8126 -24.3729 28.109 -28.5736 -24.077 27.8844 -28.3362 -24.4714 27.9411 
-29.2359 -24.4073 28.0959 -29.1606 -23.983 27.8145 -29.5359 -24.3031 27.8514 
-28.617 -24.9511 28.1749 -28.1784 -24.9193 27.9694 -29.1367 -24.8628 28.1763 
-29.5327 -24.7404 27.9561 -28.2168 -25.4614 28.1331 -27.8871 -25.2292 27.8734 
-27.7337 -25.7057 27.9286 -28.7257 -25.6011 28.2524 -29.1333 -25.4916 28.175 
-29.5217 -25.3384 27.9574 -28.0749 -26.1122 28.1589 -27.6759 -26.2797 27.9383 
-28.6077 -26.1122 28.2493 -29.1394 -26.1145 28.1713 -29.5366 -25.963 27.9368 
-27.998 -26.5804 28.0967 -27.78 -26.7665 27.8895 -28.4423 -26.6331 28.1675 
-29.0131 -26.6413 28.1228 -29.4889 -26.5354 27.9241 -28.1946 -26.9864 27.94 
-28.7897 -27.0404 27.9461 -29.2948 -26.9418 27.8914 -28.8342 -21.9858 27.5246 
-28.5826 -21.6698 27.3024 -28.3575 -22.0768 27.3381 -29.2309 -22.0161 27.4997 
-29.0244 -21.6152 27.3505 -29.4162 -21.7466 27.1849 -28.6394 -22.568 27.5614 
-28.1995 -22.5358 27.3709 -29.1583 -22.4851 27.5608 -29.5368 -22.3277 27.2443 
-28.2118 -23.0743 27.5158 -27.907 -22.835 27.2706 -27.7363 -23.2956 27.3106 
-28.7193 -23.187 27.6268 -29.1398 -23.0874 27.5599 -29.5349 -22.962 27.3366 
-27.9328 -23.7044 27.5415 -27.5853 -23.7598 27.3561 -28.5401 -23.6765 27.6921 
-29.0711 -23.5485 27.6299 -29.5355 -23.5715 27.4051 -27.5978 -24.2632 27.5032 
-27.3633 -23.9557 27.2071 -27.2237 -24.3664 27.2234 -28.1139 -24.1621 27.7093 
-29.8242 -24.5038 27.5872 -29.7224 -24.0491 27.4825 -30.0068 -24.1838 27.1524 
-27.333 -24.8963 27.5244 -27.0079 -24.8787 27.2886 -27.8481 -24.7787 27.7252 
-29.8284 -25.0684 27.6289 -30.0456 -24.738 27.2187 -26.9901 -25.4584 27.5173 
-26.7875 -25.2111 27.3336 -26.5601 -25.6031 27.2872 -27.4891 -25.377 27.7006 
-29.8383 -25.6757 27.6253 -30.1243 -25.3416 27.2132 -26.8737 -26.0587 27.4922 
-26.5675 -26.1458 27.2713 -27.3067 -25.9466 27.7079 -29.8374 -26.2759 27.626 
-30.1378 -25.9669 27.3163 -26.8788 -26.4587 27.3582 -27.0648 -26.9162 27.3152 
-27.3419 -26.6261 27.6184 -29.7489 -26.8977 27.6263 -30.1343 -26.5634 27.3273 
-27.4071 -27.1826 27.4581 -27.227 -27.3818 27.2575 -27.838 -27.2114 27.6189 
-28.5605 -27.3992 27.6339 -29.3038 -27.3514 27.6943 -29.8392 -27.4223 27.5363 
-30.1446 -27.1656 27.3276 -27.6018 -27.5701 27.2977 -28.1519 -27.6279 27.3138 
-28.6609 -27.7173 27.3577 -28.9199 -27.9102 27.3074 -29.102 -27.7638 27.4978 
-29.6508 -27.8323 27.5035 -30.1102 -27.7332 27.3386 -29.2548 -28.1501 27.2286 
-29.8889 -28.1269 27.2999 -26.786 -19.5072 26.8189 -26.8216 -19.2555 26.5855 
-26.6286 -19.5851 26.7132 -27.0454 -19.4566 26.6487 -26.8775 -19.6708 26.7108 
-27.5977 -20.7555 26.8903 -27.3588 -20.488 26.664 -27.1441 -20.9002 26.709 
-28.1674 -20.7449 26.9637 -27.941 -20.3786 26.6678 -28.7479 -20.834 26.9193 
-28.4727 -20.5208 26.7397 -28.9055 -20.6658 26.5297 -27.4845 -21.2882 26.9328 
-27.1038 -21.4778 26.7172 -27.9134 -21.1447 27.0348 -28.5396 -21.2568 27.1248 
-29.254 -20.9657 26.6511 -29.1467 -21.2646 27.045 -29.5532 -21.3552 26.7312 
-27.4862 -21.8939 26.9379 -27.1224 -22.0768 26.6999 -28.0271 -21.6898 27.1025 
-29.6806 -21.8445 26.8131 -27.4189 -22.4095 26.9078 -27.133 -22.6865 26.6014 
-27.8594 -22.3653 27.1237 -29.7956 -22.2586 26.8318 -29.8212 -22.7249 26.9811 
-30.0029 -22.3791 26.5605 -27.5144 -22.9252 27.0022 -27.223 -23.205 26.7159 
-29.8485 -23.2926 27.0259 -30.0441 -22.9553 26.6199 -27.4033 -23.5061 27.0537 
-27.1126 -23.789 26.746 -29.8881 -23.7646 27.1159 -30.1328 -23.6226 26.6818 
-26.9778 -24.4238 26.8852 -30.2042 -24.3044 26.7789 -26.7143 -24.9687 27.0382 
-26.7601 -24.5447 26.6318 -26.5143 -24.8821 26.6215 -30.2489 -24.8589 26.8013 
-26.3181 -25.3846 26.9396 -26.226 -25.2217 26.5194 -26.0331 -25.6297 26.7217 
-30.3827 -25.2616 26.8068 -30.4223 -25.7085 26.9723 -30.6042 -25.4048 26.5609 
-26.1813 -26.0904 27.0233 -25.7866 -26.0564 26.691 -30.4289 -26.2756 27.0299 
-30.6423 -25.9747 26.6436 -25.7936 -26.6355 26.8798 -25.5642 -26.3915 26.704 
-25.4384 -26.7018 26.6474 -26.2875 -26.7851 27.0258 -26.6293 -26.5975 27.1493 
-30.433 -26.8674 27.0252 -30.6449 -26.5516 26.6458 -25.6818 -27.0808 26.7833 
-25.8484 -27.5361 26.7477 -26.1797 -27.3032 26.9552 -26.7911 -27.2607 27.0942 
-30.4429 -27.4675 27.0441 -30.7357 -27.1413 26.6348 -26.2154 -27.8079 26.882 
-25.9852 -27.8842 26.7243 -26.6566 -27.8391 26.9433 -27.258 -27.8249 27.0173 
-27.8619 -27.9093 26.9955 -28.5274 -27.9559 27.0756 -30.3355 -28.0893 27.05 
-30.7468 -27.7805 26.7477 -26.2474 -28.1613 26.6248 -26.9638 -28.2329 26.7215 
-27.5595 -28.2114 26.6942 -28.1507 -28.2062 26.6928 -28.7292 -28.2881 26.8204 
-29.1724 -28.4542 26.9135 -28.889 -28.4983 26.6964 -29.7676 -28.449 27.0295 
-30.289 -28.5196 26.8894 -30.7389 -28.4522 26.6235 -29.2498 -28.7428 26.6317 
-29.9953 -28.8144 26.7432 -30.4418 -28.7986 26.6434 -25.6952 -19.0008 26.3395 
-25.5779 -18.6699 25.9311 -25.2192 -18.9417 26.1919 -26.2888 -18.8551 26.3597 
-26.227 -18.643 26.0476 -26.6563 -18.9504 26.4067 -26.7882 -18.6798 26.0594 
-27.1265 -18.8711 26.127 -24.5649 -19.5523 26.3124 -24.2974 -19.2632 26.0914 
-24.1072 -19.6791 26.1272 -25.1457 -19.4446 26.3764 -24.772 -19.1072 26.1522 
-25.6812 -19.5907 26.434 -26.2688 -19.3992 26.5107 -27.4141 -19.7042 26.4097 
-27.438 -19.1755 26.1176 -27.7902 -19.4626 26.0413 -24.4546 -20.0466 26.3056 
-24.1726 -20.1476 26.0926 -24.9734 -20.0745 26.4249 -25.577 -20.1225 26.4237 
-26.1798 -20.0974 26.4266 -26.763 -19.9306 26.5181 -27.3975 -20.1712 26.5019 
-27.9511 -19.7621 26.1534 -27.9783 -20.0587 26.3489 -28.2951 -19.982 25.9003 
-24.474 -20.4406 26.1652 -24.7537 -20.7997 26.0761 -24.8686 -20.5332 26.3027 
-25.5226 -20.7084 26.3434 -26.1893 -20.7048 26.3969 -26.8248 -20.529 26.484 
-28.5768 -20.3795 26.213 -29.0546 -20.6334 26.0582 -25.212 -20.9748 26.1141 
-25.6858 -21.1187 26.1437 -25.9852 -21.4141 26.0525 -26.189 -21.2381 26.2867 
-26.7232 -21.1354 26.486 -29.3487 -20.8362 26.1517 -29.8741 -21.4752 26.3768 
-29.7006 -21.0835 26.2356 -30.0163 -21.2751 25.9551 -26.3305 -21.6687 26.1351 
-26.5119 -22.1092 26.1118 -26.7237 -21.7425 26.4087 -29.9029 -21.9314 26.5192 
-30.0955 -21.8077 26.0993 -26.8413 -22.3347 26.3599 -26.6208 -22.4609 26.0988 
-30.139 -22.4565 26.1015 -26.7416 -22.7306 26.0764 -26.9858 -23.1796 26.3023 
-30.2357 -23.0138 26.081 -26.8736 -23.6218 26.2936 -26.785 -23.3358 25.9847 
-26.6716 -23.7128 25.9893 -30.3883 -23.4444 26.2121 -30.4238 -23.9056 26.3743 
-30.6149 -23.5672 25.9507 -26.8306 -24.0852 26.4379 -26.6128 -24.3048 26.1312 
-30.4393 -24.4846 26.4242 -30.6564 -24.1344 26.0229 -26.4208 -24.8028 26.1395 
-30.472 -24.9674 26.5139 -30.6618 -24.8383 26.111 -26.2267 -25.1185 26.1737 
-25.9097 -25.5219 26.2615 -30.7205 -25.51 26.1204 -25.5061 -26.1626 26.4157 
-25.5963 -25.7861 26.1127 -25.287 -26.0891 26.1011 -30.7247 -26.1059 26.1245 
-25.1395 -26.6717 26.3427 -24.9793 -26.4076 26.1134 -24.7493 -26.7963 26.0802 
-30.8314 -26.6288 26.0907 -25.0432 -27.2519 26.2818 -24.7263 -27.2494 26.1045 
-25.4179 -27.2026 26.5464 -30.996 -27.0496 26.2232 -31.0344 -27.4987 26.4074 
-31.212 -27.1849 25.9696 -24.5493 -28.0504 26.2834 -24.3723 -27.7057 26.1372 
-24.1398 -28.007 26.0201 -24.9832 -27.5969 26.0939 -24.6425 -27.7731 26.0972 
-25.3043 -27.9047 26.0858 -25.5574 -27.7718 26.4054 -31.041 -28.0727 26.443 
-31.2547 -27.7503 26.0535 -24.502 -28.49 26.3413 -24.2481 -28.5065 26.0159 
-24.9183 -28.1329 26.1628 -24.9405 -28.5306 26.3194 -25.6872 -28.2197 26.1515 
-25.2354 -28.4486 26.0776 -26.1716 -28.4691 26.2907 -25.9825 -28.5923 26.0363 
-26.6662 -28.5186 26.4122 -27.2633 -28.5157 26.4073 -27.8523 -28.49 26.3763 
-28.5043 -28.5257 26.4589 -31.0399 -28.4674 26.3655 -31.2262 -28.4038 25.9974 
-24.5223 -28.8159 26.1672 -24.7133 -29.0825 26.0253 -24.8746 -28.943 26.2981 
-25.2913 -28.9151 26.1266 -26.4168 -28.7565 26.0923 -26.9677 -28.802 26.1051 
-27.5509 -28.7824 26.0807 -28.1439 -28.7833 26.0842 -28.7282 -28.8666 26.2106 
-29.266 -29.1385 26.3338 -28.903 -29.0985 26.097 -29.8357 -29.1926 26.5215 
-30.3664 -29.1938 26.4595 -30.7472 -29.0446 26.2966 -31.031 -28.8144 26.1398 
-24.9961 -29.3252 26.0114 -29.1488 -29.4005 26.0417 -29.5404 -29.7031 26.1306 
-29.7144 -29.5536 26.3204 -30.2418 -29.6388 26.3277 -30.7445 -29.6709 26.0202 
-29.8587 -29.9472 26.0513 -30.436 -30.0194 26.0417 -23.9057 -18.8528 25.6935 
-23.8463 -18.6728 25.335 -23.5908 -18.9929 25.5517 -24.4284 -18.9075 25.8517 
-24.3867 -18.6321 25.4545 -25.0157 -18.8034 25.9508 -25.0888 -18.6355 25.5287 
-25.7359 -18.5895 25.4175 -26.2325 -18.5773 25.5144 -26.8321 -18.5697 25.5205 
-27.4697 -18.8522 25.7997 -27.3744 -18.6612 25.5371 -27.7515 -18.8692 25.4913 
-23.7858 -19.3731 25.8462 -23.4009 -19.4122 25.4728 -28.0807 -19.5826 25.8535 
-27.9403 -19.2221 25.6549 -28.226 -19.4543 25.4158 -23.3685 -20.0483 25.7455 
-23.1426 -19.8065 25.3463 -23.0099 -20.2486 25.5559 -23.8518 -20.0908 25.929 
-28.3948 -20.0077 25.3239 -23.2589 -20.6876 25.7422 -22.9455 -20.7522 25.3569 
-23.772 -20.7054 25.8477 -24.3177 -20.6882 25.9381 -28.6124 -20.3062 25.6116 
-29.363 -20.725 25.7434 -29.0399 -20.5389 25.5735 -29.4283 -20.6972 25.4655 
-23.2403 -21.096 25.6109 -23.4302 -21.4011 25.4621 -23.655 -21.1855 25.7229 
-24.2359 -21.2336 25.7429 -24.9386 -21.2892 25.8102 -25.5969 -21.3872 25.9268 
-29.6833 -20.9673 25.5654 -30.0675 -21.4794 25.4691 -23.9057 -21.5348 25.3731 
-24.5207 -21.5311 25.5056 -25.0027 -21.6929 25.468 -25.3437 -21.9118 25.4897 
-25.5925 -21.8337 25.7014 -26.084 -21.8083 25.9198 -30.167 -21.9937 25.6123 
-25.5778 -22.2045 25.4348 -25.9508 -22.514 25.511 -26.218 -22.3695 25.8009 
-30.2276 -22.4862 25.4309 -26.2409 -22.7951 25.4984 -26.7291 -23.0447 25.8501 
-26.5221 -23.2962 25.4745 -30.3954 -22.8791 25.5524 -30.4732 -23.1815 25.86 
-30.621 -23.1557 25.4628 -26.5683 -23.8102 25.5801 -28.6997 -23.8165 25.6699 
-28.3817 -23.8845 25.5628 -28.5459 -23.5052 25.5221 -28.8393 -23.5541 25.392 
-30.7549 -23.6541 25.4897 -26.4976 -24.3265 25.5287 -28.6503 -24.3018 25.7052 
[...]
CELL_DATA 10244
SCALARS scalars float
LOOKUP_TABLE default
1020 1020 1020 1020 1020 1020 1020 1020 1020 
1020 1020 1020 1020 1020 1020 1020 1020 1020 
1020 1020 1020 1020 1020 1020 1020 1020 1020 
1020 1020 1020 1020 1020 1020 1020 1020 1020 
1020 1020 1020 1020 1020 1020 1020 1020 1020 
1020 1020 1020 1020 1020 1020 1020 1020 1020 
1020 1020 1020 1020 1020 1020 1020 1020 1020 
1020 1020 1020 1020 1020 1020 1020 1020 1020 
1020 1020 1020 1020 1020 1020 1020 1020 1020 
1020 1020 1020 1020 1020 1020 1020 1020 1020 
1020 1020 1020 1020 1020 1020 1020 1020 1020 
1020 1020 1020 1020 1020 1020 1020 1020 1020 
1020 1020 1020 1020 1020 1020 1020 1020 1020 
1020 1020 1020 1020 1020 1020 1020 1020 1020 
1020 1020 1020 1020 1020 1020 1020 1020 1020 
1020 1020 1020 1020 1020 1020 1020 1020 1020 
1020 1020 1020 1020 1020 1020 1020 1020 1020 
1020 1020 1020 1020 1020 1020 1020 1020 1020 
1020 1020 1020 1020 1020 1020 1020 1020 1020 
1020 1020 1020 1020 1020 1020 1020 1020 1020 
1020 1020 1020 1020 1020 1020 1020 1020 1020 
1020 1020 1020 1020 1020 1020 1020 1020 1020 
1020 1020 1020 1020 1020 1020 1020 1020 1020 
1020 1020 1020 1020 1020 1020 1020 1020 1020 
1020 1020 1020 1020 1020 1020 1020 1020 1020 
1020 1020 1020 1020 1020 1020 1020 1020 1020 
1020 1020 1020 1020 1020 1020 1020 1020 1020 
1020 1020 1020 1020 1020 1020 1020 1020 1020 
1020 1020 1020 1020 1020 1020 1020 1020 1020 
1020 1020 1020 1020 1020 1020 1020 1020 1020 
1020 1020 1020 1020 1020 1020 1020 1020 1020 
1020 1020 1020 1020 1020 1020 1020 1020 1020 
1020 1020 1020 1020 1020 1020 1020 1020 1020 
1020 1020 1020 1020 1020 1020 1020 1020 1020 
1020 1020 1020 1020 1020 1020 1020 1020 1020 
1020 1020 1020 1020 1020 1020 1020 1020 1020 
1020 1020 1020 1020 1020 1020 1020 1020 1020 
1020 1020 1020 1020 1020 1020 1020 1020 1020 
1020 1020 1020 1020 1020 1020 1020 1020 1020 
1020 1020 1020 1020 1020 1020 1020 1020 1020 
1020 1020 1020 1020 1020 1020 1020 1020 1020 
1020 1020 1020 1020 1020 1020 1020 1020 1020 
1020 1020 1020 1020 1020 1020 1020 1020 1020 
1020 1020 1020 1020 1020 1020 1020 1020 1020 
1020 1020 1020 1020 1020 1020 1020 1020 1020 
1020 1020 1020 1020 1020 1020 1020 1020 1020 
1020 1020 1020 1020 1020 1020 1020 1020 1020 
1020 1020 1020 1020 1020 1020 1020 1020 1020 
1020 1020 1020 1020 1020 1020 1020 1020 1020 
1020 1020 1020 1020 1020 1020 1020 1020 1020 
1020 1020 1020 1020 1020 1020 1020 1020 1020 
1020 1020 1020 1020 1020 1020 1020 1020 1020 
1020 1020 1020 1020 1020 1020 1020 1020 1020 
1020 1020 1020 1020 1020 1020 1020 1020 1020 
1020 1020 1020 1020 1020 1020 1020 1020 1020 
1020 1020 1020 1020 1020 1020 1020 1020 1020 
1020 1020 1020 1020 1020 1020 1020 1020 1020 
1020 1020 1020 1020 1020 1020 1020 1020 1020 
1020 1020 1020 1020 1020 1020 1020 1020 1020 
1020 1020 1020 1020 1020 1020 1020 1020 1020 
1020 1020 1020 1020 1020 1020 1020 1020 1020 
1020 1020 1020 1020 1020 1020 1020 1020 1020 
1020 1020 1020 1020 1020 1020 1020 1020 1020 
1020 1020 1020 1020 1020 1020 1020 1020 1020 
1020 1020 1020 1020 1020 1020 1020 1020 1020 
1020 1020 1020 1020 1020 1020 1020 1020 1020 
1020 1020 1020 1020 1020 1020 1020 1020 1020 
1020 1020 1020 1020 1020 1020 1020 1020 1020 
1020 1020 1020 1020 1020 1020 1020 1020 1020 
1020 1020 1020 1020 1020 1020 1020 1020 1020 
1020 1020 1020 1020 1020 1020 1020 1020 1020 
1020 1020 1020 1020 1020 1020 1020 1020 1020 
1020 1020 1020 1020 1020 1020 1020 1020 1020 
1020 1020 1020 1020 1020 1020 1020 1020 1020 
1020 1020 1020 1020 1020 1020 1020 1020 1020 
1020 1020 1020 1020 1020 1020 1020 1020 1020 
1020 1020 1020 1020 1020 1020 1020 1020 1020 
1020 1020 1020 1020 1020 1020 1020 1020 1020 
1020 1020 1020 1020 1020 1020 1020 1020 1020 
1020 1020 1020 1020 1020 1020 1020 1020 1020 
1020 1020 1020 1020 1020 1020 1020 1020 1020 
1020 1020 1020 1020 1020 1020 1020 1020 1020 
1020 1020 1020 1020 1020 1020 1020 1020 1020 
1020 1020 1020 1020 1020 1020 1020 1020 1020 
1020 1020 1020 1020 1020 1020 1020 1020 1020 
1020 1020 1020 1020 1020 1020 1020 1020 1020 
1020 1020 1020 1020 1020 1020 1020 1020 1020 
1020 1020 1020 1020 1020 1020 1020 1020 1020 
1020 1020 1020 1020 1020 1020 1020 1020 1020 
1020 1020 1020 1020 1020 1020 1020 1020 1020 
1020 1020 1020 1020 1020 1020 1020 1020 1020 
1020 1020 1020 1020 1020 1020 1020 1020 1020 
1020 1020 1020 1020 1020 1020 1020 1020 1020 
1020 1020 1020 1020 1020 1020 1020 1020 1020 
1020 1020 1020 1020 1020 1020 1020 1020 1020 
1020 1020 1020 1020 1020 1020 1020 1020 1020 
1020 1020 1020 1020 1020 1020 1020 1020 1020 
1020 1020 1020 1020 1020 1020 1020 1020 1020 
1020 1020 1020 1020 1020 1020 1020 1020 1020 
1020 1020 1020 1020 1020 1020 1020 1020 1020 
1020 1020 1020 1020 1020 1020 1020 1020 1020 
1020 1020 1020 1020 1020 1020 1020 1020 1020 
1020 1020 1020 1020 1020 1020 1020 1020 1020 
1020 1020 1020 1020 1020 1020 1020 1020 1020 
1020 1020 1020 1020 1020 1020 1020 1020 1020 
1020 1020 1020 1020 1020 1020 1020 1020 1020 
1020 1020 1020 1020 1020 1020 1020 1020 1020 
1020 1020 1020 1020 1020 1020 1020 1020 1020 
1020 1020 1020 1020 1020 1020 1020 1020 1020 
1020 1020 1020 1020 1020 1020 1020 1020 1020 
1020 1020 1020 1020 1020 1020 1020 1020 1020 
1020 1020 1020 1020 1020 1020 1020 1020 1020 
1020 1020 1020 1020 1020 1020 1020 1020 1020 
1020 1020 1020 1020 1020 1020 1020 1020 1020 
1020 1020 1020 1020 1020 1020 1020 1020 1020 
1020 1020 1020 1020 1020 1020 1020 1020 1020 
1020 1020 1020 1020 1020 1020 1020 1020 1020 
1020 1020 1020 1020 1020 1020 1020 1020 1020 
1020 1020 1020 1020 1020 1020 1020 1020 1020 
1020 1020 1020 1020 1020 1020 1020 1020 1020 
1020 1020 1020 1020 1020 1020 1020 1020 1020 
1020 1020 1020 1020 1020 1020 1020 1020 1020 
1020 1020 1020 1020 1020 1020 1020 1020 1020 
1020 1020 1020 1020 1020 1020 1020 1020 1020 
1020 1020 1020 1020 1020 1020 1020 1020 1020 
1020 1020 1020 1020 1020 1020 1020 1020 1020 
1020 1020 1020 1020 1020 1020 1020 1020 1020 
1020 1020 1020 1020 1020 1020 1020 1020 1020 
1020 1020 1020 1020 1020 1020 1020 1020 1020 
1020 1020 1020 1020 1020 1020 1020 1020 1020 
1020 1020 1020 1020 1020 1020 1020 1020 1020 
1020 1020 1020 1020 1020 1020 1020 1020 1020 
1020 1020 1020 1020 1020 1020 1020 1020 1020 
1020 1020 1020 1020 1020 1020 1020 1020 1020 
1020 1020 1020 1020 1020 1020 1020 1020 1020 
1020 1020 1020 1020 1020 1020 1020 1020 1020 
1020 1020 1020 1020 1020 1020 1020 1020 1020 
1020 1020 1020 1020 1020 1020 1020 1020 1020 
1020 1020 1020 1020 1020 1020 1020 1020 1020 
1020 1020 1020 1020 1020 1020 1020 1020 1020 
1020 1020 1020 1020 1020 1020 1020 1020 1020 
1020 1020 1020 1020 1020 1020 1020 1020 1020 
1020 1020 1020 1020 1020 1020 1020 1020 1020 
1020 1020 1020 1020 1020 1020 1020 1020 1020 
1020 1020 1020 1020 1020 1020 1020 1020 1020 
1020 1020 1020 1020 1020 1020 1020 1020 1020 
1020 1020 1020 1020 1020 1020 1020 1020 1020 
1020 1020 1020 1020 1020 1020 1020 1020 1020 
1020 1020 1020 1020 1020 1020 1020 1020 1020 
1020 1020 1020 1020 1020 1020 1020 1020 1020 
1020 1020 1020 1020 1020 1020 1020 1020 1020 
1020 1020 1020 1020 1020 1020 1020 1020 1020 
1020 1020 1020 1020 1020 1020 1020 1020 1020 
1020 1020 1020 1020 1020 1020 1020 1020 1020 
1020 1020 1020 1020 1020 1020 1020 1020 1020 
1020 1020 1020 1020 1020 1020 1020 1020 1020 
1020 1020 1020 1020 1020 1020 1020 1020 1020 
1020 1020 1020 1020 1020 1020 1020 1020 1020 
1020 1020 1020 1020 1020 1020 1020 1020 1020 
1020 1020 1020 1020 1020 1020 1020 1020 1020 
1020 1020 1020 1020 1020 1020 1020 1020 1020 
1020 1020 1020 1020 1020 1020 1020 1020 1020 
1020 1020 1020 1020 1020 1020 1020 1020 1020 
1020 1020 1020 1020 1020 1020 1020 1020 1020 
1020 1020 1020 1020 1020 1020 1020 1020 1020 
1020 1020 1020 1020 1020 1020 1020 1020 1020 
1020 1020 1020 1020 1020 1020 1020 1020 1020 
1020 1020 1020 1020 1020 1020 1020 1020 1020 
1020 1020 1020 1020 1020 1020 1020 1020 1020 
1020 1020 1020 1020 1020 1020 1020 1020 1020 
1020 1020 1020 1020 1020 1020 1020 1020 1020 
1020 1020 1020 1020 1020 1020 1020 1020 1020 
1020 1020 1020 1020 1020 1020 1020 1020 1020 
1020 1020 1020 1020 1020 1020 1020 1020 1020 
1020 1020 1020 1020 1020 1020 1020 1020 1020 
1020 1020 1020 1020 1020 1020 1020 1020 1020 
1020 1020 1020 1020 1020 1020 1020 1020 1020 
1020 1020 1020 1020 1020 1020 1020 1020 1020 
1020 1020 1020 1020 1020 1020 1020 1020 1020 
1020 1020 1020 1020 1020 1020 1020 1020 1020 
1020 1020 1020 1020 1020 1020 1020 1020 1020 
1020 1020 1020 1020 1020 1020 1020 1020 1020 
1020 1020 1020 1020 1020 1020 1020 1020 1020 
1020 1020 1020 1020 1020 1020 1020 1020 1020 
1020 1020 1020 1020 1020 1020 1020 1020 1020 
1020 1020 1020 1020 1020 1020 1020 1020 1020 
1020 1020 1020 1020 1020 1020 1020 1020 1020 
1020 1020 1020 1020 1020 1020 1020 1020 1020 
1020 1020 1020 1020 1020 1020 1020 1020 1020 
1020 1020 1020 1020 1020 1020 1020 1020 1020 
1020 1020 1020 1020 1020 1020 1020 1020 1020 
1020 1020 1020 1020 1020 1020 1020 1020 1020 
1020 1020 1020 1020 1020 1020 1020 1020 1020 
1020 1020 1020 1020 1020 1020 1020 1020 1020 
1020 1020 1020 1020 1020 1020 1020 1020 1020 
1020 1020 1020 1020 1020 1020 1020 1020 1020 
1020 1020 1020 1020 1020 1020 1020 1020 1020 
1020 1020 1020 1020 1020 1020 1020 1020 1020 
1020 1020 1020 1020 1020 1020 1020 1020 1020 
1020 1020 1020 1020 1020 1020 1020 1020 1020 
1020 1020 1020 1020 1020 1020 1020 1020 1020 
1020 1020 1020 1020 1020 1020 1020 1020 1020 
1020 1020 1020 1020 1020 1020 1020 1020 1020 
1020 1020 1020 1020 1020 1020 1020 1020 1020 
1020 1020 1020 1020 1020 1020 1020 1020 1020 
1020 1020 1020 1020 1020 1020 1020 1020 1020 
1020 1020 1020 1020 1020 1020 1020 1020 1020 
1020 1020 1020 1020 1020 1020 1020 1020 1020 
1020 1020 1020 1020 1020 1020 1020 1020 1020 
1020 1020 1020 1020 1020 1020 1020 1020 1020 
1020 1020 1020 1020 1020 1020 1020 1020 1020 
1020 1020 1020 1020 1020 1020 1020 1020 1020 
1020 1020 1020 1020 1020 1020 1020 1020 1020 
1020 1020 1020 1020 1020 1020 1020 1020 1020 
1020 1020 1020 1020 1020 1020 1020 1020 1020 
1020 1020 1020 1020 1020 1020 1020 1020 1020 
1020 1020 1020 1020 1020 1020 1020 1020 1020 
1020 1020 1020 1020 1020 1020 1020 1020 1020 
1020 1020 1020 1020 1020 1020 1020 1020 1020 
1020 1020 1020 1020 1020 1020 1020 1020 1020 
1020 1020 1020 1020 1020 1020 1020 1020 1020 
1020 1020 1020 1020 1020 1020 1020 1020 1020 
1020 1020 1020 1020 1020 1020 1020 1020 1020 
1020 1020 1020 1020 1020 1020 1020 1020 1020 
1020 1020 1020 1020 1020 1020 1020 1020 1020 
1020 1020 1020 1020 1020 1020 1020 1020 1020 
1020 1020 1020 1020 1020 1020 1020 1020 1020 
1020 1020 1020 1020 1020 1020 1020 1020 1020 
1020 1020 1020 1020 1020 1020 1020 1020 1020 
1020 1020 1020 1020 1020 1020 1020 1020 1020 
1020 1020 1020 1020 1020 1020 1020 1020 1020 
1020 1020 1020 1020 1020 1020 1020 1020 1020 
1020 1020 1020 1020 1020 1020 1020 1020 1020 
1020 1020 1020 1020 1020 1020 1020 1020 1020 
1020 1020 1020 1020 1020 1020 1020 1020 1020 
1020 1020 1020 1020 1020 1020 1020 1020 1020 
1020 1020 1020 1020 1020 1020 1020 1020 1020 
1020 1020 1020 1020 1020 1020 1020 1020 1020 
1020 1020 1020 1020 1020 1020 1020 1020 1020 
1020 1020 1020 1020 1020 1020 1020 1020 1020 
1020 1020 1020 1020 1020 1020 1020 1020 1020 
1020 1020 1020 1020 1020 1020 1020 1020 1020 
1020 1020 1020 1020 1020 1020 1020 1020 1020 
1020 1020 1020 1020 1020 1020 1020 1020 1020 
1020 1020 1020 1020 1020 1020 1020 1020 1020 
1020 1020 1020 1020 1020 1020 1020 1020 1020 
1020 1020 1020 1020 1020 1020 1020 1020 1020 
1020 1020 1020 1020 1020 1020 1020 1020 1020 
1020 1020 1020 1020 1020 1020 1020 1020 1020 
1020 1020 1020 1020 1020 1020 1020 1020 1020 
1020 1020 1020 1020 1020 1020 1020 1020 1020 
1020 1020 1020 1020 1020 1020 1020 1020 1020 
1020 1020 1020 1020 1020 1020 1020 1020 1020 
1020 1020 1020 1020 1020 1020 1020 1020 1020 
1020 1020 1020 1020 1020 1020 1020 1020 1020 
1020 1020 1020 1020 1020 1020 1020 1020 1020 
1020 1020 1020 1020 1020 1020 1020 1020 1020 
1020 1020 1020 1020 1020 1020 1020 1020 1020 
1020 1020 1020 1020 1020 1020 1020 1020 1020 
1020 1020 1020 1020 1020 1020 1020 1020 1020 
1020 1020 1020 1020 1020 1020 1020 1020 1020 
1020 1020 1020 1020 1020 1020 1020 1020 1020 
1020 1020 1020 1020 1020 1020 1020 1020 1020 
1020 1020 1020 1020 1020 1020 1020 1020 1020 
1020 1020 1020 1020 1020 1020 1020 1020 1020 
1020 1020 1020 1020 1020 1020 1020 1020 1020 
1020 1020 1020 1020 1020 1020 1020 1020 1020 
1020 1020 1020 1020 1020 1020 1020 1020 1020 
1020 1020 1020 1020 1020 1020 1020 1020 1020 
1020 1020 1020 1020 1020 1020 1020 1020 1020 
1020 1020 1020 1020 1020 1020 1020 1020 1020 
1020 1020 1020 1020 1020 1020 1020 1020 1020 
1020 1020 1020 1020 1020 1020 1020 1020 1020 
1020 1020 1020 1020 1020 1020 1020 1020 1020 
1020 1020 1020 1020 1020 1020 1020 1020 1020 
1020 1020 1020 1020 1020 1020 1020 1020 1020 
1020 1020 1020 1020 1020 1020 1020 1020 1020 
1020 1020 1020 1020 1020 1020 1020 1020 1020 
1020 1020 1020 1020 1020 1020 1020 1020 1020 
1020 1020 1020 1020 1020 1020 1020 1020 1020 
1020 1020 1020 1020 1020 1020 1020 1020 1020 
1020 1020 1020 1020 1020 1020 1020 1020 1020 
1020 1020 1020 1020 1020 1020 1020 1020 1020 
1020 1020 1020 1020 1020 1020 1020 1020 1020 
1020 1020 1020 1020 1020 1020 1020 1020 1020 
1020 1020 1020 1020 1020 1020 1020 1020 1020 
1020 1020 1020 1020 1020 1020 1020 1020 1020 
1020 1020 1020 1020 1020 1020 1020 1020 1020 
1020 1020 1020 1020 1020 1020 1020 1020 1020 
1020 1020 1020 1020 1020 1020 1020 1020 1020 
1020 1020 1020 1020 1020 1020 1020 1020 1020 
1020 1020 1020 1020 1020 1020 1020 1020 1020 
1020 1020 1020 1020 1020 1020 1020 1020 1020 
1020 1020 1020 1020 1020 1020 1020 1020 1020 
1020 1020 1020 1020 1020 1020 1020 1020 1020 
1020 1020 1020 1020 1020 1020 1020 1020 1020 
1020 1020 1020 1020 1020 1020 1020 1020 1020 
1020 1020 1020 1020 1020 1020 1020 1020 1020 
1020 1020 1020 1020 1020 1020 1020 1020 1020 
1020 1020 1020 1020 1020 1020 1020 1020 1020 
1020 1020 1020 1020 1020 1020 1020 1020 1020 
1020 1020 1020 1020 1020 1020 1020 1020 1020 
1020 1020 1020 1020 1020 1020 1020 1020 1020 
1020 1020 1020 1020 1020 1020 1020 1020 1020 
1020 1020 1020 1020 1020 1020 1020 1020 1020 
1020 1020 1020 1020 1020 1020 1020 1020 1020 
1020 1020 1020 1020 1020 1020 1020 1020 1020 
1020 1020 1020 1020 1020 1020 1020 1020 1020 
1020 1020 1020 1020 1020 1020 1020 1020 1020 
1020 1020 1020 1020 1020 1020 1020 1020 1020 
1020 1020 1020 1020 1020 1020 1020 1020 1020 
1020 1020 1020 1020 1020 1020 1020 1020 1020 
1020 1020 1020 1020 1020 1020 1020 1020 1020 
1020 1020 1020 1020 1020 1020 1020 1020 1020 
1020 1020 1020 1020 1020 1020 1020 1020 1020 
1020 1020 1020 1020 1020 1020 1020 1020 1020 
1020 1020 1020 1020 1020 1020 1020 1020 1020 
1020 1020 1020 1020 1020 1020 1020 1020 1020 
1020 1020 1020 1020 1020 1020 1020 1020 1020 
1020 1020 1020 1020 1020 1020 1020 1020 1020 
1020 1020 1020 1020 1020 1020 1020 1020 1020 
1020 1020 1020 1020 1020 1020 1020 1020 1020 
1020 1020 1020 1020 1020 1020 1020 1020 1020 
1020 1020 1020 1020 1020 1020 1020 1020 1020 
1020 1020 1020 1020 1020 1020 1020 1020 1020 
1020 1020 1020 1020 1020 1020 1020 1020 1020 
1020 1020 1020 1020 1020 1020 1020 1020 1020 
1020 1020 1020 1020 1020 1020 1020 1020 1020 
1020 1020 1020 1020 1020 1020 1020 1020 1020 
1020 1020 1020 1020 1020 1020 1020 1020 1020 
1020 1020 1020 1020 1020 1020 1020 1020 1020 
1020 1020 1020 1020 1020 1020 1020 1020 1020 
1020 1020 1020 1020 1020 1020 1020 1020 1020 
1020 1020 1020 1020 1020 1020 1020 1020 1020 
1020 1020 1020 1020 1020 1020 1020 1020 1020 
1020 1020 1020 1020 1020 1020 1020 1020 1020 
1020 1020 1020 1020 1020 1020 1020 1020 1020 
1020 1020 1020 1020 1020 1020 1020 1020 1020 
1020 1020 1020 1020 1020 1020 1020 1020 1020 
1020 1020 1020 1020 1020 1020 1020 1020 1020 
1020 1020 1020 1020 1020 1020 1020 1020 1020 
1020 1020 1020 1020 1020 1020 1020 1020 1020 
1020 1020 1020 1020 1020 1020 1020 1020 1020 
1020 1020 1020 1020 1020 1020 1020 1020 1020 
1020 1020 1020 1020 1020 1020 1020 1020 1020 
1020 1020 1020 1020 1020 1020 1020 1020 1020 
1020 1020 1020 1020 1020 1020 1020 1020 1020 
1020 1020 1020 1020 1020 1020 1020 1020 1020 
1020 1020 1020 1020 1020 1020 1020 1020 1020 
1020 1020 1020 1020 1020 1020 1020 1020 1020 
1020 1020 1020 1020 1020 1020 1020 1020 1020 
1020 1020 1020 1020 1020 1020 1020 1020 1020 
1020 1020 1020 1020 1020 1020 1020 1020 1020 
1020 1020 1020 1020 1020 1020 1020 1020 1020 
1020 1020 1020 1020 1020 1020 1020 1020 1020 
1020 1020 1020 1020 1020 1020 1020 1020 1020 
1020 1020 1020 1020 1020 1020 1020 1020 1020 
1020 1020 1020 1020 1020 1020 1020 1020 1020 
1020 1020 1020 1020 1020 1020 1020 1020 1020 
1020 1020 1020 1020 1020 1020 1020 1020 1020 
1020 1020 1020 1020 1020 1020 1020 1020 1020 
1020 1020 1020 1020 1020 1020 1020 1020 1020 
1020 1020 1020 1020 1020 1020 1020 1020 1020 
1020 1020 1020 1020 1020 1020 1020 1020 1020 
1020 1020 1020 1020 1020 1020 1020 1020 1020 
1020 1020 1020 1020 1020 1020 1020 1020 1020 
1020 1020 1020 1020 1020 1020 1020 1020 1020 
1020 1020 1020 1020 1020 1020 1020 1020 1020 
1020 1020 1020 1020 1020 1020 1020 1020 1020 
1020 1020 1020 1020 1020 1020 1020 1020 1020 
1020 1020 1020 1020 1020 1020 1020 1020 1020 
1020 1020 1020 1020 1020 1020 1020 1020 1020 
1020 1020 1020 1020 1020 1020 1020 1020 1020 
1020 1020 1020 1020 1020 1020 1020 1020 1020 
1020 1020 1020 1020 1020 1020 1020 1020 1020 
1020 1020 1020 1020 1020 1020 1020 1020 1020 
1020 1020 1020 1020 1020 1020 1020 1020 1020 
1020 1020 1020 1020 1020 1020 1020 1020 1020 
1020 1020 1020 1020 1020 1020 1020 1020 1020 
1020 1020 1020 1020 1020 1020 1020 1020 1020 
1020 1020 1020 1020 1020 1020 1020 1020 1020 
1020 1020 1020 1020 1020 1020 1020 1020 1020 
1020 1020 1020 1020 1020 1020 1020 1020 1020 
1020 1020 1020 1020 1020 1020 1020 1020 1020 
1020 1020 1020 1020 1020 1020 1020 1020 1020 
1020 1020 1020 1020 1020 1020 1020 1020 1020 
1020 1020 1020 1020 1020 1020 1020 1020 1020 
1020 1020 1020 1020 1020 1020 1020 1020 1020 
1020 1020 1020 1020 1020 1020 1020 1020 1020 
1020 1020 1020 1020 1020 1020 1020 1020 1020 
1020 1020 1020 1020 1020 1020 1020 1020 1020 
1020 1020 1020 1020 1020 1020 1020 1020 1020 
1020 1020 1020 1020 1020 1020 1020 1020 1020 
1020 1020 1020 1020 1020 1020 1020 1020 1020 
1020 1020 1020 1020 1020 1020 1020 1020 1020 
1020 1020 1020 1020 1020 1020 1020 1020 1020 
1020 1020 1020 1020 1020 1020 1020 1020 1020 
1020 1020 1020 1020 1020 1020 1020 1020 1020 
1020 1020 1020 1020 1020 1020 1020 1020 1020 
1020 1020 1020 1020 1020 1020 1020 1020 1020 
1020 1020 1020 1020 1020 1020 1020 1020 1020 
1020 1020 1020 1020 1020 1020 1020 1020 1020 
1020 1020 1020 1020 1020 1020 1020 1020 1020 
1020 1020 1020 1020 1020 1020 1020 1020 1020 
1020 1020 1020 1020 1020 1020 1020 1020 1020 
1020 1020 1020 1020 1020 1020 1020 1020 1020 
1020 1020 1020 1020 1020 1020 1020 1020 1020 
1020 1020 1020 1020 1020 1020 1020 1020 1020 
1020 1020 1020 1020 1020 1020 1020 1020 1020 
1020 1020 1020 1020 1020 1020 1020 1020 1020 
1020 1020 1020 1020 1020 1020 1020 1020 1020 
1020 1020 1020 1020 1020 1020 1020 1020 1020 
1020 1020 1020 1020 1020 1020 1020 1020 1020 
1020 1020 1020 1020 1020 1020 1020 1020 1020 
1020 1020 1020 1020 1020 1020 1020 1020 1020 
1020 1020 1020 1020 1020 1020 1020 1020 1020 
1020 1020 1020 1020 1020 1020 1020 1020 1020 
1020 1020 1020 1020 1020 1020 1020 1020 1020 
1020 1020 1020 1020 1020 1020 1020 1020 1020 
1020 1020 1020 1020 1020 1020 1020 1020 1020 
1020 1020 1020 1020 1020 1020 1020 1020 1020 
1020 1020 1020 1020 1020 1020 1020 1020 1020 
1020 1020 1020 1020 1020 1020 1020 1020 1020 
1020 1020 1020 1020 1020 1020 1020 1020 1020 
1020 1020 1020 1020 1020 1020 1020 1020 1020 
1020 1020 1020 1020 1020 1020 1020 1020 1020 
1020 1020 1020 1020 1020 1020 1020 1020 1020 
1020 1020 1020 1020 1020 1020 1020 1020 1020 
1020 1020 1020 1020 1020 1020 1020 1020 1020 
1020 1020 1020 1020 1020 1020 1020 1020 1020 
1020 1020 1020 1020 1020 1020 1020 1020 1020 
1020 1020 1020 1020 1020 1020 1020 1020 1020 
1020 1020 1020 1020 1020 1020 1020 1020 1020 