# vtk DataFile Version 4.2
vtk output
ASCII
DATASET POLYDATA
POINTS 16774 float
-46.0538 0.518698 -30.2243 -46.2442 0.770762 -30.516 -46.6414 0.520347 -30.6124 
-45.5115 0.367044 -30.2103 -45.6836 0.895989 -30.5908 -44.9636 0.488666 -30.7514 
-45.9636 0.0134255 -30.3657 -45.272 -0.067566 -30.5306 -45.1959 2.9509 -31.4383 
-45.6833 2.32629 -31.5062 -44.9933 2.38552 -31.1191 -44.3272 2.29938 -31.1457 
-44.375 3.08478 -31.6143 -43.7886 2.50369 -31.5695 -47.1484 1.19345 -31.1436 
-47.3371 1.65158 -31.5786 -47.7863 1.38032 -31.5775 -46.8495 1.68075 -31.6661 
-45.1637 1.46692 -30.9982 -45.8561 1.48178 -31.2613 -44.5555 1.71766 -31.0566 
-43.8105 1.67606 -31.5224 -47.3062 0.460974 -30.9832 -47.854 0.165318 -31.5888 
-46.4174 1.14221 -31.1035 -44.3973 0.946915 -31.513 -44.68 0.3308 -31.3952 
-47.3519 -0.320142 -31.1702 -47.6558 -0.78052 -31.7124 -46.619 -0.34458 -30.8969 
-45.6214 -0.560799 -30.9612 -44.9094 -0.383419 -31.4845 -47.0077 -0.989613 -31.6107 
-46.1528 -0.924437 -31.4417 -45.4091 -1.0843 -31.7277 -45.2262 3.3805 -31.9661 
-45.4752 3.91112 -32.7538 -45.9325 3.41362 -32.419 -44.3741 3.62866 -32.038 
-44.5985 3.85217 -32.5129 -43.9542 3.38264 -32.4961 -48.1195 2.30344 -32.1559 
-48.3231 2.67042 -32.4724 -48.5181 2.33026 -32.3776 -48.0865 2.48768 -32.6465 
-46.3388 2.51941 -32.1104 -46.41 3.10084 -32.6665 -46.755 2.64083 -32.7665 
-43.245 2.17195 -32.0078 -43.305 2.94293 -32.3891 -42.7022 2.48846 -32.6189 
-48.4018 1.73455 -32.031 -48.8724 1.49987 -32.6146 -47.3813 2.12684 -32.4379 
-46.2779 1.74427 -31.6583 -43.251 1.5493 -32.0256 -42.7682 1.74948 -32.4684 
-48.3649 0.839119 -32.0133 -48.7664 0.632727 -32.4652 -44.7259 0.415583 -32.2595 
-44.241 0.90331 -32.6565 -43.2857 1.12428 -32.446 -48.5145 0.0814679 -32.4796 
-48.0623 -0.629573 -32.3114 -44.6322 -0.548111 -32.7072 -47.4623 -1.3806 -32.0878 
-47.8639 -1.38986 -32.463 -46.9518 -1.46895 -32.3063 -46.1658 -1.29852 -32.1286 
-45.4268 -1.50205 -32.2617 -45.7886 -1.57418 -32.4949 -44.9282 -1.45125 -32.4407 
-47.2458 -1.81996 -32.8191 -45.4672 -1.97155 -32.8077 -46.1633 3.64291 -32.9427 
-46.0219 3.89732 -33.6971 -46.6017 3.24411 -33.3244 -45.0673 3.97535 -33.2856 
-44.5386 3.46856 -32.9314 -44.9524 3.53576 -33.5913 -48.5504 2.35632 -32.8577 
-47.015 2.58982 -33.4432 -45.2887 2.94996 -33.7849 -45.0431 2.73887 -33.1496 
-45.6188 2.25552 -33.3986 -44.3504 2.54222 -33.12 -43.2968 2.96829 -33.5112 
-43.9165 2.54051 -33.5656 -42.1769 2.16569 -33.0743 -42.4448 2.84876 -33.2958 
-41.9059 2.51222 -33.741 -49.3963 1.39674 -33.1077 -49.2189 1.82788 -33.4999 
-49.6509 1.24197 -33.5026 -48.3318 2.20221 -33.5237 -47.5212 2.2158 -33.5448 
-45.0621 1.42579 -33.1188 -45.9119 1.60194 -33.6679 -44.6297 1.46823 -33.5491 
-44.3335 2.05354 -33.8117 -42.3746 1.44053 -32.972 -41.9406 1.78264 -33.5864 
-49.2564 0.709325 -32.9896 -49.6883 0.446674 -33.8379 -45.3897 0.970421 -33.7371 
-44.8365 0.425232 -33.1824 -44.1983 0.923715 -33.5977 -43.4666 0.91214 -33.338 
-42.5775 1.14843 -33.5738 -49.0955 -0.0951761 -33.2937 -48.5092 -0.54538 -32.9659 
-48.9066 -0.900371 -33.6797 -44.3816 -0.164822 -33.3283 -44.299 -0.767474 -33.2608 
-44.0629 -0.310055 -33.7635 -48.3379 -1.22723 -33.0536 -48.6505 -1.77068 -33.7845 
-46.3189 -1.69634 -32.7275 -44.6034 -1.42124 -33.2838 -44.2723 -1.00064 -33.8545 
-48.0123 -1.98355 -33.3344 -47.2011 -2.22411 -33.5187 -46.0684 -2.2427 -33.5373 
-45.4368 -2.54798 -33.2772 -45.5657 -2.6375 -33.5243 -45.0301 -2.24884 -33.3654 
-45.3069 -2.72035 -33.5039 -52.3184 3.4409 -34.3222 -52.25 3.84602 -34.6872 
-52.6267 3.46838 -34.4115 -51.9044 3.51808 -34.5971 -46.3113 3.92579 -34.8706 
-46.8639 3.32116 -34.2156 -45.3633 3.94756 -34.2738 -45.0188 3.52408 -34.5207 
-52.4483 3.19759 -34.6305 -47.9736 2.42704 -34.1462 -48.4042 2.76934 -34.6225 
-48.7282 2.38379 -34.381 -47.3206 2.60266 -34.0546 -47.6388 3.00739 -34.5554 
-45.8812 2.31402 -34.129 -45.2509 2.99561 -34.7439 -43.1231 2.9449 -34.8166 
-43.8049 2.53988 -34.2581 -42.3314 2.93009 -34.2808 -41.9126 2.34942 -34.4737 
-49.4088 2.07432 -34.4958 -49.739 1.36704 -34.2523 -46.397 1.89446 -34.7396 
-46.3395 1.61995 -34.1454 -46.6343 1.1885 -34.6819 -44.357 1.99607 -34.7605 
-44.7144 1.39824 -34.2876 -42.0988 1.60587 -34.0946 -42.5436 1.36945 -34.424 
-42.1772 1.91889 -34.8447 -49.8364 0.687015 -34.6887 -46.0578 1.01341 -34.4615 
-45.2318 1.02634 -34.5319 -44.5604 0.620114 -33.8336 -43.8815 0.325335 -34.2885 
-43.2832 0.941168 -34.4842 -49.4124 -0.3806 -33.9348 -49.6942 -0.439609 -34.7264 
-44.0025 -0.37177 -34.4626 -49.3085 -0.968282 -34.3399 -49.0732 -1.63994 -34.389 
-44.7936 -1.66622 -34.4586 -44.3792 -0.855062 -34.6092 -48.3769 -2.40629 -34.0089 
-48.8085 -2.30836 -34.382 -47.6454 -2.56297 -34.0013 -46.6513 -2.52347 -34.0868 
-45.876 -2.43964 -34.3746 -45.3588 -2.25288 -34.5124 -45.3495 -2.41149 -33.8683 
-48.3218 -2.9432 -34.652 -47.0625 -3.02467 -34.5053 -46.1908 -2.81683 -34.5816 
-41.2874 10.4296 -35.2864 -41.4497 10.7175 -35.4442 -41.5841 10.2989 -35.4503 
-40.8878 10.3772 -35.6598 -41.2215 10.0067 -35.5351 -54.0258 4.44483 -35.1888 
-54.2265 5.01644 -35.724 -54.6659 4.66886 -35.6893 -53.1783 4.4599 -35.0583 
-53.5204 4.82371 -35.4269 -52.559 4.32281 -35.0161 -52.6678 4.9424 -35.6038 
-51.9202 4.55844 -35.3724 -54.4588 3.95086 -35.5732 -53.8106 3.29594 -35.5009 
-53.2426 3.73186 -34.9123 -51.3063 3.21049 -34.9677 -51.4456 3.98481 -35.1609 
-50.0704 3.33449 -35.1302 -50.598 3.99038 -35.4453 -49.1731 3.48383 -35.1671 
-49.6046 3.99495 -35.4959 -48.2258 3.36984 -35.0421 -48.4622 3.98603 -35.6193 
-47.238 3.57591 -34.9096 -47.191 3.91488 -35.5671 -46.2541 4.02086 -35.6231 
-45.4732 3.86222 -35.3896 -45.0221 3.42391 -35.3265 -53.0971 2.8999 -35.2485 
-52.2707 2.63517 -35.0875 -52.7624 2.27775 -35.5197 -51.465 2.46038 -35.1549 
-50.3757 2.45027 -35.1294 -49.2652 2.80392 -34.8566 -45.7913 2.61477 -35.3757 
-45.2699 3.16875 -35.631 -43.2684 2.91931 -35.7597 -43.8305 2.5601 -35.3158 
-42.4509 2.89552 -35.4188 -42.049 2.47271 -35.3355 -52.0286 2.01513 -35.4882 
-51.0356 1.98104 -35.6844 -50.3883 2.0121 -35.6413 -49.9312 1.56721 -35.3809 
-46.7287 1.42983 -35.2708 -46.3538 1.98064 -35.7292 -44.3671 2.03989 -35.8241 
-44.8687 1.46967 -35.2554 -42.7302 1.62353 -35.4346 -42.3069 2.21871 -35.6581 
-49.804 0.512294 -35.5361 -46.4794 0.602771 -34.9964 -46.8397 0.639555 -35.5141 
-46.0446 0.542858 -35.3535 -45.4595 0.957309 -35.5779 -43.8266 0.273204 -35.3759 
-43.2829 1.02909 -35.7792 -49.9287 -0.549922 -35.7518 -46.4574 0.18076 -35.6793 
-44.2455 -0.327311 -35.1161 -44.5646 -0.757403 -35.2964 -44.2834 -0.214988 -35.7004 
-49.4363 -1.44304 -34.8297 -49.7101 -1.52521 -35.413 -44.6654 -1.36536 -35.5219 
-49.252 -2.28836 -35.022 -49.6713 -2.58904 -35.868 -45.4563 -2.83857 -34.9599 
-44.8145 -2.38366 -35.4956 -49.0951 -3.07864 -35.3672 -48.3059 -3.61041 -35.1429 
-48.7862 -3.68072 -35.5592 -47.3309 -3.6554 -34.8579 -46.2627 -3.4006 -34.8405 
-45.5312 -3.75553 -35.1963 -44.9907 -3.46985 -35.6374 -48.2063 -4.11534 -35.4344 
-47.7306 -4.70053 -35.5359 -47.5069 -4.2877 -35.1771 -46.4431 -4.32298 -35.1287 
-45.6373 -4.64817 -35.6579 -45.1825 -4.15118 -35.6517 -46.9728 -5.00547 -35.4689 
-46.2507 -5.09458 -35.5921 -42.0582 12.3423 -36.2212 -42.3218 12.7151 -36.4889 
-42.5854 12.2712 -36.5341 -42.0629 12.5259 -36.6508 -42.309 11.7377 -36.1042 
-42.7176 11.4 -36.4684 -41.5112 12.11 -36.604 -41.2471 11.3668 -35.8876 
-40.2322 11.2325 -36.1404 -40.6066 11.939 -36.6007 -39.9231 11.6474 -36.7168 
-42.1206 10.6376 -35.9133 -42.8575 10.3686 -36.5813 -40.3655 10.6572 -35.9827 
-39.9004 10.748 -36.5708 -42.353 9.66367 -36.2212 -42.7056 9.49854 -36.4909 
-41.6378 9.59163 -35.975 -40.909 9.58306 -36.2138 -40.3051 10.0152 -36.6046 
-44.1006 8.53164 -36.2316 -44.2695 8.88492 -36.4034 -44.5629 8.46879 -36.5362 
-43.5574 8.38097 -36.2559 -43.7132 8.89975 -36.3951 -42.1019 8.97097 -36.6735 
-43.089 8.59416 -36.4849 -41.2777 9.09119 -36.6962 -43.9674 7.98148 -36.5906 
-43.0809 8.11551 -36.7189 -54.2228 5.45026 -36.2522 -54.3367 5.61375 -36.5081 
-54.5698 5.23253 -36.3646 -54.0759 5.55332 -36.5158 -51.9254 5.35977 -36.0349 
-52.1703 5.85563 -36.5688 -52.7295 5.67856 -36.5296 -51.1008 5.28256 -36.1929 
-51.6427 5.78119 -36.5604 -51.0654 5.49163 -36.6572 -54.9975 4.46497 -36.3474 
-53.6422 5.29964 -36.4363 -51.2021 4.67343 -35.7485 -50.3313 5.09954 -36.7201 
-50.2124 4.66185 -35.9843 -49.0788 4.51075 -35.9949 -49.2934 4.91151 -36.6157 
-48.2718 4.4526 -36.178 -48.3527 4.82158 -36.6493 -47.7179 4.63457 -36.6979 
-55.0809 3.54929 -36.1685 -55.5798 3.93676 -36.5598 -55.6486 3.3593 -36.5711 
-54.3248 3.24214 -35.8437 -47.5087 4.24629 -36.2755 -46.2821 4.04844 -36.3187 
-45.3656 3.58657 -35.9785 -45.7079 3.52572 -36.5627 -55.2032 2.91774 -36.4444 
-54.7716 2.30939 -36.5569 -54.4064 2.60099 -36.1858 -53.5086 2.50129 -35.8117 
-45.8927 2.64667 -36.5305 -43.0096 2.81329 -36.3388 -43.7608 2.58807 -36.2757 
-42.3845 2.65229 -36.0034 -42.8037 2.22768 -36.564 -54.1527 1.85849 -36.4453 
-53.6948 1.25885 -36.5435 -53.5213 1.71847 -36.1936 -52.6212 1.60024 -35.9677 
-51.6236 1.47645 -36.0769 -50.8638 1.58051 -36.3731 -50.3387 1.73958 -36.2123 
-49.9331 1.17926 -36.5688 -46.7335 1.31516 -36.1588 -46.2965 1.96346 -36.7944 
-44.1708 2.06587 -36.8758 -44.8737 1.39224 -36.4562 -42.9003 1.42532 -36.5373 
-52.9813 0.979273 -36.4663 -52.034 0.941847 -36.6618 -51.0773 1.2124 -36.8264 
-49.9187 0.330813 -36.3265 -47.0093 0.53442 -36.479 -45.2733 0.822311 -36.6075 
-45.7437 0.310914 -36.4367 -43.6304 0.406522 -36.4514 -43.2255 0.902235 -36.5984 
-50.2292 -0.331521 -36.2335 -50.28 -0.0360056 -36.8485 -50.5481 -0.744393 -36.7455 
-47.0915 -0.23676 -36.1304 -47.6285 -0.815775 -36.6357 -47.3854 -0.120435 -36.763 
-46.4062 -0.218164 -36.4413 -46.7954 -0.707678 -36.6742 -44.3656 -0.78061 -35.9898 
-43.9932 -0.245696 -36.345 -50.267 -0.91947 -36.3175 -50.0304 -1.69859 -36.2799 
-47.3081 -0.955713 -36.5447 -44.3485 -1.70791 -36.0535 -43.8391 -1.16834 -36.6757 
-50.0084 -2.70514 -36.5299 -44.384 -2.58323 -36.1778 -43.8701 -2.17889 -36.5102 
[...]
CELL_DATA 33700
SCALARS scalars float
LOOKUP_TABLE default
2011 2011 2011 2011 2011 2011 2011 2011 2011 
2011 2011 2011 2011 2011 2011 2011 2011 2011 
2011 2011 2011 2011 2011 2011 2011 2011 2011 
2011 2011 2011 2011 2011 2011 2011 2011 2011 
2011 2011 2011 2011 2011 2011 2011 2011 2011 
2011 2011 2011 2011 2011 2011 2011 2011 2011 
2011 2011 2011 2011 2011 2011 2011 2011 2011 
2011 2011 2011 2011 2011 2011 2011 2011 2011 
2011 2011 2011 2011 2011 2011 2011 2011 2011 
2011 2011 2011 2011 2011 2011 2011 2011 2011 
2011 2011 2011 2011 2011 2011 2011 2011 2011 
2011 2011 2011 2011 2011 2011 2011 2011 2011 
2011 2011 2011 2011 2011 2011 2011 2011 2011 
2011 2011 2011 2011 2011 2011 2011 2011 2011 
2011 2011 2011 2011 2011 2011 2011 2011 2011 
2011 2011 2011 2011 2011 2011 2011 2011 2011 
2011 2011 2011 2011 2011 2011 2011 2011 2011 
2011 2011 2011 2011 2011 2011 2011 2011 2011 
2011 2011 2011 2011 2011 2011 2011 2011 2011 
2011 2011 2011 2011 2011 2011 2011 2011 2011 
2011 2011 2011 2011 2011 2011 2011 2011 2011 
2011 2011 2011 2011 2011 2011 2011 2011 2011 
2011 2011 2011 2011 2011 2011 2011 2011 2011 
2011 2011 2011 2011 2011 2011 2011 2011 2011 
2011 2011 2011 2011 2011 2011 2011 2011 2011 
2011 2011 2011 2011 2011 2011 2011 2011 2011 
2011 2011 2011 2011 2011 2011 2011 2011 2011 
2011 2011 2011 2011 2011 2011 2011 2011 2011 
2011 2011 2011 2011 2011 2011 2011 2011 2011 
2011 2011 2011 2011 2011 2011 2011 2011 2011 
2011 2011 2011 2011 2011 2011 2011 2011 2011 
2011 2011 2011 2011 2011 2011 2011 2011 2011 
2011 2011 2011 2011 2011 2011 2011 2011 2011 
2011 2011 2011 2011 2011 2011 2011 2011 2011 
2011 2011 2011 2011 2011 2011 2011 2011 2011 
2011 2011 2011 2011 2011 2011 2011 2011 2011 
2011 2011 2011 2011 2011 2011 2011 2011 2011 
2011 2011 2011 2011 2011 2011 2011 2011 2011 
2011 2011 2011 2011 2011 2011 2011 2011 2011 
2011 2011 2011 2011 2011 2011 2011 2011 2011 
2011 2011 2011 2011 2011 2011 2011 2011 2011 
2011 2011 2011 2011 2011 2011 2011 2011 2011 
2011 2011 2011 2011 2011 2011 2011 2011 2011 
2011 2011 2011 2011 2011 2011 2011 2011 2011 
2011 2011 2011 2011 2011 2011 2011 2011 2011 
2011 2011 2011 2011 2011 2011 2011 2011 2011 
2011 2011 2011 2011 2011 2011 2011 2011 2011 
2011 2011 2011 2011 2011 2011 2011 2011 2011 
2011 2011 2011 2011 2011 2011 2011 2011 2011 
2011 2011 2011 2011 2011 2011 2011 2011 2011 
2011 2011 2011 2011 2011 2011 2011 2011 2011 
2011 2011 2011 2011 2011 2011 2011 2011 2011 
2011 2011 2011 2011 2011 2011 2011 2011 2011 
2011 2011 2011 2011 2011 2011 2011 2011 2011 
2011 2011 2011 2011 2011 2011 2011 2011 2011 
2011 2011 2011 2011 2011 2011 2011 2011 2011 
2011 2011 2011 2011 2011 2011 2011 2011 2011 
2011 2011 2011 2011 2011 2011 2011 2011 2011 
2011 2011 2011 2011 2011 2011 2011 2011 2011 
2011 2011 2011 2011 2011 2011 2011 2011 2011 
2011 2011 2011 2011 2011 2011 2011 2011 2011 
2011 2011 2011 2011 2011 2011 2011 2011 2011 
2011 2011 2011 2011 2011 2011 2011 2011 2011 
2011 2011 2011 2011 2011 2011 2011 2011 2011 
2011 2011 2011 2011 2011 2011 2011 2011 2011 
2011 2011 2011 2011 2011 2011 2011 2011 2011 
2011 2011 2011 2011 2011 2011 2011 2011 2011 
2011 2011 2011 2011 2011 2011 2011 2011 2011 
2011 2011 2011 2011 2011 2011 2011 2011 2011 
2011 2011 2011 2011 2011 2011 2011 2011 2011 
2011 2011 2011 2011 2011 2011 2011 2011 2011 
2011 2011 2011 2011 2011 2011 2011 2011 2011 
2011 2011 2011 2011 2011 2011 2011 2011 2011 
2011 2011 2011 2011 2011 2011 2011 2011 2011 
2011 2011 2011 2011 2011 2011 2011 2011 2011 
2011 2011 2011 2011 2011 2011 2011 2011 2011 
2011 2011 2011 2011 2011 2011 2011 2011 2011 
2011 2011 2011 2011 2011 2011 2011 2011 2011 
2011 2011 2011 2011 2011 2011 2011 2011 2011 
2011 2011 2011 2011 2011 2011 2011 2011 2011 
2011 2011 2011 2011 2011 2011 2011 2011 2011 
2011 2011 2011 2011 2011 2011 2011 2011 2011 
2011 2011 2011 2011 2011 2011 2011 2011 2011 
2011 2011 2011 2011 2011 2011 2011 2011 2011 
2011 2011 2011 2011 2011 2011 2011 2011 2011 
2011 2011 2011 2011 2011 2011 2011 2011 2011 
2011 2011 2011 2011 2011 2011 2011 2011 2011 
2011 2011 2011 2011 2011 2011 2011 2011 2011 
2011 2011 2011 2011 2011 2011 2011 2011 2011 
2011 2011 2011 2011 2011 2011 2011 2011 2011 
2011 2011 2011 2011 2011 2011 2011 2011 2011 
2011 2011 2011 2011 2011 2011 2011 2011 2011 
2011 2011 2011 2011 2011 2011 2011 2011 2011 
2011 2011 2011 2011 2011 2011 2011 2011 2011 
2011 2011 2011 2011 2011 2011 2011 2011 2011 
2011 2011 2011 2011 2011 2011 2011 2011 2011 
2011 2011 2011 2011 2011 2011 2011 2011 2011 
2011 2011 2011 2011 2011 2011 2011 2011 2011 
2011 2011 2011 2011 2011 2011 2011 2011 2011 
2011 2011 2011 2011 2011 2011 2011 2011 2011 
2011 2011 2011 2011 2011 2011 2011 2011 2011 
2011 2011 2011 2011 2011 2011 2011 2011 2011 
2011 2011 2011 2011 2011 2011 2011 2011 2011 
2011 2011 2011 2011 2011 2011 2011 2011 2011 
2011 2011 2011 2011 2011 2011 2011 2011 2011 
2011 2011 2011 2011 2011 2011 2011 2011 2011 
2011 2011 2011 2011 2011 2011 2011 2011 2011 
2011 2011 2011 2011 2011 2011 2011 2011 2011 
2011 2011 2011 2011 2011 2011 2011 2011 2011 
2011 2011 2011 2011 2011 2011 2011 2011 2011 
2011 2011 2011 2011 2011 2011 2011 2011 2011 
2011 2011 2011 2011 2011 2011 2011 2011 2011 
2011 2011 2011 2011 2011 2011 2011 2011 2011 
2011 2011 2011 2011 2011 2011 2011 2011 2011 
2011 2011 2011 2011 2011 2011 2011 2011 2011 
2011 2011 2011 2011 2011 2011 2011 2011 2011 
2011 2011 2011 2011 2011 2011 2011 2011 2011 
2011 2011 2011 2011 2011 2011 2011 2011 2011 
2011 2011 2011 2011 2011 2011 2011 2011 2011 
2011 2011 2011 2011 2011 2011 2011 2011 2011 
2011 2011 2011 2011 2011 2011 2011 2011 2011 
2011 2011 2011 2011 2011 2011 2011 2011 2011 
2011 2011 2011 2011 2011 2011 2011 2011 2011 
2011 2011 2011 2011 2011 2011 2011 2011 2011 
2011 2011 2011 2011 2011 2011 2011 2011 2011 
2011 2011 2011 2011 2011 2011 2011 2011 2011 
2011 2011 2011 2011 2011 2011 2011 2011 2011 
2011 2011 2011 2011 2011 2011 2011 2011 2011 
2011 2011 2011 2011 2011 2011 2011 2011 2011 
2011 2011 2011 2011 2011 2011 2011 2011 2011 
2011 2011 2011 2011 2011 2011 2011 2011 2011 
2011 2011 2011 2011 2011 2011 2011 2011 2011 
2011 2011 2011 2011 2011 2011 2011 2011 2011 
2011 2011 2011 2011 2011 2011 2011 2011 2011 
2011 2011 2011 2011 2011 2011 2011 2011 2011 
2011 2011 2011 2011 2011 2011 2011 2011 2011 
2011 2011 2011 2011 2011 2011 2011 2011 2011 
2011 2011 2011 2011 2011 2011 2011 2011 2011 
2011 2011 2011 2011 2011 2011 2011 2011 2011 
2011 2011 2011 2011 2011 2011 2011 2011 2011 
2011 2011 2011 2011 2011 2011 2011 2011 2011 
2011 2011 2011 2011 2011 2011 2011 2011 2011 
2011 2011 2011 2011 2011 2011 2011 2011 2011 
2011 2011 2011 2011 2011 2011 2011 2011 2011 
2011 2011 2011 2011 2011 2011 2011 2011 2011 
2011 2011 2011 2011 2011 2011 2011 2011 2011 
2011 2011 2011 2011 2011 2011 2011 2011 2011 
2011 2011 2011 2011 2011 2011 2011 2011 2011 
2011 2011 2011 2011 2011 2011 2011 2011 2011 
2011 2011 2011 2011 2011 2011 2011 2011 2011 
2011 2011 2011 2011 2011 2011 2011 2011 2011 
2011 2011 2011 2011 2011 2011 2011 2011 2011 
2011 2011 2011 2011 2011 2011 2011 2011 2011 
2011 2011 2011 2011 2011 2011 2011 2011 2011 
2011 2011 2011 2011 2011 2011 2011 2011 2011 
2011 2011 2011 2011 2011 2011 2011 2011 2011 
2011 2011 2011 2011 2011 2011 2011 2011 2011 
2011 2011 2011 2011 2011 2011 2011 2011 2011 
2011 2011 2011 2011 2011 2011 2011 2011 2011 
2011 2011 2011 2011 2011 2011 2011 2011 2011 
2011 2011 2011 2011 2011 2011 2011 2011 2011 
2011 2011 2011 2011 2011 2011 2011 2011 2011 
2011 2011 2011 2011 2011 2011 2011 2011 2011 
2011 2011 2011 2011 2011 2011 2011 2011 2011 
2011 2011 2011 2011 2011 2011 2011 2011 2011 
2011 2011 2011 2011 2011 2011 2011 2011 2011 
2011 2011 2011 2011 2011 2011 2011 2011 2011 
2011 2011 2011 2011 2011 2011 2011 2011 2011 
2011 2011 2011 2011 2011 2011 2011 2011 2011 
2011 2011 2011 2011 2011 2011 2011 2011 2011 
2011 2011 2011 2011 2011 2011 2011 2011 2011 
2011 2011 2011 2011 2011 2011 2011 2011 2011 
2011 2011 2011 2011 2011 2011 2011 2011 2011 
2011 2011 2011 2011 2011 2011 2011 2011 2011 
2011 2011 2011 2011 2011 2011 2011 2011 2011 
2011 2011 2011 2011 2011 2011 2011 2011 2011 
2011 2011 2011 2011 2011 2011 2011 2011 2011 
2011 2011 2011 2011 2011 2011 2011 2011 2011 
2011 2011 2011 2011 2011 2011 2011 2011 2011 
2011 2011 2011 2011 2011 2011 2011 2011 2011 
2011 2011 2011 2011 2011 2011 2011 2011 2011 
2011 2011 2011 2011 2011 2011 2011 2011 2011 
2011 2011 2011 2011 2011 2011 2011 2011 2011 
2011 2011 2011 2011 2011 2011 2011 2011 2011 
2011 2011 2011 2011 2011 2011 2011 2011 2011 
2011 2011 2011 2011 2011 2011 2011 2011 2011 
2011 2011 2011 2011 2011 2011 2011 2011 2011 
2011 2011 2011 2011 2011 2011 2011 2011 2011 
2011 2011 2011 2011 2011 2011 2011 2011 2011 
2011 2011 2011 2011 2011 2011 2011 2011 2011 
2011 2011 2011 2011 2011 2011 2011 2011 2011 
2011 2011 2011 2011 2011 2011 2011 2011 2011 
2011 2011 2011 2011 2011 2011 2011 2011 2011 
2011 2011 2011 2011 2011 2011 2011 2011 2011 
2011 2011 2011 2011 2011 2011 2011 2011 2011 
2011 2011 2011 2011 2011 2011 2011 2011 2011 
2011 2011 2011 2011 2011 2011 2011 2011 2011 
2011 2011 2011 2011 2011 2011 2011 2011 2011 
2011 2011 2011 2011 2011 2011 2011 2011 2011 
2011 2011 2011 2011 2011 2011 2011 2011 2011 
2011 2011 2011 2011 2011 2011 2011 2011 2011 
2011 2011 2011 2011 2011 2011 2011 2011 2011 
2011 2011 2011 2011 2011 2011 2011 2011 2011 
2011 2011 2011 2011 2011 2011 2011 2011 2011 
2011 2011 2011 2011 2011 2011 2011 2011 2011 
2011 2011 2011 2011 2011 2011 2011 2011 2011 
2011 2011 2011 2011 2011 2011 2011 2011 2011 
2011 2011 2011 2011 2011 2011 2011 2011 2011 
2011 2011 2011 2011 2011 2011 2011 2011 2011 
2011 2011 2011 2011 2011 2011 2011 2011 2011 
2011 2011 2011 2011 2011 2011 2011 2011 2011 
2011 2011 2011 2011 2011 2011 2011 2011 2011 
2011 2011 2011 2011 2011 2011 2011 2011 2011 
2011 2011 2011 2011 2011 2011 2011 2011 2011 
2011 2011 2011 2011 2011 2011 2011 2011 2011 
2011 2011 2011 2011 2011 2011 2011 2011 2011 
2011 2011 2011 2011 2011 2011 2011 2011 2011 
2011 2011 2011 2011 2011 2011 2011 2011 2011 
2011 2011 2011 2011 2011 2011 2011 2011 2011 
2011 2011 2011 2011 2011 2011 2011 2011 2011 
2011 2011 2011 2011 2011 2011 2011 2011 2011 
2011 2011 2011 2011 2011 2011 2011 2011 2011 
2011 2011 2011 2011 2011 2011 2011 2011 2011 
2011 2011 2011 2011 2011 2011 2011 2011 2011 
2011 2011 2011 2011 2011 2011 2011 2011 2011 
2011 2011 2011 2011 2011 2011 2011 2011 2011 
2011 2011 2011 2011 2011 2011 2011 2011 2011 
2011 2011 2011 2011 2011 2011 2011 2011 2011 
2011 2011 2011 2011 2011 2011 2011 2011 2011 
2011 2011 2011 2011 2011 2011 2011 2011 2011 
2011 2011 2011 2011 2011 2011 2011 2011 2011 
2011 2011 2011 2011 2011 2011 2011 2011 2011 
2011 2011 2011 2011 2011 2011 2011 2011 2011 
2011 2011 2011 2011 2011 2011 2011 2011 2011 
2011 2011 2011 2011 2011 2011 2011 2011 2011 
2011 2011 2011 2011 2011 2011 2011 2011 2011 
2011 2011 2011 2011 2011 2011 2011 2011 2011 
2011 2011 2011 2011 2011 2011 2011 2011 2011 
2011 2011 2011 2011 2011 2011 2011 2011 2011 
2011 2011 2011 2011 2011 2011 2011 2011 2011 
2011 2011 2011 2011 2011 2011 2011 2011 2011 
2011 2011 2011 2011 2011 2011 2011 2011 2011 
2011 2011 2011 2011 2011 2011 2011 2011 2011 
2011 2011 2011 2011 2011 2011 2011 2011 2011 
2011 2011 2011 2011 2011 2011 2011 2011 2011 
2011 2011 2011 2011 2011 2011 2011 2011 2011 
2011 2011 2011 2011 2011 2011 2011 2011 2011 
2011 2011 2011 2011 2011 2011 2011 2011 2011 
2011 2011 2011 2011 2011 2011 2011 2011 2011 
2011 2011 2011 2011 2011 2011 2011 2011 2011 
2011 2011 2011 2011 2011 2011 2011 2011 2011 
2011 2011 2011 2011 2011 2011 2011 2011 2011 
2011 2011 2011 2011 2011 2011 2011 2011 2011 
2011 2011 2011 2011 2011 2011 2011 2011 2011 
2011 2011 2011 2011 2011 2011 2011 2011 2011 
2011 2011 2011 2011 2011 2011 2011 2011 2011 
2011 2011 2011 2011 2011 2011 2011 2011 2011 
2011 2011 2011 2011 2011 2011 2011 2011 2011 
2011 2011 2011 2011 2011 2011 2011 2011 2011 
2011 2011 2011 2011 2011 2011 2011 2011 2011 
2011 2011 2011 2011 2011 2011 2011 2011 2011 
2011 2011 2011 2011 2011 2011 2011 2011 2011 
2011 2011 2011 2011 2011 2011 2011 2011 2011 
2011 2011 2011 2011 2011 2011 2011 2011 2011 
2011 2011 2011 2011 2011 2011 2011 2011 2011 
2011 2011 2011 2011 2011 2011 2011 2011 2011 
2011 2011 2011 2011 2011 2011 2011 2011 2011 
2011 2011 2011 2011 2011 2011 2011 2011 2011 
2011 2011 2011 2011 2011 2011 2011 2011 2011 
2011 2011 2011 2011 2011 2011 2011 2011 2011 
2011 2011 2011 2011 2011 2011 2011 2011 2011 
2011 2011 2011 2011 2011 2011 2011 2011 2011 
2011 2011 2011 2011 2011 2011 2011 2011 2011 
2011 2011 2011 2011 2011 2011 2011 2011 2011 
2011 2011 2011 2011 2011 2011 2011 2011 2011 
2011 2011 2011 2011 2011 2011 2011 2011 2011 
2011 2011 2011 2011 2011 2011 2011 2011 2011 
2011 2011 2011 2011 2011 2011 2011 2011 2011 
2011 2011 2011 2011 2011 2011 2011 2011 2011 
2011 2011 2011 2011 2011 2011 2011 2011 2011 
2011 2011 2011 2011 2011 2011 2011 2011 2011 
2011 2011 2011 2011 2011 2011 2011 2011 2011 
2011 2011 2011 2011 2011 2011 2011 2011 2011 
2011 2011 2011 2011 2011 2011 2011 2011 2011 
2011 2011 2011 2011 2011 2011 2011 2011 2011 
2011 2011 2011 2011 2011 2011 2011 2011 2011 
2011 2011 2011 2011 2011 2011 2011 2011 2011 
2011 2011 2011 2011 2011 2011 2011 2011 2011 
2011 2011 2011 2011 2011 2011 2011 2011 2011 
2011 2011 2011 2011 2011 2011 2011 2011 2011 
2011 2011 2011 2011 2011 2011 2011 2011 2011 
2011 2011 2011 2011 2011 2011 2011 2011 2011 
2011 2011 2011 2011 2011 2011 2011 2011 2011 
2011 2011 2011 2011 2011 2011 2011 2011 2011 
2011 2011 2011 2011 2011 2011 2011 2011 2011 
2011 2011 2011 2011 2011 2011 2011 2011 2011 
2011 2011 2011 2011 2011 2011 2011 2011 2011 
2011 2011 2011 2011 2011 2011 2011 2011 2011 
2011 2011 2011 2011 2011 2011 2011 2011 2011 
2011 2011 2011 2011 2011 2011 2011 2011 2011 
2011 2011 2011 2011 2011 2011 2011 2011 2011 
2011 2011 2011 2011 2011 2011 2011 2011 2011 
2011 2011 2011 2011 2011 2011 2011 2011 2011 
2011 2011 2011 2011 2011 2011 2011 2011 2011 
2011 2011 2011 2011 2011 2011 2011 2011 2011 
2011 2011 2011 2011 2011 2011 2011 2011 2011 
2011 2011 2011 2011 2011 2011 2011 2011 2011 
2011 2011 2011 2011 2011 2011 2011 2011 2011 
2011 2011 2011 2011 2011 2011 2011 2011 2011 
2011 2011 2011 2011 2011 2011 2011 2011 2011 
2011 2011 2011 2011 2011 2011 2011 2011 2011 
2011 2011 2011 2011 2011 2011 2011 2011 2011 
2011 2011 2011 2011 2011 2011 2011 2011 2011 
2011 2011 2011 2011 2011 2011 2011 2011 2011 
2011 2011 2011 2011 2011 2011 2011 2011 2011 
2011 2011 2011 2011 2011 2011 2011 2011 2011 
2011 2011 2011 2011 2011 2011 2011 2011 2011 
2011 2011 2011 2011 2011 2011 2011 2011 2011 
2011 2011 2011 2011 2011 2011 2011 2011 2011 
2011 2011 2011 2011 2011 2011 2011 2011 2011 
2011 2011 2011 2011 2011 2011 2011 2011 2011 
2011 2011 2011 2011 2011 2011 2011 2011 2011 
2011 2011 2011 2011 2011 2011 2011 2011 2011 
2011 2011 2011 2011 2011 2011 2011 2011 2011 
2011 2011 2011 2011 2011 2011 2011 2011 2011 
2011 2011 2011 2011 2011 2011 2011 2011 2011 
2011 2011 2011 2011 2011 2011 2011 2011 2011 
2011 2011 2011 2011 2011 2011 2011 2011 2011 
2011 2011 2011 2011 2011 2011 2011 2011 2011 
2011 2011 2011 2011 2011 2011 2011 2011 2011 
2011 2011 2011 2011 2011 2011 2011 2011 2011 
2011 2011 2011 2011 2011 2011 2011 2011 2011 
2011 2011 2011 2011 2011 2011 2011 2011 2011 
2011 2011 2011 2011 2011 2011 2011 2011 2011 
2011 2011 2011 2011 2011 2011 2011 2011 2011 
2011 2011 2011 2011 2011 2011 2011 2011 2011 
2011 2011 2011 2011 2011 2011 2011 2011 2011 
2011 2011 2011 2011 2011 2011 2011 2011 2011 
2011 2011 2011 2011 2011 2011 2011 2011 2011 
2011 2011 2011 2011 2011 2011 2011 2011 2011 
2011 2011 2011 2011 2011 2011 2011 2011 2011 
2011 2011 2011 2011 2011 2011 2011 2011 2011 
2011 2011 2011 2011 2011 2011 2011 2011 2011 
2011 2011 2011 2011 2011 2011 2011 2011 2011 
2011 2011 2011 2011 2011 2011 2011 2011 2011 
2011 2011 2011 2011 2011 2011 2011 2011 2011 
2011 2011 2011 2011 2011 2011 2011 2011 2011 
2011 2011 2011 2011 2011 2011 2011 2011 2011 
2011 2011 2011 2011 2011 2011 2011 2011 2011 
2011 2011 2011 2011 2011 2011 2011 2011 2011 
2011 2011 2011 2011 2011 2011 2011 2011 2011 
2011 2011 2011 2011 2011 2011 2011 2011 2011 
2011 2011 2011 2011 2011 2011 2011 2011 2011 
2011 2011 2011 2011 2011 2011 2011 2011 2011 
2011 2011 2011 2011 2011 2011 2011 2011 2011 
2011 2011 2011 2011 2011 2011 2011 2011 2011 
2011 2011 2011 2011 2011 2011 2011 2011 2011 
2011 2011 2011 2011 2011 2011 2011 2011 2011 
2011 2011 2011 2011 2011 2011 2011 2011 2011 
2011 2011 2011 2011 2011 2011 2011 2011 2011 
2011 2011 2011 2011 2011 2011 2011 2011 2011 
2011 2011 2011 2011 2011 2011 2011 2011 2011 
2011 2011 2011 2011 2011 2011 2011 2011 2011 
2011 2011 2011 2011 2011 2011 2011 2011 2011 
2011 2011 2011 2011 2011 2011 2011 2011 2011 
2011 2011 2011 2011 2011 2011 2011 2011 2011 
2011 2011 2011 2011 2011 2011 2011 2011 2011 
2011 2011 2011 2011 2011 2011 2011 2011 2011 
2011 2011 2011 2011 2011 2011 2011 2011 2011 
2011 2011 2011 2011 2011 2011 2011 2011 2011 
2011 2011 2011 2011 2011 2011 2011 2011 2011 
2011 2011 2011 2011 2011 2011 2011 2011 2011 
2011 2011 2011 2011 2011 2011 2011 2011 2011 
2011 2011 2011 2011 2011 2011 2011 2011 2011 
2011 2011 2011 2011 2011 2011 2011 2011 2011 
2011 2011 2011 2011 2011 2011 2011 2011 2011 
2011 2011 2011 2011 2011 2011 2011 2011 2011 
2011 2011 2011 2011 2011 2011 2011 2011 2011 
2011 2011 2011 2011 2011 2011 2011 2011 2011 
2011 2011 2011 2011 2011 2011 2011 2011 2011 
2011 2011 2011 2011 2011 2011 2011 2011 2011 
2011 2011 2011 2011 2011 2011 2011 2011 2011 
2011 2011 2011 2011 2011 2011 2011 2011 2011 
2011 2011 2011 2011 2011 2011 2011 2011 2011 
2011 2011 2011 2011 2011 2011 2011 2011 2011 
2011 2011 2011 2011 2011 2011 2011 2011 2011 
2011 2011 2011 2011 2011 2011 2011 2011 2011 
2011 2011 2011 2011 2011 2011 2011 2011 2011 
2011 2011 2011 2011 2011 2011 2011 2011 2011 
2011 2011 2011 2011 2011 2011 2011 2011 2011 
2011 2011 2011 2011 2011 2011 2011 2011 2011 
2011 2011 2011 2011 2011 2011 2011 2011 2011 
2011 2011 2011 2011 2011 2011 2011 2011 2011 
2011 2011 2011 2011 2011 2011 2011 2011 2011 
2011 2011 2011 2011 2011 2011 2011 2011 2011 
2011 2011 2011 2011 2011 2011 2011 2011 2011 
2011 2011 2011 2011 2011 2011 2011 2011 2011 
2011 2011 2011 2011 2011 2011 2011 2011 2011 
2011 2011 2011 2011 2011 2011 2011 2011 2011 
2011 2011 2011 2011 2011 2011 2011 2011 2011 
2011 2011 2011 2011 2011 2011 2011 2011 2011 
2011 2011 2011 2011 2011 2011 2011 2011 2011 
2011 2011 2011 2011 2011 2011 2011 2011 2011 
2011 2011 2011 2011 2011 2011 2011 2011 2011 
2011 2011 2011 2011 2011 2011 2011 2011 2011 
2011 2011 2011 2011 2011 2011 2011 2011 2011 
2011 2011 2011 2011 2011 2011 2011 2011 2011 
2011 2011 2011 2011 2011 2011 2011 2011 2011 
2011 2011 2011 2011 2011 2011 2011 2011 2011 
2011 2011 2011 2011 2011 2011 2011 2011 2011 
2011 2011 2011 2011 2011 2011 2011 2011 2011 
2011 2011 2011 2011 2011 2011 2011 2011 2011 
2011 2011 2011 2011 2011 2011 2011 2011 2011 
2011 2011 2011 2011 2011 2011 2011 2011 2011 
2011 2011 2011 2011 2011 2011 2011 2011 2011 
2011 2011 2011 2011 2011 2011 2011 2011 2011 
2011 2011 2011 2011 2011 2011 2011 2011 2011 
2011 2011 2011 2011 2011 2011 2011 2011 2011 
2011 2011 2011 2011 2011 2011 2011 2011 2011 
2011 2011 2011 2011 2011 2011 2011 2011 2011 
2011 2011 2011 2011 2011 2011 2011 2011 2011 
2011 2011 2011 2011 2011 2011 2011 2011 2011 
2011 2011 2011 2011 2011 2011 2011 2011 2011 
2011 2011 2011 2011 2011 2011 2011 2011 2011 
2011 2011 2011 2011 2011 2011 2011 2011 2011 
2011 2011 2011 2011 2011 2011 2011 2011 2011 
2011 2011 2011 2011 2011 2011 2011 2011 2011 
2011 2011 2011 2011 2011 2011 2011 2011 2011 
2011 2011 2011 2011 2011 2011 2011 2011 2011 
2011 2011 2011 2011 2011 2011 2011 2011 2011 
2011 2011 2011 2011 2011 2011 2011 2011 2011 
2011 2011 2011 2011 2011 2011 2011 2011 2011 
2011 2011 2011 2011 2011 2011 2011 2011 2011 