# vtk DataFile Version 4.2
vtk output
ASCII
DATASET POLYDATA
POINTS 10902 float
14.9218 -23.5121 75.8472 14.741 -23.1297 75.3705 14.2633 -23.8441 75.5762 
15.4689 -23.7776 75.8063 15.6268 -23.2169 75.4349 16.2384 -23.6457 75.2213 
11.9451 -24.744 75.7805 11.7088 -24.3603 75.5052 11.4642 -24.7964 75.5024 
11.9674 -24.5467 75.3517 14.778 -24.2112 75.8293 14.3365 -24.672 75.4889 
15.3251 -24.6163 75.3906 15.8047 -24.1374 75.4285 11.6976 -25.2546 75.8206 
11.3856 -25.3804 75.4853 12.4465 -25.0215 75.4053 12.3761 -25.4551 75.7891 
13.0773 -25.3958 75.3682 14.7862 -24.9872 75.4106 11.8031 -26.0009 75.3223 
12.9539 -25.9109 75.2944 14.5915 -21.8154 74.7323 14.5121 -21.2144 74.1859 
13.9776 -21.8217 74.3232 15.1688 -21.4786 74.3585 13.9199 -22.2917 74.8374 
13.6729 -22.1962 74.5405 13.4575 -22.8103 74.4778 14.599 -22.5619 74.9612 
15.2817 -22.1587 74.5229 13.8432 -23.2366 75.0266 13.3367 -23.7028 74.4864 
15.4899 -22.7946 74.8167 16.7631 -23.5043 74.7939 16.4126 -23.0744 74.7115 
17.0752 -23.3522 74.2472 11.6051 -24.6242 75.1218 13.6358 -24.6402 75.0332 
13.12 -24.3334 74.3121 15.7284 -24.5513 75.0597 16.1094 -24.3261 74.7557 
16.7305 -23.9244 74.3351 11.8112 -24.9475 74.7023 11.1735 -25.4586 74.9094 
12.7301 -24.903 74.6548 13.6512 -25.6227 75.1312 14.3714 -25.4655 74.9797 
15.0801 -25.4204 74.7037 15.6721 -24.9727 74.3621 9.6644 -26.7135 74.8528 
9.46213 -26.2446 74.2524 8.94955 -26.8751 74.3402 10.6463 -26.6366 74.9388 
10.3109 -25.9701 74.3773 11.4595 -26.6444 74.8861 12.101 -26.5012 74.7165 
12.8576 -26.2715 74.4838 13.8717 -26.0151 74.4885 14.7147 -25.8794 74.2593 
8.84868 -27.3183 74.8102 8.56545 -27.2852 74.576 8.49039 -27.5519 74.592 
9.57167 -27.4321 74.8798 10.2181 -27.4573 74.6507 11.0301 -27.1529 74.3773 
11.9075 -26.8564 74.2475 8.95943 -27.8023 74.4949 9.82477 -27.9035 74.2878 
13.7984 -21.4236 73.9156 14.0005 -21.1877 73.4465 13.5464 -21.512 73.528 
14.6269 -20.8776 73.6447 15.979 -21.7267 74.0183 15.3942 -20.9582 73.7135 
16.9508 -21.7833 73.8121 16.6499 -20.9893 73.3089 17.3373 -21.4222 73.3889 
13.675 -22.5315 74.0002 13.6864 -21.7591 73.6788 13.9292 -22.1901 73.38 
15.9869 -22.4961 74.2921 16.8266 -22.5592 74.0748 17.5832 -21.9234 73.5966 
17.4988 -22.3807 73.7767 18.0206 -22.3956 73.1848 13.7268 -22.9954 73.1284 
13.2234 -23.571 73.7559 17.6386 -23.1111 73.5505 17.3324 -23.8114 73.3968 
9.93857 -24.5806 73.7239 9.88983 -24.2195 73.3421 9.47539 -24.5548 73.4982 
10.8325 -24.5654 73.8233 10.6788 -24.1 73.4583 11.8512 -24.6961 73.9641 
11.7004 -24.2096 73.3564 12.7253 -24.4189 73.9418 12.5942 -24.1095 73.3303 
16.3006 -24.5591 73.8101 16.8302 -24.2455 73.4198 9.73948 -24.9468 73.5744 
10.0874 -25.3451 73.4001 10.6457 -25.1838 74.0524 15.2384 -25.6144 73.7188 
15.9132 -25.1024 73.1519 8.8032 -26.4137 73.894 9.03105 -26.2432 73.3822 
8.55304 -26.4313 73.4652 9.85496 -25.914 73.4549 12.5389 -26.6176 74.1099 
13.0526 -26.4936 73.5876 13.757 -26.2014 73.3467 14.6162 -25.9708 73.4642 
8.7946 -27.5326 74.2031 8.74012 -26.7019 73.5033 9.07666 -27.4378 73.4836 
10.5138 -27.6702 74.1286 11.1258 -27.536 73.6785 11.8591 -27.2321 73.4009 
12.59 -26.8322 73.4028 9.67104 -28.0784 73.5278 10.7357 -27.9287 73.3794 
14.7527 -20.6306 72.9619 14.6167 -20.0056 72.3493 14.2729 -20.4335 72.2257 
15.9625 -20.4886 73.0291 15.5763 -20.0172 72.4366 16.6573 -20.5032 72.8886 
16.4919 -20.2635 72.5407 17.1271 -20.577 72.3215 13.7259 -21.6744 73.241 
14.2334 -21.4806 72.4587 17.8411 -21.6441 73.1241 17.719 -21.106 72.5795 
18.2962 -21.6634 72.5206 14.0683 -22.5612 72.6021 18.4157 -22.5251 72.38 
10.6293 -23.7143 72.8514 10.4351 -23.2368 72.1869 10.1359 -23.7118 72.2185 
11.1741 -23.4691 72.1598 13.5916 -23.1054 72.1647 13.179 -23.5969 72.755 
17.7698 -23.6126 72.9914 18.0618 -23.2792 72.7018 9.67683 -24.6861 73.2749 
10.1122 -24.473 72.719 11.5162 -23.8692 72.7059 12.3922 -23.8994 72.42 
16.5679 -24.6434 73.0299 17.0937 -24.3869 72.6534 17.7045 -23.9687 72.3092 
10.1617 -25.5242 72.3276 15.2472 -25.5991 72.7386 15.8644 -25.2116 72.1632 
16.5847 -24.8614 72.361 8.6524 -26.4791 73.1864 9.0414 -26.729 72.8181 
9.71348 -26.1837 72.5307 13.239 -26.5355 72.7264 13.8572 -26.1704 72.1764 
14.5702 -25.917 72.4623 8.72001 -27.0728 72.1355 8.0428 -27.6634 72.5849 
8.70504 -27.7399 72.9193 11.5621 -27.6477 73.0573 12.085 -27.5038 72.5338 
12.6286 -27.0437 72.3403 7.87417 -28.3221 72.7672 7.47874 -27.9403 72.3685 
7.32495 -28.4699 72.1667 8.54024 -28.5995 72.9008 9.34863 -28.4122 72.9807 
10.0545 -28.5166 72.6024 10.7458 -28.2035 72.359 11.5985 -27.8562 72.3961 
7.96194 -28.9145 72.4078 8.95427 -28.9892 72.4089 9.74792 -28.8461 72.3 
15.5849 -18.8028 71.7616 15.5718 -18.053 71.4211 15.1086 -18.4666 71.4048 
16.0632 -18.3478 71.2495 14.964 -19.3431 71.9684 14.6182 -19.0344 71.1464 
14.3166 -19.7419 71.6824 15.7698 -19.5092 71.9696 16.2619 -19.2055 71.3421 
14.3421 -20.4125 71.4314 16.5418 -19.9965 71.8492 17.228 -20.4217 71.1421 
14.6718 -21.1502 71.6253 14.6957 -21.7567 71.7459 15.0312 -21.3445 71.1778 
17.8734 -20.9066 71.473 18.7847 -21.8455 71.9077 18.4981 -21.2097 71.7 
18.991 -21.5015 71.2472 14.6252 -22.0359 71.139 14.1986 -22.4317 71.8086 
18.7253 -22.6359 71.8237 19.1101 -22.3636 71.2379 9.79323 -23.3512 71.8587 
9.99496 -23.2428 71.5338 9.5386 -23.4238 71.4682 10.7344 -23.2274 71.6953 
11.159 -23.486 71.5621 12.9202 -23.54 72.0194 12.9762 -23.1988 71.5567 
12.3791 -23.5245 71.4943 13.4986 -22.8588 71.4542 18.3223 -23.416 71.812 
18.817 -23.1557 71.3459 9.70958 -23.7014 71.6016 10.0774 -24.4525 71.2913 
11.5399 -23.7524 71.4615 17.2188 -24.5573 71.7224 17.9075 -24.1176 71.1547 
10.2834 -25.5705 71.4189 15.1313 -25.5422 71.8272 15.6628 -25.1872 71.1798 
16.568 -24.9364 71.4566 9.58221 -26.597 72.037 10.069 -26.2367 71.5659 
13.24 -26.5328 71.7154 13.6986 -26.1638 71.3018 14.3544 -25.8375 71.4126 
7.76299 -27.4212 72.0867 7.97547 -27.2838 71.533 7.32534 -27.7738 71.7449 
8.91912 -27.0822 71.3181 9.55263 -26.7833 71.5833 12.231 -27.5292 71.7011 
12.7204 -27.0177 71.1801 7.28381 -28.3083 71.4865 10.3604 -28.7309 71.5416 
10.9929 -28.2605 71.2602 11.6063 -27.9194 71.455 7.57622 -28.8407 71.7287 
8.49036 -29.2362 71.4856 9.58105 -29.1937 71.5928 16.0414 -17.5427 70.9253 
15.8439 -17.131 70.2305 15.364 -17.6968 70.7469 16.6254 -17.4469 70.6959 
16.4719 -17.1552 70.5072 16.9182 -17.4877 70.1823 15.0029 -18.4475 70.3264 
16.6247 -18.026 70.5426 16.4503 -18.6659 70.7164 14.718 -19.1329 70.3169 
14.4052 -19.5792 70.774 16.6468 -19.156 70.6073 16.7765 -19.7156 71.0307 
17.019 -19.5363 70.2818 14.6332 -20.1045 70.5926 14.8044 -20.6942 71.0184 
15.0816 -20.5015 70.3123 17.2883 -20.477 70.0956 15.1131 -21.459 70.4984 
17.7002 -20.9231 70.5705 18.4706 -21.0357 70.5336 19.2104 -21.5802 70.6133 
12.807 -22.7775 70.9442 12.7648 -22.1751 70.4512 12.1539 -22.5797 70.4463 
13.8162 -22.5 71.1357 13.6487 -22.0849 70.5666 14.5952 -21.8562 70.4664 
19.4026 -22.5648 70.409 9.80924 -23.6342 71.2672 10.5765 -23.622 71.1956 
11.8896 -23.3309 70.8772 11.6536 -23.0924 70.4775 11.3065 -23.4877 70.5465 
18.5779 -23.6905 71.0531 19.0461 -23.314 70.6892 9.70407 -24.2573 70.3483 
9.42647 -24.742 70.1836 9.67137 -24.5034 70.6918 10.5095 -23.8867 70.4531 
17.2174 -24.5889 70.7371 17.8359 -24.2239 70.1424 18.565 -23.8964 70.384 
9.76048 -24.9251 70.6009 10.0199 -25.6679 70.7896 14.8406 -25.4598 71.0973 
14.3285 -25.5839 70.5693 14.89 -25.209 70.32 15.8284 -25.0687 70.2979 
16.5468 -24.9262 70.4846 9.65103 -26.6002 70.8948 9.63418 -25.9939 70.2716 
9.36127 -26.4829 70.196 13.2114 -26.5136 70.7 13.7865 -26.0239 70.3567 
7.5751 -27.7796 71.2166 8.29545 -27.6881 70.9074 9.0784 -27.2092 70.4405 
12.2104 -27.5178 70.7089 12.7186 -27.0274 70.1716 7.83764 -28.5459 71.0484 
8.22478 -28.4574 70.4939 8.67055 -27.9696 70.1462 10.7436 -28.5504 70.9605 
11.043 -28.4513 70.5475 11.6047 -28.0367 70.3687 8.33887 -29.3426 70.4143 
8.75247 -29.6487 70.8953 9.34577 -29.651 70.9298 10.0862 -29.4112 70.6927 
10.6699 -28.944 70.3199 9.03957 -29.923 70.3313 9.7172 -29.8845 70.2395 
15.9169 -17.0723 69.3516 15.3316 -17.6742 69.6313 16.5526 -16.9975 69.8358 
17.1333 -17.358 69.5183 15.1589 -18.4264 69.4404 16.7844 -18.7076 70.2193 
17.2045 -18.3616 69.703 14.7698 -19.6666 70.1451 15.1043 -19.3507 69.5504 
17.2864 -19.6062 69.5129 15.1027 -20.6292 69.5514 17.3782 -20.3666 69.3821 
19.0947 -20.7228 69.9185 18.7774 -20.1578 69.2471 18.2811 -20.6234 69.5771 
19.7891 -20.7548 69.7745 19.5334 -20.2561 69.4807 20.012 -20.4937 69.2873 
12.7747 -21.7253 69.9796 12.7345 -21.0889 69.51 12.1446 -21.4562 69.5126 
14.0112 -21.5582 69.968 13.4443 -21.0182 69.4862 14.8191 -21.4468 69.9753 
14.4409 -20.9889 69.454 17.7118 -20.8217 69.7428 19.6868 -21.6625 70.0305 
20.1299 -21.2454 69.3847 11.6328 -22.5445 69.997 11.5532 -21.8902 69.3597 
11.1201 -22.5241 69.3485 19.6895 -22.6738 69.8447 20.0387 -22.2324 69.3649 
10.8482 -23.2827 69.9028 10.6417 -23.0856 69.1202 10.2875 -23.6801 69.398 
19.2401 -23.4155 69.7957 19.7576 -23.0507 69.1509 9.81615 -24.1362 69.5291 
9.38124 -24.5345 69.6746 17.1961 -24.5739 69.7495 17.865 -24.2068 69.1701 
18.576 -23.934 69.4625 9.61267 -25.3724 70.1853 9.32681 -25.5767 69.5588 
14.1481 -25.5078 69.485 14.6207 -24.8951 69.4474 15.5632 -24.8944 69.4943 
16.5562 -24.9052 69.5219 9.19272 -26.6884 69.6429 13.3161 -26.6985 69.4709 
13.7539 -26.1978 69.3796 9.24129 -27.5413 69.2535 12.2802 -27.5494 69.7591 
12.7847 -27.2068 69.3678 8.78979 -28.2393 69.4129 8.38322 -28.699 69.8229 
11.2125 -28.5436 69.7146 11.8997 -28.0671 69.1885 8.17392 -29.5381 69.292 
10.2437 -29.6058 69.7089 10.7685 -29.1004 69.1957 8.84389 -29.9786 69.4735 
9.62393 -30.0023 69.4764 16.8345 -16.711 68.9713 16.794 -16.1771 68.1789 
16.3384 -16.5755 68.4073 17.8502 -16.498 68.8535 17.5246 -16.1069 68.5232 
18.4497 -16.7421 68.7289 18.349 -16.0039 68.3756 18.9356 -16.3352 68.4525 
15.5768 -17.6218 68.8593 16.0219 -17.2603 68.3506 17.8556 -17.559 68.9948 
18.4864 -17.4013 68.5983 18.8817 -16.9555 68.4622 15.7227 -18.0868 68.272 
15.3665 -18.461 68.7754 17.8049 -18.851 69.0752 18.5527 -17.9896 68.5747 
[...]
CELL_DATA 21872
SCALARS scalars float
LOOKUP_TABLE default
1012 1012 1012 1012 1012 1012 1012 1012 1012 
1012 1012 1012 1012 1012 1012 1012 1012 1012 
1012 1012 1012 1012 1012 1012 1012 1012 1012 
1012 1012 1012 1012 1012 1012 1012 1012 1012 
1012 1012 1012 1012 1012 1012 1012 1012 1012 
1012 1012 1012 1012 1012 1012 1012 1012 1012 
1012 1012 1012 1012 1012 1012 1012 1012 1012 
1012 1012 1012 1012 1012 1012 1012 1012 1012 
1012 1012 1012 1012 1012 1012 1012 1012 1012 
1012 1012 1012 1012 1012 1012 1012 1012 1012 
1012 1012 1012 1012 1012 1012 1012 1012 1012 
1012 1012 1012 1012 1012 1012 1012 1012 1012 
1012 1012 1012 1012 1012 1012 1012 1012 1012 
1012 1012 1012 1012 1012 1012 1012 1012 1012 
1012 1012 1012 1012 1012 1012 1012 1012 1012 
1012 1012 1012 1012 1012 1012 1012 1012 1012 
1012 1012 1012 1012 1012 1012 1012 1012 1012 
1012 1012 1012 1012 1012 1012 1012 1012 1012 
1012 1012 1012 1012 1012 1012 1012 1012 1012 
1012 1012 1012 1012 1012 1012 1012 1012 1012 
1012 1012 1012 1012 1012 1012 1012 1012 1012 
1012 1012 1012 1012 1012 1012 1012 1012 1012 
1012 1012 1012 1012 1012 1012 1012 1012 1012 
1012 1012 1012 1012 1012 1012 1012 1012 1012 
1012 1012 1012 1012 1012 1012 1012 1012 1012 
1012 1012 1012 1012 1012 1012 1012 1012 1012 
1012 1012 1012 1012 1012 1012 1012 1012 1012 
1012 1012 1012 1012 1012 1012 1012 1012 1012 
1012 1012 1012 1012 1012 1012 1012 1012 1012 
1012 1012 1012 1012 1012 1012 1012 1012 1012 
1012 1012 1012 1012 1012 1012 1012 1012 1012 
1012 1012 1012 1012 1012 1012 1012 1012 1012 
1012 1012 1012 1012 1012 1012 1012 1012 1012 
1012 1012 1012 1012 1012 1012 1012 1012 1012 
1012 1012 1012 1012 1012 1012 1012 1012 1012 
1012 1012 1012 1012 1012 1012 1012 1012 1012 
1012 1012 1012 1012 1012 1012 1012 1012 1012 
1012 1012 1012 1012 1012 1012 1012 1012 1012 
1012 1012 1012 1012 1012 1012 1012 1012 1012 
1012 1012 1012 1012 1012 1012 1012 1012 1012 
1012 1012 1012 1012 1012 1012 1012 1012 1012 
1012 1012 1012 1012 1012 1012 1012 1012 1012 
1012 1012 1012 1012 1012 1012 1012 1012 1012 
1012 1012 1012 1012 1012 1012 1012 1012 1012 
1012 1012 1012 1012 1012 1012 1012 1012 1012 
1012 1012 1012 1012 1012 1012 1012 1012 1012 
1012 1012 1012 1012 1012 1012 1012 1012 1012 
1012 1012 1012 1012 1012 1012 1012 1012 1012 
1012 1012 1012 1012 1012 1012 1012 1012 1012 
1012 1012 1012 1012 1012 1012 1012 1012 1012 
1012 1012 1012 1012 1012 1012 1012 1012 1012 
1012 1012 1012 1012 1012 1012 1012 1012 1012 
1012 1012 1012 1012 1012 1012 1012 1012 1012 
1012 1012 1012 1012 1012 1012 1012 1012 1012 
1012 1012 1012 1012 1012 1012 1012 1012 1012 
1012 1012 1012 1012 1012 1012 1012 1012 1012 
1012 1012 1012 1012 1012 1012 1012 1012 1012 
1012 1012 1012 1012 1012 1012 1012 1012 1012 
1012 1012 1012 1012 1012 1012 1012 1012 1012 
1012 1012 1012 1012 1012 1012 1012 1012 1012 
1012 1012 1012 1012 1012 1012 1012 1012 1012 
1012 1012 1012 1012 1012 1012 1012 1012 1012 
1012 1012 1012 1012 1012 1012 1012 1012 1012 
1012 1012 1012 1012 1012 1012 1012 1012 1012 
1012 1012 1012 1012 1012 1012 1012 1012 1012 
1012 1012 1012 1012 1012 1012 1012 1012 1012 
1012 1012 1012 1012 1012 1012 1012 1012 1012 
1012 1012 1012 1012 1012 1012 1012 1012 1012 
1012 1012 1012 1012 1012 1012 1012 1012 1012 
1012 1012 1012 1012 1012 1012 1012 1012 1012 
1012 1012 1012 1012 1012 1012 1012 1012 1012 
1012 1012 1012 1012 1012 1012 1012 1012 1012 
1012 1012 1012 1012 1012 1012 1012 1012 1012 
1012 1012 1012 1012 1012 1012 1012 1012 1012 
1012 1012 1012 1012 1012 1012 1012 1012 1012 
1012 1012 1012 1012 1012 1012 1012 1012 1012 
1012 1012 1012 1012 1012 1012 1012 1012 1012 
1012 1012 1012 1012 1012 1012 1012 1012 1012 
1012 1012 1012 1012 1012 1012 1012 1012 1012 
1012 1012 1012 1012 1012 1012 1012 1012 1012 
1012 1012 1012 1012 1012 1012 1012 1012 1012 
1012 1012 1012 1012 1012 1012 1012 1012 1012 
1012 1012 1012 1012 1012 1012 1012 1012 1012 
1012 1012 1012 1012 1012 1012 1012 1012 1012 
1012 1012 1012 1012 1012 1012 1012 1012 1012 
1012 1012 1012 1012 1012 1012 1012 1012 1012 
1012 1012 1012 1012 1012 1012 1012 1012 1012 
1012 1012 1012 1012 1012 1012 1012 1012 1012 
1012 1012 1012 1012 1012 1012 1012 1012 1012 
1012 1012 1012 1012 1012 1012 1012 1012 1012 
1012 1012 1012 1012 1012 1012 1012 1012 1012 
1012 1012 1012 1012 1012 1012 1012 1012 1012 
1012 1012 1012 1012 1012 1012 1012 1012 1012 
1012 1012 1012 1012 1012 1012 1012 1012 1012 
1012 1012 1012 1012 1012 1012 1012 1012 1012 
1012 1012 1012 1012 1012 1012 1012 1012 1012 
1012 1012 1012 1012 1012 1012 1012 1012 1012 
1012 1012 1012 1012 1012 1012 1012 1012 1012 
1012 1012 1012 1012 1012 1012 1012 1012 1012 
1012 1012 1012 1012 1012 1012 1012 1012 1012 
1012 1012 1012 1012 1012 1012 1012 1012 1012 
1012 1012 1012 1012 1012 1012 1012 1012 1012 
1012 1012 1012 1012 1012 1012 1012 1012 1012 
1012 1012 1012 1012 1012 1012 1012 1012 1012 
1012 1012 1012 1012 1012 1012 1012 1012 1012 
1012 1012 1012 1012 1012 1012 1012 1012 1012 
1012 1012 1012 1012 1012 1012 1012 1012 1012 
1012 1012 1012 1012 1012 1012 1012 1012 1012 
1012 1012 1012 1012 1012 1012 1012 1012 1012 
1012 1012 1012 1012 1012 1012 1012 1012 1012 
1012 1012 1012 1012 1012 1012 1012 1012 1012 
1012 1012 1012 1012 1012 1012 1012 1012 1012 
1012 1012 1012 1012 1012 1012 1012 1012 1012 
1012 1012 1012 1012 1012 1012 1012 1012 1012 
1012 1012 1012 1012 1012 1012 1012 1012 1012 
1012 1012 1012 1012 1012 1012 1012 1012 1012 
1012 1012 1012 1012 1012 1012 1012 1012 1012 
1012 1012 1012 1012 1012 1012 1012 1012 1012 
1012 1012 1012 1012 1012 1012 1012 1012 1012 
1012 1012 1012 1012 1012 1012 1012 1012 1012 
1012 1012 1012 1012 1012 1012 1012 1012 1012 
1012 1012 1012 1012 1012 1012 1012 1012 1012 
1012 1012 1012 1012 1012 1012 1012 1012 1012 
1012 1012 1012 1012 1012 1012 1012 1012 1012 
1012 1012 1012 1012 1012 1012 1012 1012 1012 
1012 1012 1012 1012 1012 1012 1012 1012 1012 
1012 1012 1012 1012 1012 1012 1012 1012 1012 
1012 1012 1012 1012 1012 1012 1012 1012 1012 
1012 1012 1012 1012 1012 1012 1012 1012 1012 
1012 1012 1012 1012 1012 1012 1012 1012 1012 
1012 1012 1012 1012 1012 1012 1012 1012 1012 
1012 1012 1012 1012 1012 1012 1012 1012 1012 
1012 1012 1012 1012 1012 1012 1012 1012 1012 
1012 1012 1012 1012 1012 1012 1012 1012 1012 
1012 1012 1012 1012 1012 1012 1012 1012 1012 
1012 1012 1012 1012 1012 1012 1012 1012 1012 
1012 1012 1012 1012 1012 1012 1012 1012 1012 
1012 1012 1012 1012 1012 1012 1012 1012 1012 
1012 1012 1012 1012 1012 1012 1012 1012 1012 
1012 1012 1012 1012 1012 1012 1012 1012 1012 
1012 1012 1012 1012 1012 1012 1012 1012 1012 
1012 1012 1012 1012 1012 1012 1012 1012 1012 
1012 1012 1012 1012 1012 1012 1012 1012 1012 
1012 1012 1012 1012 1012 1012 1012 1012 1012 
1012 1012 1012 1012 1012 1012 1012 1012 1012 
1012 1012 1012 1012 1012 1012 1012 1012 1012 
1012 1012 1012 1012 1012 1012 1012 1012 1012 
1012 1012 1012 1012 1012 1012 1012 1012 1012 
1012 1012 1012 1012 1012 1012 1012 1012 1012 
1012 1012 1012 1012 1012 1012 1012 1012 1012 
1012 1012 1012 1012 1012 1012 1012 1012 1012 
1012 1012 1012 1012 1012 1012 1012 1012 1012 
1012 1012 1012 1012 1012 1012 1012 1012 1012 
1012 1012 1012 1012 1012 1012 1012 1012 1012 
1012 1012 1012 1012 1012 1012 1012 1012 1012 
1012 1012 1012 1012 1012 1012 1012 1012 1012 
1012 1012 1012 1012 1012 1012 1012 1012 1012 
1012 1012 1012 1012 1012 1012 1012 1012 1012 
1012 1012 1012 1012 1012 1012 1012 1012 1012 
1012 1012 1012 1012 1012 1012 1012 1012 1012 
1012 1012 1012 1012 1012 1012 1012 1012 1012 
1012 1012 1012 1012 1012 1012 1012 1012 1012 
1012 1012 1012 1012 1012 1012 1012 1012 1012 
1012 1012 1012 1012 1012 1012 1012 1012 1012 
1012 1012 1012 1012 1012 1012 1012 1012 1012 
1012 1012 1012 1012 1012 1012 1012 1012 1012 
1012 1012 1012 1012 1012 1012 1012 1012 1012 
1012 1012 1012 1012 1012 1012 1012 1012 1012 
1012 1012 1012 1012 1012 1012 1012 1012 1012 
1012 1012 1012 1012 1012 1012 1012 1012 1012 
1012 1012 1012 1012 1012 1012 1012 1012 1012 
1012 1012 1012 1012 1012 1012 1012 1012 1012 
1012 1012 1012 1012 1012 1012 1012 1012 1012 
1012 1012 1012 1012 1012 1012 1012 1012 1012 
1012 1012 1012 1012 1012 1012 1012 1012 1012 
1012 1012 1012 1012 1012 1012 1012 1012 1012 
1012 1012 1012 1012 1012 1012 1012 1012 1012 
1012 1012 1012 1012 1012 1012 1012 1012 1012 
1012 1012 1012 1012 1012 1012 1012 1012 1012 
1012 1012 1012 1012 1012 1012 1012 1012 1012 
1012 1012 1012 1012 1012 1012 1012 1012 1012 
1012 1012 1012 1012 1012 1012 1012 1012 1012 
1012 1012 1012 1012 1012 1012 1012 1012 1012 
1012 1012 1012 1012 1012 1012 1012 1012 1012 
1012 1012 1012 1012 1012 1012 1012 1012 1012 
1012 1012 1012 1012 1012 1012 1012 1012 1012 
1012 1012 1012 1012 1012 1012 1012 1012 1012 
1012 1012 1012 1012 1012 1012 1012 1012 1012 
1012 1012 1012 1012 1012 1012 1012 1012 1012 
1012 1012 1012 1012 1012 1012 1012 1012 1012 
1012 1012 1012 1012 1012 1012 1012 1012 1012 
1012 1012 1012 1012 1012 1012 1012 1012 1012 
1012 1012 1012 1012 1012 1012 1012 1012 1012 
1012 1012 1012 1012 1012 1012 1012 1012 1012 
1012 1012 1012 1012 1012 1012 1012 1012 1012 
1012 1012 1012 1012 1012 1012 1012 1012 1012 
1012 1012 1012 1012 1012 1012 1012 1012 1012 
1012 1012 1012 1012 1012 1012 1012 1012 1012 
1012 1012 1012 1012 1012 1012 1012 1012 1012 
1012 1012 1012 1012 1012 1012 1012 1012 1012 
1012 1012 1012 1012 1012 1012 1012 1012 1012 
1012 1012 1012 1012 1012 1012 1012 1012 1012 
1012 1012 1012 1012 1012 1012 1012 1012 1012 
1012 1012 1012 1012 1012 1012 1012 1012 1012 
1012 1012 1012 1012 1012 1012 1012 1012 1012 
1012 1012 1012 1012 1012 1012 1012 1012 1012 
1012 1012 1012 1012 1012 1012 1012 1012 1012 
1012 1012 1012 1012 1012 1012 1012 1012 1012 
1012 1012 1012 1012 1012 1012 1012 1012 1012 
1012 1012 1012 1012 1012 1012 1012 1012 1012 
1012 1012 1012 1012 1012 1012 1012 1012 1012 
1012 1012 1012 1012 1012 1012 1012 1012 1012 
1012 1012 1012 1012 1012 1012 1012 1012 1012 
1012 1012 1012 1012 1012 1012 1012 1012 1012 
1012 1012 1012 1012 1012 1012 1012 1012 1012 
1012 1012 1012 1012 1012 1012 1012 1012 1012 
1012 1012 1012 1012 1012 1012 1012 1012 1012 
1012 1012 1012 1012 1012 1012 1012 1012 1012 
1012 1012 1012 1012 1012 1012 1012 1012 1012 
1012 1012 1012 1012 1012 1012 1012 1012 1012 
1012 1012 1012 1012 1012 1012 1012 1012 1012 
1012 1012 1012 1012 1012 1012 1012 1012 1012 
1012 1012 1012 1012 1012 1012 1012 1012 1012 
1012 1012 1012 1012 1012 1012 1012 1012 1012 
1012 1012 1012 1012 1012 1012 1012 1012 1012 
1012 1012 1012 1012 1012 1012 1012 1012 1012 
1012 1012 1012 1012 1012 1012 1012 1012 1012 
1012 1012 1012 1012 1012 1012 1012 1012 1012 
1012 1012 1012 1012 1012 1012 1012 1012 1012 
1012 1012 1012 1012 1012 1012 1012 1012 1012 
1012 1012 1012 1012 1012 1012 1012 1012 1012 
1012 1012 1012 1012 1012 1012 1012 1012 1012 
1012 1012 1012 1012 1012 1012 1012 1012 1012 
1012 1012 1012 1012 1012 1012 1012 1012 1012 
1012 1012 1012 1012 1012 1012 1012 1012 1012 
1012 1012 1012 1012 1012 1012 1012 1012 1012 
1012 1012 1012 1012 1012 1012 1012 1012 1012 
1012 1012 1012 1012 1012 1012 1012 1012 1012 
1012 1012 1012 1012 1012 1012 1012 1012 1012 
1012 1012 1012 1012 1012 1012 1012 1012 1012 
1012 1012 1012 1012 1012 1012 1012 1012 1012 
1012 1012 1012 1012 1012 1012 1012 1012 1012 
1012 1012 1012 1012 1012 1012 1012 1012 1012 
1012 1012 1012 1012 1012 1012 1012 1012 1012 
1012 1012 1012 1012 1012 1012 1012 1012 1012 
1012 1012 1012 1012 1012 1012 1012 1012 1012 
1012 1012 1012 1012 1012 1012 1012 1012 1012 
1012 1012 1012 1012 1012 1012 1012 1012 1012 
1012 1012 1012 1012 1012 1012 1012 1012 1012 
1012 1012 1012 1012 1012 1012 1012 1012 1012 
1012 1012 1012 1012 1012 1012 1012 1012 1012 
1012 1012 1012 1012 1012 1012 1012 1012 1012 
1012 1012 1012 1012 1012 1012 1012 1012 1012 
1012 1012 1012 1012 1012 1012 1012 1012 1012 
1012 1012 1012 1012 1012 1012 1012 1012 1012 
1012 1012 1012 1012 1012 1012 1012 1012 1012 
1012 1012 1012 1012 1012 1012 1012 1012 1012 
1012 1012 1012 1012 1012 1012 1012 1012 1012 
1012 1012 1012 1012 1012 1012 1012 1012 1012 
1012 1012 1012 1012 1012 1012 1012 1012 1012 
1012 1012 1012 1012 1012 1012 1012 1012 1012 
1012 1012 1012 1012 1012 1012 1012 1012 1012 
1012 1012 1012 1012 1012 1012 1012 1012 1012 
1012 1012 1012 1012 1012 1012 1012 1012 1012 
1012 1012 1012 1012 1012 1012 1012 1012 1012 
1012 1012 1012 1012 1012 1012 1012 1012 1012 
1012 1012 1012 1012 1012 1012 1012 1012 1012 
1012 1012 1012 1012 1012 1012 1012 1012 1012 
1012 1012 1012 1012 1012 1012 1012 1012 1012 
1012 1012 1012 1012 1012 1012 1012 1012 1012 
1012 1012 1012 1012 1012 1012 1012 1012 1012 
1012 1012 1012 1012 1012 1012 1012 1012 1012 
1012 1012 1012 1012 1012 1012 1012 1012 1012 
1012 1012 1012 1012 1012 1012 1012 1012 1012 
1012 1012 1012 1012 1012 1012 1012 1012 1012 
1012 1012 1012 1012 1012 1012 1012 1012 1012 
1012 1012 1012 1012 1012 1012 1012 1012 1012 
1012 1012 1012 1012 1012 1012 1012 1012 1012 
1012 1012 1012 1012 1012 1012 1012 1012 1012 
1012 1012 1012 1012 1012 1012 1012 1012 1012 
1012 1012 1012 1012 1012 1012 1012 1012 1012 
1012 1012 1012 1012 1012 1012 1012 1012 1012 
1012 1012 1012 1012 1012 1012 1012 1012 1012 
1012 1012 1012 1012 1012 1012 1012 1012 1012 
1012 1012 1012 1012 1012 1012 1012 1012 1012 
1012 1012 1012 1012 1012 1012 1012 1012 1012 
1012 1012 1012 1012 1012 1012 1012 1012 1012 
1012 1012 1012 1012 1012 1012 1012 1012 1012 
1012 1012 1012 1012 1012 1012 1012 1012 1012 
1012 1012 1012 1012 1012 1012 1012 1012 1012 
1012 1012 1012 1012 1012 1012 1012 1012 1012 
1012 1012 1012 1012 1012 1012 1012 1012 1012 
1012 1012 1012 1012 1012 1012 1012 1012 1012 
1012 1012 1012 1012 1012 1012 1012 1012 1012 
1012 1012 1012 1012 1012 1012 1012 1012 1012 
1012 1012 1012 1012 1012 1012 1012 1012 1012 
1012 1012 1012 1012 1012 1012 1012 1012 1012 
1012 1012 1012 1012 1012 1012 1012 1012 1012 
1012 1012 1012 1012 1012 1012 1012 1012 1012 
1012 1012 1012 1012 1012 1012 1012 1012 1012 
1012 1012 1012 1012 1012 1012 1012 1012 1012 
1012 1012 1012 1012 1012 1012 1012 1012 1012 
1012 1012 1012 1012 1012 1012 1012 1012 1012 
1012 1012 1012 1012 1012 1012 1012 1012 1012 
1012 1012 1012 1012 1012 1012 1012 1012 1012 
1012 1012 1012 1012 1012 1012 1012 1012 1012 
1012 1012 1012 1012 1012 1012 1012 1012 1012 
1012 1012 1012 1012 1012 1012 1012 1012 1012 
1012 1012 1012 1012 1012 1012 1012 1012 1012 
1012 1012 1012 1012 1012 1012 1012 1012 1012 
1012 1012 1012 1012 1012 1012 1012 1012 1012 
1012 1012 1012 1012 1012 1012 1012 1012 1012 
1012 1012 1012 1012 1012 1012 1012 1012 1012 
1012 1012 1012 1012 1012 1012 1012 1012 1012 
1012 1012 1012 1012 1012 1012 1012 1012 1012 
1012 1012 1012 1012 1012 1012 1012 1012 1012 
1012 1012 1012 1012 1012 1012 1012 1012 1012 
1012 1012 1012 1012 1012 1012 1012 1012 1012 
1012 1012 1012 1012 1012 1012 1012 1012 1012 
1012 1012 1012 1012 1012 1012 1012 1012 1012 
1012 1012 1012 1012 1012 1012 1012 1012 1012 
1012 1012 1012 1012 1012 1012 1012 1012 1012 
1012 1012 1012 1012 1012 1012 1012 1012 1012 
1012 1012 1012 1012 1012 1012 1012 1012 1012 
1012 1012 1012 1012 1012 1012 1012 1012 1012 
1012 1012 1012 1012 1012 1012 1012 1012 1012 
1012 1012 1012 1012 1012 1012 1012 1012 1012 
1012 1012 1012 1012 1012 1012 1012 1012 1012 
1012 1012 1012 1012 1012 1012 1012 1012 1012 
1012 1012 1012 1012 1012 1012 1012 1012 1012 
1012 1012 1012 1012 1012 1012 1012 1012 1012 
1012 1012 1012 1012 1012 1012 1012 1012 1012 
1012 1012 1012 1012 1012 1012 1012 1012 1012 
1012 1012 1012 1012 1012 1012 1012 1012 1012 
1012 1012 1012 1012 1012 1012 1012 1012 1012 
1012 1012 1012 1012 1012 1012 1012 1012 1012 
1012 1012 1012 1012 1012 1012 1012 1012 1012 
1012 1012 1012 1012 1012 1012 1012 1012 1012 
1012 1012 1012 1012 1012 1012 1012 1012 1012 
1012 1012 1012 1012 1012 1012 1012 1012 1012 
1012 1012 1012 1012 1012 1012 1012 1012 1012 
1012 1012 1012 1012 1012 1012 1012 1012 1012 
1012 1012 1012 1012 1012 1012 1012 1012 1012 
1012 1012 1012 1012 1012 1012 1012 1012 1012 
1012 1012 1012 1012 1012 1012 1012 1012 1012 
1012 1012 1012 1012 1012 1012 1012 1012 1012 
1012 1012 1012 1012 1012 1012 1012 1012 1012 
1012 1012 1012 1012 1012 1012 1012 1012 1012 
1012 1012 1012 1012 1012 1012 1012 1012 1012 
1012 1012 1012 1012 1012 1012 1012 1012 1012 
1012 1012 1012 1012 1012 1012 1012 1012 1012 
1012 1012 1012 1012 1012 1012 1012 1012 1012 
1012 1012 1012 1012 1012 1012 1012 1012 1012 
1012 1012 1012 1012 1012 1012 1012 1012 1012 
1012 1012 1012 1012 1012 1012 1012 1012 1012 
1012 1012 1012 1012 1012 1012 1012 1012 1012 
1012 1012 1012 1012 1012 1012 1012 1012 1012 
1012 1012 1012 1012 1012 1012 1012 1012 1012 
1012 1012 1012 1012 1012 1012 1012 1012 1012 
1012 1012 1012 1012 1012 1012 1012 1012 1012 
1012 1012 1012 1012 1012 1012 1012 1012 1012 
1012 1012 1012 1012 1012 1012 1012 1012 1012 
1012 1012 1012 1012 1012 1012 1012 1012 1012 
1012 1012 1012 1012 1012 1012 1012 1012 1012 
1012 1012 1012 1012 1012 1012 1012 1012 1012 
1012 1012 1012 1012 1012 1012 1012 1012 1012 
1012 1012 1012 1012 1012 1012 1012 1012 1012 
1012 1012 1012 1012 1012 1012 1012 1012 1012 
1012 1012 1012 1012 1012 1012 1012 1012 1012 
1012 1012 1012 1012 1012 1012 1012 1012 1012 
1012 1012 1012 1012 1012 1012 1012 1012 1012 
1012 1012 1012 1012 1012 1012 1012 1012 1012 
1012 1012 1012 1012 1012 1012 1012 1012 1012 
1012 1012 1012 1012 1012 1012 1012 1012 1012 
1012 1012 1012 1012 1012 1012 1012 1012 1012 
1012 1012 1012 1012 1012 1012 1012 1012 1012 
1012 1012 1012 1012 1012 1012 1012 1012 1012 
1012 1012 1012 1012 1012 1012 1012 1012 1012 
1012 1012 1012 1012 1012 1012 1012 1012 1012 
1012 1012 1012 1012 1012 1012 1012 1012 1012 
1012 1012 1012 1012 1012 1012 1012 1012 1012 
1012 1012 1012 1012 1012 1012 1012 1012 1012 
1012 1012 1012 1012 1012 1012 1012 1012 1012 
1012 1012 1012 1012 1012 1012 1012 1012 1012 
1012 1012 1012 1012 1012 1012 1012 1012 1012 
1012 1012 1012 1012 1012 1012 1012 1012 1012 
1012 1012 1012 1012 1012 1012 1012 1012 1012 
1012 1012 1012 1012 1012 1012 1012 1012 1012 
1012 1012 1012 1012 1012 1012 1012 1012 1012 
1012 1012 1012 1012 1012 1012 1012 1012 1012 
1012 1012 1012 1012 1012 1012 1012 1012 1012 
1012 1012 1012 1012 1012 1012 1012 1012 1012 
1012 1012 1012 1012 1012 1012 1012 1012 1012 
1012 1012 1012 1012 1012 1012 1012 1012 1012 
1012 1012 1012 1012 1012 1012 1012 1012 1012 
1012 1012 1012 1012 1012 1012 1012 1012 1012 
1012 1012 1012 1012 1012 1012 1012 1012 1012 
1012 1012 1012 1012 1012 1012 1012 1012 1012 
1012 1012 1012 1012 1012 1012 1012 1012 1012 
1012 1012 1012 1012 1012 1012 1012 1012 1012 
1012 1012 1012 1012 1012 1012 1012 1012 1012 
1012 1012 1012 1012 1012 1012 1012 1012 1012 
1012 1012 1012 1012 1012 1012 1012 1012 1012 
1012 1012 1012 1012 1012 1012 1012 1012 1012 
1012 1012 1012 1012 1012 1012 1012 1012 1012 
1012 1012 1012 1012 1012 1012 1012 1012 1012 
1012 1012 1012 1012 1012 1012 1012 1012 1012 
1012 1012 1012 1012 1012 1012 1012 1012 1012 
1012 1012 1012 1012 1012 1012 1012 1012 1012 
1012 1012 1012 1012 1012 1012 1012 1012 1012 
1012 1012 1012 1012 1012 1012 1012 1012 1012 
1012 1012 1012 1012 1012 1012 1012 1012 1012 
1012 1012 1012 1012 1012 1012 1012 1012 1012 
1012 1012 1012 1012 1012 1012 1012 1012 1012 
1012 1012 1012 1012 1012 1012 1012 1012 1012 
1012 1012 1012 1012 1012 1012 1012 1012 1012 
1012 1012 1012 1012 1012 1012 1012 1012 1012 
1012 1012 1012 1012 1012 1012 1012 1012 1012 
1012 1012 1012 1012 1012 1012 1012 1012 1012 
1012 1012 1012 1012 1012 1012 1012 1012 1012 
1012 1012 1012 1012 1012 1012 1012 1012 1012 
1012 1012 1012 1012 1012 1012 1012 1012 1012 
1012 1012 1012 1012 1012 1012 1012 1012 1012 
1012 1012 1012 1012 1012 1012 1012 1012 1012 
1012 1012 1012 1012 1012 1012 1012 1012 1012 
1012 1012 1012 1012 1012 1012 1012 1012 1012 
1012 1012 1012 1012 1012 1012 1012 1012 1012 
1012 1012 1012 1012 1012 1012 1012 1012 1012 
1012 1012 1012 1012 1012 1012 1012 1012 1012 
1012 1012 1012 1012 1012 1012 1012 1012 1012 
1012 1012 1012 1012 1012 1012 1012 1012 1012 
1012 1012 1012 1012 1012 1012 1012 1012 1012 
1012 1012 1012 1012 1012 1012 1012 1012 1012 