# vtk DataFile Version 4.2
vtk output
ASCII
DATASET POLYDATA
POINTS 2456 float
-31.1133 -29.7282 40.7816 -31.462 -29.0507 40.3723 -31.6906 -29.5506 40.4269 
-30.9651 -29.3021 40.4763 -31.3084 -30.6183 40.9683 -31.9127 -30.5155 40.3341 
-30.4583 -29.8156 40.628 -30.1873 -30.5305 40.9459 -29.0116 -30.6839 40.9296 
-29.6166 -29.9872 40.5542 -28.0719 -30.8174 40.8491 -28.6109 -30.0983 40.5403 
-27.8436 -30.355 40.4839 -32.0543 -31.4379 40.9194 -32.3018 -31.2413 40.409 
-32.6464 -31.8131 40.5072 -31.2214 -31.6732 41.0984 -30.3394 -31.544 41.0794 
-29.2853 -31.5298 41.0651 -28.4181 -31.4159 41.0572 -27.2244 -30.8831 40.378 
-27.5973 -31.6391 40.8082 -26.8494 -31.4564 40.3682 -32.4319 -32.2415 40.8088 
-32.7266 -32.683 40.2947 -31.6608 -32.3477 40.9257 -30.6293 -32.4085 40.9019 
-29.585 -32.4153 40.8842 -28.4883 -32.3082 40.8645 -27.692 -32.3706 40.6118 
-27.0893 -31.9703 40.4558 -32.0967 -32.9396 40.533 -31.0925 -33.0348 40.516 
-30.0367 -33.0667 40.4841 -29.0166 -33.0581 40.4853 -28.1716 -32.8865 40.4508 
-31.0531 -28.6451 39.9928 -31.2724 -28.0715 39.5754 -31.8168 -28.6726 39.5083 
-30.1478 -28.758 39.8364 -30.4419 -27.9768 39.3726 -29.7856 -28.4429 39.3705 
-31.8708 -29.6407 39.6909 -30.3058 -29.348 40.2501 -29.2829 -28.8807 39.4489 
-29.229 -29.3969 40.0297 -28.0181 -29.6773 40.0402 -28.3052 -29.1303 39.3981 
-27.2973 -29.7221 39.7779 -27.5219 -29.2746 39.4888 -27.0401 -29.4907 39.2463 
-31.8593 -30.3608 39.3699 -27.4109 -30.2335 40.1177 -26.7652 -30.2195 39.4647 
-32.4681 -31.6559 39.9873 -32.0007 -31.3053 39.45 -26.4174 -31.8538 39.9611 
-26.4557 -31.0585 39.7904 -25.9216 -31.4277 39.459 -32.292 -32.0631 39.3823 
-32.7051 -32.3399 39.8086 -27.1983 -32.7634 40.1665 -26.266 -32.68 39.84 
-25.7557 -32.2385 39.5038 -32.2962 -33.5908 40.0816 -32.7489 -33.5499 39.5039 
-31.3364 -33.6921 40.1667 -30.2825 -33.7016 40.1343 -29.2839 -33.7145 40.1191 
-28.1751 -33.5694 40.1075 -27.3158 -33.5572 39.9973 -26.6202 -33.5714 39.8178 
-25.8241 -33.1843 39.4954 -32.4241 -34.3152 39.7461 -32.7523 -34.7563 39.2123 
-31.47 -34.5458 39.9065 -30.3249 -34.5403 39.9885 -29.4785 -34.4106 39.9758 
-28.5929 -34.6037 39.8556 -27.4878 -34.3032 39.7903 -26.7249 -34.3475 39.5602 
-26.1243 -33.9429 39.442 -32.0947 -35.0365 39.4927 -31.2565 -35.2487 39.6129 
-30.8276 -35.5964 39.5214 -30.4899 -35.2962 39.7947 -29.465 -35.2962 39.7947 
-28.7113 -35.4178 39.5593 -27.9729 -35.1129 39.4703 -27.192 -34.8431 39.4129 
-30.2597 -35.9773 39.3597 -29.2001 -35.9042 39.4345 -31.3027 -27.6452 39.0201 
-31.3331 -27.2063 38.2479 -31.8943 -27.7493 38.3082 -30.4352 -27.4397 38.9711 
-30.4294 -26.9642 38.2196 -29.7996 -27.4744 38.5718 -32.2648 -28.197 38.7867 
-32.4269 -28.1911 38.4579 -32.5404 -28.447 38.4888 -29.197 -28.5803 38.9588 
-29.3154 -28.0207 38.527 -28.7468 -28.4731 38.3675 -32.3217 -28.7174 38.6538 
-31.9038 -29.584 38.6225 -28.3871 -28.842 38.6209 -27.3278 -29.1175 38.6051 
-26.6413 -29.5502 38.5093 -31.8238 -30.7004 38.6552 -26.115 -29.9801 38.4958 
-25.918 -30.6796 39.0736 -25.2571 -30.7768 38.7625 -25.4972 -30.2578 38.505 
-25.0412 -30.5023 38.2764 -31.8042 -31.3614 38.336 -25.3507 -31.6162 39.0119 
-24.8911 -31.227 38.3637 -32.3701 -32.827 39.0774 -31.8012 -32.2126 38.4866 
-25.2638 -32.7523 39.0365 -24.7533 -32.2475 38.3812 -32.4698 -33.6089 38.8292 
-31.8876 -33.2111 38.4855 -25.4284 -33.8147 39.0174 -24.7645 -33.3154 38.5343 
-32.2099 -33.9532 38.4217 -32.7188 -34.3757 38.7393 -26.199 -34.7418 39.1666 
-25.2919 -34.7126 38.8485 -24.7929 -34.4364 38.4112 -32.4428 -35.4452 38.9532 
-32.6627 -35.2501 38.521 -31.5286 -35.6702 39.1298 -28.3158 -35.9096 39.1903 
-27.1677 -35.5423 39.1178 -26.1299 -35.6926 39.0188 -25.4185 -35.5369 38.8628 
-24.9487 -35.3576 38.4981 -32.1117 -35.8169 38.4131 -31.1857 -36.1716 38.6174 
-30.2584 -36.6509 38.8845 -30.8045 -36.5625 38.1772 -29.2024 -36.5967 39.137 
-28.1603 -36.7394 39.0126 -27.4796 -36.389 38.9858 -26.5536 -36.5527 38.886 
-25.592 -36.4121 38.7769 -24.9761 -36.3381 38.2554 -30.1988 -37.0533 38.5164 
-29.7595 -37.5581 38.2329 -29.5387 -37.2958 38.8397 -28.5717 -37.4381 38.8909 
-27.4676 -37.3074 38.8134 -26.6546 -37.3943 38.6083 -25.9109 -37.1549 38.5283 
-25.2569 -37.0515 38.3223 -29.0878 -37.8384 38.5485 -28.2028 -38.073 38.4324 
-27.1983 -37.9102 38.4632 -30.2989 -26.4211 37.7846 -30.3417 -25.985 37.3579 
-30.6873 -26.5064 37.3458 -29.8945 -26.327 37.3241 -31.1018 -27.0933 37.5594 
-31.5119 -27.3765 37.6872 -29.2641 -27.5369 38.0546 -29.4678 -27.139 37.7466 
-28.895 -27.6134 37.3359 -32.0282 -28.591 38.1619 -31.4247 -27.9678 37.5238 
-31.2809 -28.8258 37.7099 -31.0404 -28.6451 37.2936 -28.1622 -28.598 37.9035 
-28.3542 -28.1862 37.5244 -27.7069 -28.4964 37.2916 -31.4898 -29.5145 37.8483 
-31.0909 -29.3589 37.541 -27.36 -28.844 37.5838 -26.0874 -29.5701 37.8485 
-26.4053 -29.174 37.4961 -25.6787 -29.4375 37.2733 -31.3616 -29.7983 37.365 
-31.71 -30.4188 37.6304 -25.4307 -29.9386 37.8067 -24.8778 -30.4283 37.4409 
-31.6993 -31.5207 37.3571 -24.5876 -31.3946 37.4729 -31.3545 -32.1628 37.5666 
-31.2594 -32.8135 37.9153 -30.9819 -32.4939 37.2613 -24.3274 -32.1236 37.6939 
-24.2787 -32.8725 37.9775 -23.9993 -32.3483 37.2541 -31.4845 -33.8179 37.9742 
-30.7385 -33.331 37.2462 -24.2932 -33.8107 38.0194 -23.9224 -33.269 37.3786 
-32.2541 -34.6413 38.18 -31.6203 -34.7649 37.7388 -30.9983 -34.4239 37.3472 
-24.3761 -34.6148 37.8524 -23.8802 -34.2078 37.3458 -32.1334 -35.4227 37.9494 
-31.6335 -35.4096 37.5308 -31.2617 -35.1145 37.2881 -24.6258 -35.4649 37.8344 
-24.1567 -34.973 37.4344 -31.5418 -35.9956 37.7847 -30.8777 -36.3772 37.1931 
-24.6154 -36.3853 37.4994 -30.3434 -37.0396 37.7549 -29.8695 -37.7599 37.2529 
-26.3456 -37.941 38.2285 -25.3963 -37.7259 38.0288 -24.7765 -37.2881 37.6488 
-29.1835 -38.1595 37.874 -28.4597 -38.5314 37.8857 -28.9834 -38.6597 37.3995 
-27.4493 -38.4794 38.04 -26.5021 -38.603 37.9074 -25.6434 -38.4816 37.8251 
-24.8495 -38.2563 37.5097 -28.2196 -38.9077 37.2957 -27.0853 -38.9403 37.4281 
-26.0441 -38.9724 37.3995 -25.0832 -38.8992 37.2404 -30.2286 -25.5569 36.9264 
-30.3108 -25.3297 36.5196 -30.5359 -25.6849 36.7477 -30.0482 -25.6413 36.6173 
-30.9452 -26.3977 36.3239 -29.671 -26.213 36.3795 -31.3029 -27.45 37.2188 
-31.0907 -27.5358 36.8737 -29.2736 -26.956 36.8286 -28.8102 -27.396 36.1721 
-31.4052 -27.9553 36.3321 -31.5724 -28.6338 36.3484 -31.1957 -28.5013 36.8384 
-28.2067 -27.944 36.4346 -27.124 -28.6065 36.8395 -27.4246 -28.2484 36.4891 
-26.6785 -28.47 36.2753 -31.2439 -29.2379 37.0668 -31.5765 -29.546 36.5246 
-26.4691 -28.8157 36.7005 -25.1932 -29.6464 37.0488 -25.5979 -29.0633 36.6066 
-24.9497 -29.458 36.3558 -31.7262 -30.66 36.4814 -24.6864 -30.5233 36.3332 
-31.7347 -31.7202 36.233 -24.3597 -31.1949 36.5658 -24.2132 -31.6911 37.1004 
-24.0054 -31.6561 36.4052 -31.311 -32.0709 36.8001 -30.8595 -32.6044 36.7331 
-23.7969 -32.4911 36.4754 -30.5534 -33.119 36.4336 -30.2979 -33.6314 36.7705 
-30.0845 -33.8052 36.2388 -23.6169 -33.3996 36.457 -30.1941 -34.0222 36.5557 
-30.5062 -34.2519 36.8127 -23.4169 -34.1181 36.6749 -23.5016 -34.8595 36.9331 
-23.0166 -34.3175 36.2393 -31.2755 -35.6836 37.2002 -30.7978 -35.4797 36.6119 
-24.0655 -35.7472 37.1659 -23.3067 -35.6788 36.8396 -22.7895 -35.2319 36.34 
-30.7063 -36.7084 36.2485 -24.1697 -36.852 37.1112 -23.4383 -36.536 36.8713 
-22.7545 -36.2765 36.5347 -30.3786 -37.145 36.7862 -30.0865 -37.8528 36.2649 
-24.2909 -37.7663 37.1697 -23.6245 -37.657 36.8223 -22.8285 -37.2415 36.5369 
-29.4589 -38.4269 37.1246 -29.6909 -38.4577 36.4033 -24.2819 -38.4805 37.0014 
-23.7804 -38.4556 36.5133 -23.0672 -38.0487 36.1818 -29.0525 -38.9091 36.575 
-28.2302 -39.0748 36.3692 -27.3709 -39.0709 36.5324 -26.3163 -39.1025 36.5509 
-25.2913 -39.1202 36.5039 -24.4139 -38.9192 36.4581 -30.3259 -25.7356 36.0782 
-31.3191 -26.5646 35.8587 -31 -26.1303 35.4787 -31.5368 -26.773 35.5596 
-30.3153 -25.7754 35.5 -29.4619 -25.9389 35.4227 -29.2271 -26.7 36.0598 
-28.8522 -26.7318 35.4389 -31.3787 -27.1564 36.0468 -31.8805 -27.6571 35.3379 
-28.6035 -27.3602 35.4303 -31.6815 -28.6659 35.4908 -28.3318 -27.8039 35.6652 
-27.6151 -27.9408 35.5988 -25.9355 -28.5016 36.0072 -26.5631 -28.0405 35.6023 
-25.2487 -28.646 35.9448 -25.3318 -27.9981 35.2856 -24.7783 -28.6504 35.499 
-31.3712 -29.1685 35.6023 -31.3352 -29.8351 35.931 -31.0618 -29.4977 35.2773 
-24.7199 -29.6614 35.4579 -31.4606 -30.6025 35.8624 -30.9989 -30.4015 35.2552 
-24.6915 -30.5124 35.2671 -31.4016 -31.0043 35.5163 -31.7404 -31.4651 35.5827 
-24.2555 -31.0227 35.5291 -23.7597 -31.6738 35.501 -31.2564 -32.4514 36.1061 
-31.6972 -32.3868 35.381 -23.5806 -32.4699 35.5741 -31.0734 -33.027 35.5902 
-30.4214 -33.458 35.9026 -30.718 -33.5136 35.1537 -23.1844 -33.0117 35.3594 
-23.2304 -33.7 36.0598 -22.8001 -33.6718 35.463 -30.1902 -34.6814 36.1455 
-30.1606 -33.8545 35.5934 -29.9234 -34.3893 35.4796 -22.57 -34.4339 35.6266 
-30.3708 -35.6217 35.8331 -29.9304 -35.337 35.2484 -22.3315 -35.1101 35.6856 
-22.2518 -35.8988 35.9642 -21.9651 -35.3553 35.2414 -30.2524 -36.1399 35.311 
-30.6285 -36.3884 35.7097 -22.2214 -36.8685 36.0811 -21.8485 -36.3496 35.3732 
-30.4434 -37.4142 36.0322 -30.5834 -37.254 35.5254 -22.3645 -37.6107 36.0633 
-21.9124 -37.2935 35.4284 -30.3101 -37.8399 35.6033 -29.8721 -38.3431 35.321 
-23.7497 -38.6124 35.7697 -23.1171 -38.26 35.2076 -22.3744 -37.9102 35.4395 
-29.2359 -38.9587 35.5023 -28.3718 -39.0901 35.5082 -27.3632 -39.0637 35.5002 
-26.3152 -39.0751 35.4981 -25.2963 -39.1018 35.4667 -24.4362 -38.9747 35.5015 
-29.3391 -24.7694 34.8295 -29.3675 -24.2765 34.3523 -29.7678 -24.6265 34.5453 
-29.0042 -24.4446 34.345 -30.1672 -25.4488 34.9723 -30.2705 -25.0437 34.1976 
-30.6081 -25.5553 34.4015 -29.4 -25.3715 35.0572 -28.7993 -25.2272 34.4865 
-31.5598 -26.7237 34.9828 -31.0272 -26.1389 34.5634 -28.1751 -26.9175 34.8748 
-28.3673 -26.0525 34.4642 -27.7792 -26.4734 34.2939 -32.3991 -27.5374 34.7533 
-32.0671 -27.2065 34.4622 -32.5124 -27.5552 34.4813 -31.5186 -26.6913 34.4698 
-28.1016 -27.5826 35.1811 -27.4346 -26.891 34.5084 -27.243 -27.4556 34.9617 
[...]
CELL_DATA 4908
SCALARS scalars float
LOOKUP_TABLE default
2033 2033 2033 2033 2033 2033 2033 2033 2033 
2033 2033 2033 2033 2033 2033 2033 2033 2033 
2033 2033 2033 2033 2033 2033 2033 2033 2033 
2033 2033 2033 2033 2033 2033 2033 2033 2033 
2033 2033 2033 2033 2033 2033 2033 2033 2033 
2033 2033 2033 2033 2033 2033 2033 2033 2033 
2033 2033 2033 2033 2033 2033 2033 2033 2033 
2033 2033 2033 2033 2033 2033 2033 2033 2033 
2033 2033 2033 2033 2033 2033 2033 2033 2033 
2033 2033 2033 2033 2033 2033 2033 2033 2033 
2033 2033 2033 2033 2033 2033 2033 2033 2033 
2033 2033 2033 2033 2033 2033 2033 2033 2033 
2033 2033 2033 2033 2033 2033 2033 2033 2033 
2033 2033 2033 2033 2033 2033 2033 2033 2033 
2033 2033 2033 2033 2033 2033 2033 2033 2033 
2033 2033 2033 2033 2033 2033 2033 2033 2033 
2033 2033 2033 2033 2033 2033 2033 2033 2033 
2033 2033 2033 2033 2033 2033 2033 2033 2033 
2033 2033 2033 2033 2033 2033 2033 2033 2033 
2033 2033 2033 2033 2033 2033 2033 2033 2033 
2033 2033 2033 2033 2033 2033 2033 2033 2033 
2033 2033 2033 2033 2033 2033 2033 2033 2033 
2033 2033 2033 2033 2033 2033 2033 2033 2033 
2033 2033 2033 2033 2033 2033 2033 2033 2033 
2033 2033 2033 2033 2033 2033 2033 2033 2033 
2033 2033 2033 2033 2033 2033 2033 2033 2033 
2033 2033 2033 2033 2033 2033 2033 2033 2033 
2033 2033 2033 2033 2033 2033 2033 2033 2033 
2033 2033 2033 2033 2033 2033 2033 2033 2033 
2033 2033 2033 2033 2033 2033 2033 2033 2033 
2033 2033 2033 2033 2033 2033 2033 2033 2033 
2033 2033 2033 2033 2033 2033 2033 2033 2033 
2033 2033 2033 2033 2033 2033 2033 2033 2033 
2033 2033 2033 2033 2033 2033 2033 2033 2033 
2033 2033 2033 2033 2033 2033 2033 2033 2033 
2033 2033 2033 2033 2033 2033 2033 2033 2033 
2033 2033 2033 2033 2033 2033 2033 2033 2033 
2033 2033 2033 2033 2033 2033 2033 2033 2033 
2033 2033 2033 2033 2033 2033 2033 2033 2033 
2033 2033 2033 2033 2033 2033 2033 2033 2033 
2033 2033 2033 2033 2033 2033 2033 2033 2033 
2033 2033 2033 2033 2033 2033 2033 2033 2033 
2033 2033 2033 2033 2033 2033 2033 2033 2033 
2033 2033 2033 2033 2033 2033 2033 2033 2033 
2033 2033 2033 2033 2033 2033 2033 2033 2033 
2033 2033 2033 2033 2033 2033 2033 2033 2033 
2033 2033 2033 2033 2033 2033 2033 2033 2033 
2033 2033 2033 2033 2033 2033 2033 2033 2033 
2033 2033 2033 2033 2033 2033 2033 2033 2033 
2033 2033 2033 2033 2033 2033 2033 2033 2033 
2033 2033 2033 2033 2033 2033 2033 2033 2033 
2033 2033 2033 2033 2033 2033 2033 2033 2033 
2033 2033 2033 2033 2033 2033 2033 2033 2033 
2033 2033 2033 2033 2033 2033 2033 2033 2033 
2033 2033 2033 2033 2033 2033 2033 2033 2033 
2033 2033 2033 2033 2033 2033 2033 2033 2033 
2033 2033 2033 2033 2033 2033 2033 2033 2033 
2033 2033 2033 2033 2033 2033 2033 2033 2033 
2033 2033 2033 2033 2033 2033 2033 2033 2033 
2033 2033 2033 2033 2033 2033 2033 2033 2033 
2033 2033 2033 2033 2033 2033 2033 2033 2033 
2033 2033 2033 2033 2033 2033 2033 2033 2033 
2033 2033 2033 2033 2033 2033 2033 2033 2033 
2033 2033 2033 2033 2033 2033 2033 2033 2033 
2033 2033 2033 2033 2033 2033 2033 2033 2033 
2033 2033 2033 2033 2033 2033 2033 2033 2033 
2033 2033 2033 2033 2033 2033 2033 2033 2033 
2033 2033 2033 2033 2033 2033 2033 2033 2033 
2033 2033 2033 2033 2033 2033 2033 2033 2033 
2033 2033 2033 2033 2033 2033 2033 2033 2033 
2033 2033 2033 2033 2033 2033 2033 2033 2033 
2033 2033 2033 2033 2033 2033 2033 2033 2033 
2033 2033 2033 2033 2033 2033 2033 2033 2033 
2033 2033 2033 2033 2033 2033 2033 2033 2033 
2033 2033 2033 2033 2033 2033 2033 2033 2033 
2033 2033 2033 2033 2033 2033 2033 2033 2033 
2033 2033 2033 2033 2033 2033 2033 2033 2033 
2033 2033 2033 2033 2033 2033 2033 2033 2033 
2033 2033 2033 2033 2033 2033 2033 2033 2033 
2033 2033 2033 2033 2033 2033 2033 2033 2033 
2033 2033 2033 2033 2033 2033 2033 2033 2033 
2033 2033 2033 2033 2033 2033 2033 2033 2033 
2033 2033 2033 2033 2033 2033 2033 2033 2033 
2033 2033 2033 2033 2033 2033 2033 2033 2033 
2033 2033 2033 2033 2033 2033 2033 2033 2033 
2033 2033 2033 2033 2033 2033 2033 2033 2033 
2033 2033 2033 2033 2033 2033 2033 2033 2033 
2033 2033 2033 2033 2033 2033 2033 2033 2033 
2033 2033 2033 2033 2033 2033 2033 2033 2033 
2033 2033 2033 2033 2033 2033 2033 2033 2033 
2033 2033 2033 2033 2033 2033 2033 2033 2033 
2033 2033 2033 2033 2033 2033 2033 2033 2033 
2033 2033 2033 2033 2033 2033 2033 2033 2033 
2033 2033 2033 2033 2033 2033 2033 2033 2033 
2033 2033 2033 2033 2033 2033 2033 2033 2033 
2033 2033 2033 2033 2033 2033 2033 2033 2033 
2033 2033 2033 2033 2033 2033 2033 2033 2033 
2033 2033 2033 2033 2033 2033 2033 2033 2033 
2033 2033 2033 2033 2033 2033 2033 2033 2033 
2033 2033 2033 2033 2033 2033 2033 2033 2033 
2033 2033 2033 2033 2033 2033 2033 2033 2033 
2033 2033 2033 2033 2033 2033 2033 2033 2033 
2033 2033 2033 2033 2033 2033 2033 2033 2033 
2033 2033 2033 2033 2033 2033 2033 2033 2033 
2033 2033 2033 2033 2033 2033 2033 2033 2033 
2033 2033 2033 2033 2033 2033 2033 2033 2033 
2033 2033 2033 2033 2033 2033 2033 2033 2033 
2033 2033 2033 2033 2033 2033 2033 2033 2033 
2033 2033 2033 2033 2033 2033 2033 2033 2033 
2033 2033 2033 2033 2033 2033 2033 2033 2033 
2033 2033 2033 2033 2033 2033 2033 2033 2033 
2033 2033 2033 2033 2033 2033 2033 2033 2033 
2033 2033 2033 2033 2033 2033 2033 2033 2033 
2033 2033 2033 2033 2033 2033 2033 2033 2033 
2033 2033 2033 2033 2033 2033 2033 2033 2033 
2033 2033 2033 2033 2033 2033 2033 2033 2033 
2033 2033 2033 2033 2033 2033 2033 2033 2033 
2033 2033 2033 2033 2033 2033 2033 2033 2033 
2033 2033 2033 2033 2033 2033 2033 2033 2033 
2033 2033 2033 2033 2033 2033 2033 2033 2033 
2033 2033 2033 2033 2033 2033 2033 2033 2033 
2033 2033 2033 2033 2033 2033 2033 2033 2033 
2033 2033 2033 2033 2033 2033 2033 2033 2033 
2033 2033 2033 2033 2033 2033 2033 2033 2033 
2033 2033 2033 2033 2033 2033 2033 2033 2033 
2033 2033 2033 2033 2033 2033 2033 2033 2033 
2033 2033 2033 2033 2033 2033 2033 2033 2033 
2033 2033 2033 2033 2033 2033 2033 2033 2033 
2033 2033 2033 2033 2033 2033 2033 2033 2033 
2033 2033 2033 2033 2033 2033 2033 2033 2033 
2033 2033 2033 2033 2033 2033 2033 2033 2033 
2033 2033 2033 2033 2033 2033 2033 2033 2033 
2033 2033 2033 2033 2033 2033 2033 2033 2033 
2033 2033 2033 2033 2033 2033 2033 2033 2033 
2033 2033 2033 2033 2033 2033 2033 2033 2033 
2033 2033 2033 2033 2033 2033 2033 2033 2033 
2033 2033 2033 2033 2033 2033 2033 2033 2033 
2033 2033 2033 2033 2033 2033 2033 2033 2033 
2033 2033 2033 2033 2033 2033 2033 2033 2033 
2033 2033 2033 2033 2033 2033 2033 2033 2033 
2033 2033 2033 2033 2033 2033 2033 2033 2033 
2033 2033 2033 2033 2033 2033 2033 2033 2033 
2033 2033 2033 2033 2033 2033 2033 2033 2033 
2033 2033 2033 2033 2033 2033 2033 2033 2033 
2033 2033 2033 2033 2033 2033 2033 2033 2033 
2033 2033 2033 2033 2033 2033 2033 2033 2033 
2033 2033 2033 2033 2033 2033 2033 2033 2033 
2033 2033 2033 2033 2033 2033 2033 2033 2033 
2033 2033 2033 2033 2033 2033 2033 2033 2033 
2033 2033 2033 2033 2033 2033 2033 2033 2033 
2033 2033 2033 2033 2033 2033 2033 2033 2033 
2033 2033 2033 2033 2033 2033 2033 2033 2033 
2033 2033 2033 2033 2033 2033 2033 2033 2033 
2033 2033 2033 2033 2033 2033 2033 2033 2033 
2033 2033 2033 2033 2033 2033 2033 2033 2033 
2033 2033 2033 2033 2033 2033 2033 2033 2033 
2033 2033 2033 2033 2033 2033 2033 2033 2033 
2033 2033 2033 2033 2033 2033 2033 2033 2033 
2033 2033 2033 2033 2033 2033 2033 2033 2033 
2033 2033 2033 2033 2033 2033 2033 2033 2033 
2033 2033 2033 2033 2033 2033 2033 2033 2033 
2033 2033 2033 2033 2033 2033 2033 2033 2033 
2033 2033 2033 2033 2033 2033 2033 2033 2033 
2033 2033 2033 2033 2033 2033 2033 2033 2033 
2033 2033 2033 2033 2033 2033 2033 2033 2033 
2033 2033 2033 2033 2033 2033 2033 2033 2033 
2033 2033 2033 2033 2033 2033 2033 2033 2033 
2033 2033 2033 2033 2033 2033 2033 2033 2033 
2033 2033 2033 2033 2033 2033 2033 2033 2033 
2033 2033 2033 2033 2033 2033 2033 2033 2033 
2033 2033 2033 2033 2033 2033 2033 2033 2033 
2033 2033 2033 2033 2033 2033 2033 2033 2033 
2033 2033 2033 2033 2033 2033 2033 2033 2033 
2033 2033 2033 2033 2033 2033 2033 2033 2033 
2033 2033 2033 2033 2033 2033 2033 2033 2033 
2033 2033 2033 2033 2033 2033 2033 2033 2033 
2033 2033 2033 2033 2033 2033 2033 2033 2033 
2033 2033 2033 2033 2033 2033 2033 2033 2033 
2033 2033 2033 2033 2033 2033 2033 2033 2033 
2033 2033 2033 2033 2033 2033 2033 2033 2033 
2033 2033 2033 2033 2033 2033 2033 2033 2033 
2033 2033 2033 2033 2033 2033 2033 2033 2033 
2033 2033 2033 2033 2033 2033 2033 2033 2033 
2033 2033 2033 2033 2033 2033 2033 2033 2033 
2033 2033 2033 2033 2033 2033 2033 2033 2033 
2033 2033 2033 2033 2033 2033 2033 2033 2033 
2033 2033 2033 2033 2033 2033 2033 2033 2033 
2033 2033 2033 2033 2033 2033 2033 2033 2033 
2033 2033 2033 2033 2033 2033 2033 2033 2033 
2033 2033 2033 2033 2033 2033 2033 2033 2033 
2033 2033 2033 2033 2033 2033 2033 2033 2033 
2033 2033 2033 2033 2033 2033 2033 2033 2033 
2033 2033 2033 2033 2033 2033 2033 2033 2033 
2033 2033 2033 2033 2033 2033 2033 2033 2033 
2033 2033 2033 2033 2033 2033 2033 2033 2033 
2033 2033 2033 2033 2033 2033 2033 2033 2033 
2033 2033 2033 2033 2033 2033 2033 2033 2033 
2033 2033 2033 2033 2033 2033 2033 2033 2033 
2033 2033 2033 2033 2033 2033 2033 2033 2033 
2033 2033 2033 2033 2033 2033 2033 2033 2033 
2033 2033 2033 2033 2033 2033 2033 2033 2033 
2033 2033 2033 2033 2033 2033 2033 2033 2033 
2033 2033 2033 2033 2033 2033 2033 2033 2033 
2033 2033 2033 2033 2033 2033 2033 2033 2033 
2033 2033 2033 2033 2033 2033 2033 2033 2033 
2033 2033 2033 2033 2033 2033 2033 2033 2033 
2033 2033 2033 2033 2033 2033 2033 2033 2033 
2033 2033 2033 2033 2033 2033 2033 2033 2033 
2033 2033 2033 2033 2033 2033 2033 2033 2033 
2033 2033 2033 2033 2033 2033 2033 2033 2033 
2033 2033 2033 2033 2033 2033 2033 2033 2033 
2033 2033 2033 2033 2033 2033 2033 2033 2033 
2033 2033 2033 2033 2033 2033 2033 2033 2033 
2033 2033 2033 2033 2033 2033 2033 2033 2033 
2033 2033 2033 2033 2033 2033 2033 2033 2033 
2033 2033 2033 2033 2033 2033 2033 2033 2033 
2033 2033 2033 2033 2033 2033 2033 2033 2033 
2033 2033 2033 2033 2033 2033 2033 2033 2033 
2033 2033 2033 2033 2033 2033 2033 2033 2033 
2033 2033 2033 2033 2033 2033 2033 2033 2033 
2033 2033 2033 2033 2033 2033 2033 2033 2033 
2033 2033 2033 2033 2033 2033 2033 2033 2033 
2033 2033 2033 2033 2033 2033 2033 2033 2033 
2033 2033 2033 2033 2033 2033 2033 2033 2033 
2033 2033 2033 2033 2033 2033 2033 2033 2033 
2033 2033 2033 2033 2033 2033 2033 2033 2033 
2033 2033 2033 2033 2033 2033 2033 2033 2033 
2033 2033 2033 2033 2033 2033 2033 2033 2033 
2033 2033 2033 2033 2033 2033 2033 2033 2033 
2033 2033 2033 2033 2033 2033 2033 2033 2033 
2033 2033 2033 2033 2033 2033 2033 2033 2033 
2033 2033 2033 2033 2033 2033 2033 2033 2033 
2033 2033 2033 2033 2033 2033 2033 2033 2033 
2033 2033 2033 2033 2033 2033 2033 2033 2033 
2033 2033 2033 2033 2033 2033 2033 2033 2033 
2033 2033 2033 2033 2033 2033 2033 2033 2033 
2033 2033 2033 2033 2033 2033 2033 2033 2033 
2033 2033 2033 2033 2033 2033 2033 2033 2033 
2033 2033 2033 2033 2033 2033 2033 2033 2033 
2033 2033 2033 2033 2033 2033 2033 2033 2033 
2033 2033 2033 2033 2033 2033 2033 2033 2033 
2033 2033 2033 2033 2033 2033 2033 2033 2033 
2033 2033 2033 2033 2033 2033 2033 2033 2033 
2033 2033 2033 2033 2033 2033 2033 2033 2033 
2033 2033 2033 2033 2033 2033 2033 2033 2033 
2033 2033 2033 2033 2033 2033 2033 2033 2033 
2033 2033 2033 2033 2033 2033 2033 2033 2033 
2033 2033 2033 2033 2033 2033 2033 2033 2033 
2033 2033 2033 2033 2033 2033 2033 2033 2033 
2033 2033 2033 2033 2033 2033 2033 2033 2033 
2033 2033 2033 2033 2033 2033 2033 2033 2033 
2033 2033 2033 2033 2033 2033 2033 2033 2033 
2033 2033 2033 2033 2033 2033 2033 2033 2033 
2033 2033 2033 2033 2033 2033 2033 2033 2033 
2033 2033 2033 2033 2033 2033 2033 2033 2033 
2033 2033 2033 2033 2033 2033 2033 2033 2033 
2033 2033 2033 2033 2033 2033 2033 2033 2033 
2033 2033 2033 2033 2033 2033 2033 2033 2033 
2033 2033 2033 2033 2033 2033 2033 2033 2033 
2033 2033 2033 2033 2033 2033 2033 2033 2033 
2033 2033 2033 2033 2033 2033 2033 2033 2033 
2033 2033 2033 2033 2033 2033 2033 2033 2033 
2033 2033 2033 2033 2033 2033 2033 2033 2033 
2033 2033 2033 2033 2033 2033 2033 2033 2033 
2033 2033 2033 2033 2033 2033 2033 2033 2033 
2033 2033 2033 2033 2033 2033 2033 2033 2033 
2033 2033 2033 2033 2033 2033 2033 2033 2033 
2033 2033 2033 2033 2033 2033 2033 2033 2033 
2033 2033 2033 2033 2033 2033 2033 2033 2033 
2033 2033 2033 2033 2033 2033 2033 2033 2033 
2033 2033 2033 2033 2033 2033 2033 2033 2033 
2033 2033 2033 2033 2033 2033 2033 2033 2033 
2033 2033 2033 2033 2033 2033 2033 2033 2033 
2033 2033 2033 2033 2033 2033 2033 2033 2033 
2033 2033 2033 2033 2033 2033 2033 2033 2033 
2033 2033 2033 2033 2033 2033 2033 2033 2033 
2033 2033 2033 2033 2033 2033 2033 2033 2033 
2033 2033 2033 2033 2033 2033 2033 2033 2033 
2033 2033 2033 2033 2033 2033 2033 2033 2033 
2033 2033 2033 2033 2033 2033 2033 2033 2033 
2033 2033 2033 2033 2033 2033 2033 2033 2033 
2033 2033 2033 2033 2033 2033 2033 2033 2033 
2033 2033 2033 2033 2033 2033 2033 2033 2033 
2033 2033 2033 2033 2033 2033 2033 2033 2033 
2033 2033 2033 2033 2033 2033 2033 2033 2033 
2033 2033 2033 2033 2033 2033 2033 2033 2033 
2033 2033 2033 2033 2033 2033 2033 2033 2033 
2033 2033 2033 2033 2033 2033 2033 2033 2033 
2033 2033 2033 2033 2033 2033 2033 2033 2033 
2033 2033 2033 2033 2033 2033 2033 2033 2033 
2033 2033 2033 2033 2033 2033 2033 2033 2033 
2033 2033 2033 2033 2033 2033 2033 2033 2033 
2033 2033 2033 2033 2033 2033 2033 2033 2033 
2033 2033 2033 2033 2033 2033 2033 2033 2033 
2033 2033 2033 2033 2033 2033 2033 2033 2033 
2033 2033 2033 2033 2033 2033 2033 2033 2033 
2033 2033 2033 2033 2033 2033 2033 2033 2033 
2033 2033 2033 2033 2033 2033 2033 2033 2033 
2033 2033 2033 2033 2033 2033 2033 2033 2033 
2033 2033 2033 2033 2033 2033 2033 2033 2033 
2033 2033 2033 2033 2033 2033 2033 2033 2033 
2033 2033 2033 2033 2033 2033 2033 2033 2033 
2033 2033 2033 2033 2033 2033 2033 2033 2033 
2033 2033 2033 2033 2033 2033 2033 2033 2033 
2033 2033 2033 2033 2033 2033 2033 2033 2033 
2033 2033 2033 2033 2033 2033 2033 2033 2033 
2033 2033 2033 2033 2033 2033 2033 2033 2033 
2033 2033 2033 2033 2033 2033 2033 2033 2033 
2033 2033 2033 2033 2033 2033 2033 2033 2033 
2033 2033 2033 2033 2033 2033 2033 2033 2033 
2033 2033 2033 2033 2033 2033 2033 2033 2033 
2033 2033 2033 2033 2033 2033 2033 2033 2033 
2033 2033 2033 2033 2033 2033 2033 2033 2033 
2033 2033 2033 2033 2033 2033 2033 2033 2033 
2033 2033 2033 2033 2033 2033 2033 2033 2033 
2033 2033 2033 2033 2033 2033 2033 2033 2033 
2033 2033 2033 2033 2033 2033 2033 2033 2033 
2033 2033 2033 2033 2033 2033 2033 2033 2033 
2033 2033 2033 2033 2033 2033 2033 2033 2033 
2033 2033 2033 2033 2033 2033 2033 2033 2033 
2033 2033 2033 2033 2033 2033 2033 2033 2033 
2033 2033 2033 2033 2033 2033 2033 2033 2033 
2033 2033 2033 2033 2033 2033 2033 2033 2033 
2033 2033 2033 2033 2033 2033 2033 2033 2033 
2033 2033 2033 2033 2033 2033 2033 2033 2033 
2033 2033 2033 2033 2033 2033 2033 2033 2033 
2033 2033 2033 2033 2033 2033 2033 2033 2033 
2033 2033 2033 2033 2033 2033 2033 2033 2033 
2033 2033 2033 2033 2033 2033 2033 2033 2033 
2033 2033 2033 2033 2033 2033 2033 2033 2033 
2033 2033 2033 2033 2033 2033 2033 2033 2033 
2033 2033 2033 2033 2033 2033 2033 2033 2033 
2033 2033 2033 2033 2033 2033 2033 2033 2033 
2033 2033 2033 2033 2033 2033 2033 2033 2033 
2033 2033 2033 2033 2033 2033 2033 2033 2033 
2033 2033 2033 2033 2033 2033 2033 2033 2033 
2033 2033 2033 2033 2033 2033 2033 2033 2033 
2033 2033 2033 2033 2033 2033 2033 2033 2033 
2033 2033 2033 2033 2033 2033 2033 2033 2033 
2033 2033 2033 2033 2033 2033 2033 2033 2033 
2033 2033 2033 2033 2033 2033 2033 2033 2033 
2033 2033 2033 2033 2033 2033 2033 2033 2033 
2033 2033 2033 2033 2033 2033 2033 2033 2033 
2033 2033 2033 2033 2033 2033 2033 2033 2033 
2033 2033 2033 2033 2033 2033 2033 2033 2033 
2033 2033 2033 2033 2033 2033 2033 2033 2033 
2033 2033 2033 2033 2033 2033 2033 2033 2033 
2033 2033 2033 2033 2033 2033 2033 2033 2033 
2033 2033 2033 2033 2033 2033 2033 2033 2033 
2033 2033 2033 2033 2033 2033 2033 2033 2033 
2033 2033 2033 2033 2033 2033 2033 2033 2033 
2033 2033 2033 2033 2033 2033 2033 2033 2033 
2033 2033 2033 2033 2033 2033 2033 2033 2033 
2033 2033 2033 2033 2033 2033 2033 2033 2033 
2033 2033 2033 2033 2033 2033 2033 2033 2033 
2033 2033 2033 2033 2033 2033 2033 2033 2033 
2033 2033 2033 2033 2033 2033 2033 2033 2033 
2033 2033 2033 2033 2033 2033 2033 2033 2033 
2033 2033 2033 2033 2033 2033 2033 2033 2033 
2033 2033 2033 2033 2033 2033 2033 2033 2033 
2033 2033 2033 2033 2033 2033 2033 2033 2033 
2033 2033 2033 2033 2033 2033 2033 2033 2033 
2033 2033 2033 2033 2033 2033 2033 2033 2033 
2033 2033 2033 2033 2033 2033 2033 2033 2033 
2033 2033 2033 2033 2033 2033 2033 2033 2033 
2033 2033 2033 2033 2033 2033 2033 2033 2033 
2033 2033 2033 2033 2033 2033 2033 2033 2033 
2033 2033 2033 2033 2033 2033 2033 2033 2033 
2033 2033 2033 2033 2033 2033 2033 2033 2033 
2033 2033 2033 2033 2033 2033 2033 2033 2033 
2033 2033 2033 2033 2033 2033 2033 2033 2033 
2033 2033 2033 2033 2033 2033 2033 2033 2033 
2033 2033 2033 2033 2033 2033 2033 2033 2033 
2033 2033 2033 2033 2033 2033 2033 2033 2033 
2033 2033 2033 2033 2033 2033 2033 2033 2033 
2033 2033 2033 2033 2033 2033 2033 2033 2033 
2033 2033 2033 2033 2033 2033 2033 2033 2033 
2033 2033 2033 2033 2033 2033 2033 2033 2033 
2033 2033 2033 2033 2033 2033 2033 2033 2033 
2033 2033 2033 2033 2033 2033 2033 2033 2033 
2033 2033 2033 2033 2033 2033 2033 2033 2033 
2033 2033 2033 2033 2033 2033 2033 2033 2033 
2033 2033 2033 2033 2033 2033 2033 2033 2033 
2033 2033 2033 2033 2033 2033 2033 2033 2033 
2033 2033 2033 2033 2033 2033 2033 2033 2033 
2033 2033 2033 2033 2033 2033 2033 2033 2033 
2033 2033 2033 2033 2033 2033 2033 2033 2033 
2033 2033 2033 2033 2033 2033 2033 2033 2033 
2033 2033 2033 2033 2033 2033 2033 2033 2033 
2033 2033 2033 2033 2033 2033 2033 2033 2033 
2033 2033 2033 2033 2033 2033 2033 2033 2033 
2033 2033 2033 2033 2033 2033 2033 2033 2033 
2033 2033 2033 2033 2033 2033 2033 2033 2033 
2033 2033 2033 2033 2033 2033 2033 2033 2033 
2033 2033 2033 2033 2033 2033 2033 2033 2033 
2033 2033 2033 2033 2033 2033 2033 2033 2033 
2033 2033 2033 2033 2033 2033 2033 2033 2033 
2033 2033 2033 2033 2033 2033 2033 2033 2033 
2033 2033 2033 2033 2033 2033 2033 2033 2033 
2033 2033 2033 2033 2033 2033 2033 2033 2033 
2033 2033 2033 2033 2033 2033 2033 2033 2033 
2033 2033 2033 2033 2033 2033 2033 2033 2033 
2033 2033 2033 2033 2033 2033 2033 2033 2033 
2033 2033 2033 2033 2033 2033 2033 2033 2033 
2033 2033 2033 2033 2033 2033 2033 2033 2033 
2033 2033 2033 2033 2033 2033 2033 2033 2033 
2033 2033 2033 2033 2033 2033 2033 2033 2033 
2033 2033 2033 2033 2033 2033 2033 2033 2033 
2033 2033 2033 2033 2033 2033 2033 2033 2033 
2033 2033 2033 2033 2033 2033 2033 2033 2033 
2033 2033 2033 2033 2033 2033 2033 2033 2033 
2033 2033 2033 2033 2033 2033 2033 2033 2033 
2033 2033 2033 2033 2033 2033 2033 2033 2033 
2033 2033 2033 2033 2033 2033 2033 2033 2033 
2033 2033 2033 2033 2033 2033 2033 2033 2033 
2033 2033 2033 2033 2033 2033 2033 2033 2033 
2033 2033 2033 2033 2033 2033 2033 2033 2033 
2033 2033 2033 2033 2033 2033 2033 2033 2033 
2033 2033 2033 2033 2033 2033 2033 2033 2033 
2033 2033 2033 2033 2033 2033 2033 2033 2033 
2033 2033 2033 2033 2033 2033 2033 2033 2033 
2033 2033 2033 2033 2033 2033 2033 2033 2033 
2033 2033 2033 2033 2033 2033 2033 2033 2033 
2033 2033 2033 2033 2033 2033 2033 2033 2033 
2033 2033 2033 2033 2033 2033 2033 2033 2033 
2033 2033 2033 2033 2033 2033 2033 2033 2033 
2033 2033 2033 2033 2033 2033 2033 2033 2033 
2033 2033 2033 2033 2033 2033 2033 2033 2033 
2033 2033 2033 2033 2033 2033 2033 2033 2033 
2033 2033 2033 2033 2033 2033 2033 2033 2033 
2033 2033 2033 2033 2033 2033 2033 2033 2033 
2033 2033 2033 2033 2033 2033 2033 2033 2033 
2033 2033 2033 2033 2033 2033 2033 2033 2033 