# vtk DataFile Version 4.2
vtk output
ASCII
DATASET POLYDATA
POINTS 2852 float
-2.29809 -13.437 25.076 -2.10157 -13.2828 24.9256 -1.95008 -13.6001 24.8391 
-2.77397 -13.4678 25.1074 -2.61863 -13.1836 24.9843 -3.39461 -13.5014 25.1082 
-3.33171 -13.1892 24.9209 -3.88334 -13.5534 25.0783 -3.97494 -13.3279 24.9097 
-4.34665 -13.5063 24.7989 -2.32439 -13.6292 24.9481 -2.88315 -13.7558 24.7898 
-3.55217 -13.7065 24.8579 -4.06717 -13.6888 24.8135 -1.7402 -12.8711 24.4878 
-1.66019 -12.705 24.127 -1.41633 -13.0275 24.3401 -2.24854 -12.9354 24.6693 
-2.18615 -12.6436 24.2424 -2.96617 -12.8853 24.6537 -2.81492 -12.6599 24.2484 
-3.47419 -12.9151 24.54 -3.38912 -12.7034 24.2233 -3.79085 -12.8221 24.2266 
-1.60356 -13.4024 24.6538 -1.18401 -13.4582 24.3181 -3.93499 -13.0573 24.5129 
-4.67419 -13.4819 24.5126 -4.59365 -13.1911 24.3041 -4.89708 -13.45 24.229 
-1.14843 -14.0933 24.5579 -0.929993 -13.7669 24.2492 -0.784332 -14.1712 24.2895 
-1.68047 -14.0695 24.5552 -2.23534 -13.9033 24.5211 -1.96936 -14.1374 24.3017 
-2.87293 -14.1628 24.5142 -2.46693 -14.2931 24.32 -3.16095 -14.0062 24.4028 
-3.44515 -13.8992 24.3889 -4.01157 -13.8613 24.4054 -4.57005 -13.6914 24.4382 
-5.19308 -14.0783 24.388 -5.3156 -13.8285 24.1713 -5.05962 -14.0958 24.2493 
-5.43219 -14.0368 24.2609 -0.964737 -14.6177 24.5223 -0.788507 -14.6672 24.1607 
-1.38662 -14.6496 24.5043 -1.85079 -14.5036 24.2789 -2.73684 -14.6941 24.5493 
-2.40733 -14.7447 24.3742 -3.32589 -14.3243 24.361 -3.21256 -14.7689 24.5049 
-3.62226 -14.7312 24.1914 -5.27105 -14.2461 24.3068 -5.8321 -14.5445 24.3645 
-5.64919 -14.5978 24.3075 -5.80967 -14.6905 24.3947 -6.01483 -14.7428 24.2273 
-1.17613 -14.9383 24.263 -1.63755 -14.8895 24.2115 -2.21586 -15.011 24.317 
-2.13253 -15.2791 24.1536 -2.39172 -15.1485 24.4857 -2.78926 -15.2375 24.5526 
-3.12516 -15.2427 24.3678 -3.38834 -15.0326 24.2165 -5.66231 -14.8337 24.1704 
-2.43751 -15.5287 24.2654 -2.83445 -15.5178 24.2445 -1.53605 -12.6122 23.7341 
-1.24365 -12.9776 23.9206 -2.03936 -12.4982 23.8015 -2.73582 -12.5119 23.73 
-3.40401 -12.5816 23.72 -4.25826 -12.8684 24.0623 -3.92567 -12.6685 23.8141 
-4.61068 -12.8969 23.9401 -4.44413 -12.7541 23.6534 -4.77563 -12.9715 23.7 
-1.00458 -13.3913 23.975 -0.94422 -13.1198 23.6181 -0.778491 -13.5663 23.7592 
-5.06327 -13.6651 24.0901 -5.14746 -13.25 23.6895 -5.52927 -13.4939 23.7309 
-0.67793 -14.1101 23.7458 -2.15759 -14.232 24.1844 -3.5731 -14.233 24.1654 
-4.00045 -14.1931 24.0705 -4.62469 -14.1077 24.1208 -5.83613 -14.2849 24.1462 
-5.81834 -13.7673 23.8053 -6.56039 -14.2484 23.9387 -6.39625 -13.8871 23.6486 
-6.81436 -14.0118 23.6423 -0.730719 -14.7533 23.5497 -2.07664 -14.7893 24.104 
-3.95808 -14.6128 24.0284 -4.42453 -14.7426 23.9234 -5.16147 -14.5878 24.0769 
-6.38457 -14.6206 24.1087 -6.96042 -14.3177 23.8003 -6.83463 -14.7555 23.917 
-7.181 -14.5396 23.5913 -1.05459 -15.0638 23.8104 -1.56334 -15.0875 23.8796 
-1.89597 -15.2458 23.7953 -3.13774 -15.3343 23.7637 -3.49396 -15.017 23.8139 
-3.96493 -15.1094 23.901 -3.72123 -15.2028 23.5288 -4.346 -15.2553 23.7402 
-4.80049 -15.0885 23.6987 -5.3772 -15.059 23.7635 -5.9039 -15.1064 23.8905 
-6.40573 -15.1135 23.94 -6.13381 -15.4309 23.5981 -6.74252 -15.2113 23.7378 
-7.02872 -14.9827 23.5459 -2.15135 -15.6335 23.6956 -2.73409 -15.7101 23.802 
-4.14342 -15.4805 23.5601 -6.49186 -15.4234 23.5928 -7.07321 -15.8081 23.7218 
-6.7639 -16.0282 23.6684 -7.00697 -16.0848 23.8794 -7.18496 -15.9863 23.6925 
-6.54341 -16.3643 23.8948 -6.3139 -16.3043 23.5858 -6.2581 -16.5834 23.6086 
-6.87681 -16.5142 23.9241 -7.1375 -16.3522 23.7752 -6.53891 -16.7083 23.7636 
-6.85683 -16.6692 23.5902 -1.14953 -12.269 23.2783 -0.947021 -12.0696 22.9389 
-0.707309 -12.432 23.13 -1.68559 -12.3381 23.4317 -1.58745 -12.0642 23.0509 
-2.37687 -12.2994 23.4186 -2.12719 -12.0968 23.129 -2.87498 -12.3451 23.3021 
-2.75643 -11.9885 22.9356 -3.18341 -12.249 23.0135 -1.09417 -12.6667 23.4553 
-0.678387 -13.0426 23.111 -3.3256 -12.4686 23.2671 -4.06714 -12.568 23.1165 
-4.54011 -12.8443 23.3372 -4.4907 -12.8296 23.0015 -0.686334 -13.5938 23.2191 
-4.81573 -13.0188 23.2525 -5.26124 -13.0994 23.0492 -5.93492 -13.5116 23.3719 
-5.68114 -13.3039 23.2284 -6.1118 -13.4785 22.9066 -0.682828 -14.0999 23.1184 
-6.407 -13.6832 23.133 -7.11345 -14.1441 23.4962 -6.98264 -13.8669 23.1477 
-7.36768 -14.2328 23.061 -0.685703 -14.6215 23.0129 -3.43205 -14.7982 23.3994 
-3.23698 -14.853 23.2622 -3.33325 -14.5631 22.9978 -3.55568 -14.7575 23.0851 
-7.26971 -14.758 23.1213 -0.964865 -15.251 23.4045 -0.780624 -15.1799 23.0046 
-1.47727 -15.384 23.4871 -3.12651 -15.2042 23.0384 -3.79399 -15.1543 23.0142 
-4.55733 -15.4077 23.4987 -5.13942 -15.4083 23.3976 -5.68961 -15.3386 23.5586 
-6.78772 -15.3258 23.3364 -7.08984 -15.1134 23.086 -1.11929 -15.5014 23.1234 
-1.61019 -15.7228 23.158 -2.15929 -15.9182 23.3248 -1.85946 -15.9867 23.0199 
-2.62365 -15.9582 23.397 -3.02774 -15.7368 23.1644 -4.05472 -15.5179 23.1675 
-4.57357 -15.5832 23.2015 -5.14172 -15.7317 23.0481 -5.46688 -15.9869 22.9706 
-5.77883 -15.7237 23.2605 -6.3953 -15.6367 23.2171 -6.11312 -15.9152 23.0874 
-7.06889 -15.893 23.6021 -2.32913 -16.1399 22.984 -2.8427 -16.0865 22.9873 
-5.81067 -16.0765 22.9216 -6.23621 -16.4942 23.0749 -6.50533 -16.2579 23.2757 
-6.97052 -16.2624 23.4984 -6.71539 -16.495 23.155 -6.54714 -16.7543 23.138 
-2.84481 -11.6833 22.6777 -2.74883 -11.5188 22.3287 -2.57796 -11.7297 22.6149 
-3.13457 -11.6868 22.5229 -0.454871 -12.2478 22.8528 -0.580618 -12.1072 22.4902 
-0.213803 -12.4503 22.4997 -0.9854 -11.9745 22.5461 -1.42386 -11.9146 22.5003 
-2.11034 -11.8877 22.6762 -3.6352 -12.288 22.8496 -3.36568 -11.9952 22.669 
-3.97163 -12.3077 22.7178 -3.81955 -12.1346 22.4307 -4.13205 -12.3846 22.4882 
-0.353229 -12.6638 22.7891 -0.176505 -12.9857 22.3325 -4.84697 -12.8846 22.8371 
-4.47648 -12.6486 22.535 -5.29287 -12.9339 22.71 -5.02077 -12.7663 22.4619 
-5.39507 -12.9186 22.4158 -0.405249 -13.1251 22.5784 -0.602042 -13.6159 22.5229 
-5.69854 -13.1877 22.6047 -6.14201 -13.4953 22.3468 -0.690152 -14.2062 22.6 
-6.54103 -13.6823 22.4825 -6.95858 -13.7638 22.606 -7.63691 -14.1811 22.6532 
-7.46507 -13.9316 22.5669 -7.7416 -14.0784 22.4768 -0.697202 -14.7065 22.4906 
-3.13154 -14.6819 22.6146 -3.42702 -14.4288 22.5015 -3.77459 -14.7173 22.5845 
-7.44099 -14.5113 22.5346 -7.63998 -14.2278 22.391 -0.812595 -15.1565 22.3989 
-3.11565 -15.2904 22.5098 -4.06121 -14.9944 22.4354 -4.05621 -15.3713 22.7769 
-4.31586 -15.2753 22.4122 -7.03628 -15.5325 22.861 -7.38142 -15.0872 22.5238 
-1.08452 -15.5841 22.7188 -1.4826 -15.8824 22.7749 -1.31852 -15.8015 22.3094 
-3.15612 -15.8319 22.497 -4.56009 -15.6181 22.7108 -5.08857 -15.9179 22.7427 
-4.92034 -15.8317 22.4523 -6.4041 -16.1149 22.8877 -7.02724 -15.9491 22.7973 
-7.56588 -15.5444 22.5643 -7.46341 -15.9794 22.6561 -7.82689 -15.7463 22.342 
-1.80523 -16.1219 22.553 -2.22933 -16.2362 22.5461 -2.74332 -16.203 22.5364 
-5.33673 -16.0759 22.6304 -5.73246 -16.1499 22.538 -6.107 -16.4004 22.5215 
-6.96243 -16.4177 22.7932 -7.35901 -16.4744 22.4797 -7.68565 -16.202 22.2915 
-6.45588 -16.7587 22.51 -6.93425 -16.7714 22.4546 -1.7876 -11.6879 22.1893 
-1.59045 -11.4046 21.8179 -1.36859 -11.666 21.8701 -2.26967 -11.6499 22.3373 
-2.1266 -11.3858 21.986 -2.79714 -11.2976 21.8547 -3.53362 -11.8029 22.2223 
-3.26178 -11.5018 22.0328 -3.58662 -11.6753 21.7694 -0.320782 -12.3765 22.1986 
-0.611636 -12.3238 21.8982 -0.997284 -11.9907 21.9392 -3.8449 -12.0772 21.8638 
-3.99663 -12.2891 22.1903 -0.393915 -12.6341 21.8278 -0.165939 -12.8646 21.9664 
-4.1902 -12.489 21.9733 -4.65466 -12.751 21.9585 -5.1201 -12.8546 22.1391 
-4.86211 -12.9536 21.7939 -0.332675 -13.402 22.1977 -0.200125 -13.4119 21.8255 
-5.29548 -13.0898 21.9531 -5.74303 -13.3313 21.9775 -6.02713 -13.5452 21.8696 
-0.426883 -13.7087 21.9001 -0.625919 -14.1218 21.9433 -2.95504 -14.2211 22.0768 
-2.62991 -14.0935 21.7484 -2.8093 -13.9085 21.6863 -3.15753 -13.9947 21.8079 
-6.45146 -13.7104 21.8276 -7.09321 -13.851 22.0708 -7.57941 -14.0368 22.2393 
-7.35885 -14.1841 21.9223 -0.768118 -14.7097 21.8159 -2.73019 -14.3068 21.8446 
-2.95525 -14.6856 21.9424 -3.46977 -14.2226 21.9237 -3.85216 -14.4809 22.0565 
-4.00805 -14.6936 22.2281 -4.23712 -14.7207 21.7992 -7.40758 -14.6784 21.8109 
-0.948358 -15.0926 21.9697 -1.02555 -15.3957 22.264 -1.1639 -15.3935 21.8693 
-3.19066 -15.3066 21.8316 -4.59697 -15.0064 21.9156 -4.78059 -15.3929 22.2155 
-5.19565 -15.0369 21.8297 -5.35824 -15.3582 22.1289 -5.67109 -15.0859 21.9177 
-5.92381 -15.4309 22.1124 -6.06937 -15.2551 21.7552 -7.60812 -15.1035 21.955 
-7.71333 -15.3818 22.2636 -7.84804 -15.3987 21.8761 -1.35581 -15.9395 21.7238 
-3.41991 -15.7171 21.9847 -3.35498 -16.1218 22.2068 -3.62265 -15.9163 21.8021 
-5.22128 -15.8309 22.3131 -5.80558 -15.9528 22.2657 -6.41277 -15.584 21.8663 
-6.31679 -15.9583 22.0955 -6.71268 -15.9228 21.8317 -7.85775 -15.8408 21.9188 
-1.65805 -16.2019 21.9919 -2.22233 -16.3271 22.1317 -2.86755 -16.4001 22.1492 
-2.45291 -16.5407 21.7962 -3.31503 -16.4991 22.0901 -3.66643 -16.4015 21.7989 
-6.36607 -16.4752 22.1797 -6.75091 -16.3485 21.8873 -7.31996 -16.5877 22.0852 
-7.59634 -16.2543 21.8948 -2.89235 -16.6693 21.8291 -3.38406 -16.8061 21.7943 
-6.84807 -16.7258 22.0386 -1.7639 -11.0826 21.5872 -1.67259 -10.7703 21.1744 
-1.38086 -11.1598 21.3542 -2.34702 -11.0793 21.6353 -2.19137 -10.8598 21.2486 
-2.87945 -11.1059 21.5243 -2.77178 -10.9143 21.2476 -3.18116 -11.0322 21.2294 
-1.17229 -11.6282 21.3504 -3.41905 -11.3208 21.3656 -3.79539 -11.7164 21.3512 
-0.97164 -11.9245 21.2681 -0.789294 -12.2379 21.3297 -4.02447 -12.0007 21.3988 
-4.17892 -12.3304 21.5513 -4.52297 -12.4048 21.3905 -4.40685 -12.1643 21.2355 
-4.67344 -12.3357 21.3025 -0.335669 -12.9967 21.5409 -0.605576 -12.7939 21.2682 
-4.4542 -12.6764 21.3275 -4.59421 -12.9167 21.5864 -4.63542 -12.4832 21.307 
-0.43873 -13.2802 21.1864 -0.246808 -13.3676 21.4336 -4.76032 -13.064 21.4491 
-5.18594 -13.3254 21.3407 -5.69094 -13.4862 21.5777 -5.42412 -13.5787 21.2202 
[...]
CELL_DATA 5704
SCALARS scalars float
LOOKUP_TABLE default
1002 1002 1002 1002 1002 1002 1002 1002 1002 
1002 1002 1002 1002 1002 1002 1002 1002 1002 
1002 1002 1002 1002 1002 1002 1002 1002 1002 
1002 1002 1002 1002 1002 1002 1002 1002 1002 
1002 1002 1002 1002 1002 1002 1002 1002 1002 
1002 1002 1002 1002 1002 1002 1002 1002 1002 
1002 1002 1002 1002 1002 1002 1002 1002 1002 
1002 1002 1002 1002 1002 1002 1002 1002 1002 
1002 1002 1002 1002 1002 1002 1002 1002 1002 
1002 1002 1002 1002 1002 1002 1002 1002 1002 
1002 1002 1002 1002 1002 1002 1002 1002 1002 
1002 1002 1002 1002 1002 1002 1002 1002 1002 
1002 1002 1002 1002 1002 1002 1002 1002 1002 
1002 1002 1002 1002 1002 1002 1002 1002 1002 
1002 1002 1002 1002 1002 1002 1002 1002 1002 
1002 1002 1002 1002 1002 1002 1002 1002 1002 
1002 1002 1002 1002 1002 1002 1002 1002 1002 
1002 1002 1002 1002 1002 1002 1002 1002 1002 
1002 1002 1002 1002 1002 1002 1002 1002 1002 
1002 1002 1002 1002 1002 1002 1002 1002 1002 
1002 1002 1002 1002 1002 1002 1002 1002 1002 
1002 1002 1002 1002 1002 1002 1002 1002 1002 
1002 1002 1002 1002 1002 1002 1002 1002 1002 
1002 1002 1002 1002 1002 1002 1002 1002 1002 
1002 1002 1002 1002 1002 1002 1002 1002 1002 
1002 1002 1002 1002 1002 1002 1002 1002 1002 
1002 1002 1002 1002 1002 1002 1002 1002 1002 
1002 1002 1002 1002 1002 1002 1002 1002 1002 
1002 1002 1002 1002 1002 1002 1002 1002 1002 
1002 1002 1002 1002 1002 1002 1002 1002 1002 
1002 1002 1002 1002 1002 1002 1002 1002 1002 
1002 1002 1002 1002 1002 1002 1002 1002 1002 
1002 1002 1002 1002 1002 1002 1002 1002 1002 
1002 1002 1002 1002 1002 1002 1002 1002 1002 
1002 1002 1002 1002 1002 1002 1002 1002 1002 
1002 1002 1002 1002 1002 1002 1002 1002 1002 
1002 1002 1002 1002 1002 1002 1002 1002 1002 
1002 1002 1002 1002 1002 1002 1002 1002 1002 
1002 1002 1002 1002 1002 1002 1002 1002 1002 
1002 1002 1002 1002 1002 1002 1002 1002 1002 
1002 1002 1002 1002 1002 1002 1002 1002 1002 
1002 1002 1002 1002 1002 1002 1002 1002 1002 
1002 1002 1002 1002 1002 1002 1002 1002 1002 
1002 1002 1002 1002 1002 1002 1002 1002 1002 
1002 1002 1002 1002 1002 1002 1002 1002 1002 
1002 1002 1002 1002 1002 1002 1002 1002 1002 
1002 1002 1002 1002 1002 1002 1002 1002 1002 
1002 1002 1002 1002 1002 1002 1002 1002 1002 
1002 1002 1002 1002 1002 1002 1002 1002 1002 
1002 1002 1002 1002 1002 1002 1002 1002 1002 
1002 1002 1002 1002 1002 1002 1002 1002 1002 
1002 1002 1002 1002 1002 1002 1002 1002 1002 
1002 1002 1002 1002 1002 1002 1002 1002 1002 
1002 1002 1002 1002 1002 1002 1002 1002 1002 
1002 1002 1002 1002 1002 1002 1002 1002 1002 
1002 1002 1002 1002 1002 1002 1002 1002 1002 
1002 1002 1002 1002 1002 1002 1002 1002 1002 
1002 1002 1002 1002 1002 1002 1002 1002 1002 
1002 1002 1002 1002 1002 1002 1002 1002 1002 
1002 1002 1002 1002 1002 1002 1002 1002 1002 
1002 1002 1002 1002 1002 1002 1002 1002 1002 
1002 1002 1002 1002 1002 1002 1002 1002 1002 
1002 1002 1002 1002 1002 1002 1002 1002 1002 
1002 1002 1002 1002 1002 1002 1002 1002 1002 
1002 1002 1002 1002 1002 1002 1002 1002 1002 
1002 1002 1002 1002 1002 1002 1002 1002 1002 
1002 1002 1002 1002 1002 1002 1002 1002 1002 
1002 1002 1002 1002 1002 1002 1002 1002 1002 
1002 1002 1002 1002 1002 1002 1002 1002 1002 
1002 1002 1002 1002 1002 1002 1002 1002 1002 
1002 1002 1002 1002 1002 1002 1002 1002 1002 
1002 1002 1002 1002 1002 1002 1002 1002 1002 
1002 1002 1002 1002 1002 1002 1002 1002 1002 
1002 1002 1002 1002 1002 1002 1002 1002 1002 
1002 1002 1002 1002 1002 1002 1002 1002 1002 
1002 1002 1002 1002 1002 1002 1002 1002 1002 
1002 1002 1002 1002 1002 1002 1002 1002 1002 
1002 1002 1002 1002 1002 1002 1002 1002 1002 
1002 1002 1002 1002 1002 1002 1002 1002 1002 
1002 1002 1002 1002 1002 1002 1002 1002 1002 
1002 1002 1002 1002 1002 1002 1002 1002 1002 
1002 1002 1002 1002 1002 1002 1002 1002 1002 
1002 1002 1002 1002 1002 1002 1002 1002 1002 
1002 1002 1002 1002 1002 1002 1002 1002 1002 
1002 1002 1002 1002 1002 1002 1002 1002 1002 
1002 1002 1002 1002 1002 1002 1002 1002 1002 
1002 1002 1002 1002 1002 1002 1002 1002 1002 
1002 1002 1002 1002 1002 1002 1002 1002 1002 
1002 1002 1002 1002 1002 1002 1002 1002 1002 
1002 1002 1002 1002 1002 1002 1002 1002 1002 
1002 1002 1002 1002 1002 1002 1002 1002 1002 
1002 1002 1002 1002 1002 1002 1002 1002 1002 
1002 1002 1002 1002 1002 1002 1002 1002 1002 
1002 1002 1002 1002 1002 1002 1002 1002 1002 
1002 1002 1002 1002 1002 1002 1002 1002 1002 
1002 1002 1002 1002 1002 1002 1002 1002 1002 
1002 1002 1002 1002 1002 1002 1002 1002 1002 
1002 1002 1002 1002 1002 1002 1002 1002 1002 
1002 1002 1002 1002 1002 1002 1002 1002 1002 
1002 1002 1002 1002 1002 1002 1002 1002 1002 
1002 1002 1002 1002 1002 1002 1002 1002 1002 
1002 1002 1002 1002 1002 1002 1002 1002 1002 
1002 1002 1002 1002 1002 1002 1002 1002 1002 
1002 1002 1002 1002 1002 1002 1002 1002 1002 
1002 1002 1002 1002 1002 1002 1002 1002 1002 
1002 1002 1002 1002 1002 1002 1002 1002 1002 
1002 1002 1002 1002 1002 1002 1002 1002 1002 
1002 1002 1002 1002 1002 1002 1002 1002 1002 
1002 1002 1002 1002 1002 1002 1002 1002 1002 
1002 1002 1002 1002 1002 1002 1002 1002 1002 
1002 1002 1002 1002 1002 1002 1002 1002 1002 
1002 1002 1002 1002 1002 1002 1002 1002 1002 
1002 1002 1002 1002 1002 1002 1002 1002 1002 
1002 1002 1002 1002 1002 1002 1002 1002 1002 
1002 1002 1002 1002 1002 1002 1002 1002 1002 
1002 1002 1002 1002 1002 1002 1002 1002 1002 
1002 1002 1002 1002 1002 1002 1002 1002 1002 
1002 1002 1002 1002 1002 1002 1002 1002 1002 
1002 1002 1002 1002 1002 1002 1002 1002 1002 
1002 1002 1002 1002 1002 1002 1002 1002 1002 
1002 1002 1002 1002 1002 1002 1002 1002 1002 
1002 1002 1002 1002 1002 1002 1002 1002 1002 
1002 1002 1002 1002 1002 1002 1002 1002 1002 
1002 1002 1002 1002 1002 1002 1002 1002 1002 
1002 1002 1002 1002 1002 1002 1002 1002 1002 
1002 1002 1002 1002 1002 1002 1002 1002 1002 
1002 1002 1002 1002 1002 1002 1002 1002 1002 
1002 1002 1002 1002 1002 1002 1002 1002 1002 
1002 1002 1002 1002 1002 1002 1002 1002 1002 
1002 1002 1002 1002 1002 1002 1002 1002 1002 
1002 1002 1002 1002 1002 1002 1002 1002 1002 
1002 1002 1002 1002 1002 1002 1002 1002 1002 
1002 1002 1002 1002 1002 1002 1002 1002 1002 
1002 1002 1002 1002 1002 1002 1002 1002 1002 
1002 1002 1002 1002 1002 1002 1002 1002 1002 
1002 1002 1002 1002 1002 1002 1002 1002 1002 
1002 1002 1002 1002 1002 1002 1002 1002 1002 
1002 1002 1002 1002 1002 1002 1002 1002 1002 
1002 1002 1002 1002 1002 1002 1002 1002 1002 
1002 1002 1002 1002 1002 1002 1002 1002 1002 
1002 1002 1002 1002 1002 1002 1002 1002 1002 
1002 1002 1002 1002 1002 1002 1002 1002 1002 
1002 1002 1002 1002 1002 1002 1002 1002 1002 
1002 1002 1002 1002 1002 1002 1002 1002 1002 
1002 1002 1002 1002 1002 1002 1002 1002 1002 
1002 1002 1002 1002 1002 1002 1002 1002 1002 
1002 1002 1002 1002 1002 1002 1002 1002 1002 
1002 1002 1002 1002 1002 1002 1002 1002 1002 
1002 1002 1002 1002 1002 1002 1002 1002 1002 
1002 1002 1002 1002 1002 1002 1002 1002 1002 
1002 1002 1002 1002 1002 1002 1002 1002 1002 
1002 1002 1002 1002 1002 1002 1002 1002 1002 
1002 1002 1002 1002 1002 1002 1002 1002 1002 
1002 1002 1002 1002 1002 1002 1002 1002 1002 
1002 1002 1002 1002 1002 1002 1002 1002 1002 
1002 1002 1002 1002 1002 1002 1002 1002 1002 
1002 1002 1002 1002 1002 1002 1002 1002 1002 
1002 1002 1002 1002 1002 1002 1002 1002 1002 
1002 1002 1002 1002 1002 1002 1002 1002 1002 
1002 1002 1002 1002 1002 1002 1002 1002 1002 
1002 1002 1002 1002 1002 1002 1002 1002 1002 
1002 1002 1002 1002 1002 1002 1002 1002 1002 
1002 1002 1002 1002 1002 1002 1002 1002 1002 
1002 1002 1002 1002 1002 1002 1002 1002 1002 
1002 1002 1002 1002 1002 1002 1002 1002 1002 
1002 1002 1002 1002 1002 1002 1002 1002 1002 
1002 1002 1002 1002 1002 1002 1002 1002 1002 
1002 1002 1002 1002 1002 1002 1002 1002 1002 
1002 1002 1002 1002 1002 1002 1002 1002 1002 
1002 1002 1002 1002 1002 1002 1002 1002 1002 
1002 1002 1002 1002 1002 1002 1002 1002 1002 
1002 1002 1002 1002 1002 1002 1002 1002 1002 
1002 1002 1002 1002 1002 1002 1002 1002 1002 
1002 1002 1002 1002 1002 1002 1002 1002 1002 
1002 1002 1002 1002 1002 1002 1002 1002 1002 
1002 1002 1002 1002 1002 1002 1002 1002 1002 
1002 1002 1002 1002 1002 1002 1002 1002 1002 
1002 1002 1002 1002 1002 1002 1002 1002 1002 
1002 1002 1002 1002 1002 1002 1002 1002 1002 
1002 1002 1002 1002 1002 1002 1002 1002 1002 
1002 1002 1002 1002 1002 1002 1002 1002 1002 
1002 1002 1002 1002 1002 1002 1002 1002 1002 
1002 1002 1002 1002 1002 1002 1002 1002 1002 
1002 1002 1002 1002 1002 1002 1002 1002 1002 
1002 1002 1002 1002 1002 1002 1002 1002 1002 
1002 1002 1002 1002 1002 1002 1002 1002 1002 
1002 1002 1002 1002 1002 1002 1002 1002 1002 
1002 1002 1002 1002 1002 1002 1002 1002 1002 
1002 1002 1002 1002 1002 1002 1002 1002 1002 
1002 1002 1002 1002 1002 1002 1002 1002 1002 
1002 1002 1002 1002 1002 1002 1002 1002 1002 
1002 1002 1002 1002 1002 1002 1002 1002 1002 
1002 1002 1002 1002 1002 1002 1002 1002 1002 
1002 1002 1002 1002 1002 1002 1002 1002 1002 
1002 1002 1002 1002 1002 1002 1002 1002 1002 
1002 1002 1002 1002 1002 1002 1002 1002 1002 
1002 1002 1002 1002 1002 1002 1002 1002 1002 
1002 1002 1002 1002 1002 1002 1002 1002 1002 
1002 1002 1002 1002 1002 1002 1002 1002 1002 
1002 1002 1002 1002 1002 1002 1002 1002 1002 
1002 1002 1002 1002 1002 1002 1002 1002 1002 
1002 1002 1002 1002 1002 1002 1002 1002 1002 
1002 1002 1002 1002 1002 1002 1002 1002 1002 
1002 1002 1002 1002 1002 1002 1002 1002 1002 
1002 1002 1002 1002 1002 1002 1002 1002 1002 
1002 1002 1002 1002 1002 1002 1002 1002 1002 
1002 1002 1002 1002 1002 1002 1002 1002 1002 
1002 1002 1002 1002 1002 1002 1002 1002 1002 
1002 1002 1002 1002 1002 1002 1002 1002 1002 
1002 1002 1002 1002 1002 1002 1002 1002 1002 
1002 1002 1002 1002 1002 1002 1002 1002 1002 
1002 1002 1002 1002 1002 1002 1002 1002 1002 
1002 1002 1002 1002 1002 1002 1002 1002 1002 
1002 1002 1002 1002 1002 1002 1002 1002 1002 
1002 1002 1002 1002 1002 1002 1002 1002 1002 
1002 1002 1002 1002 1002 1002 1002 1002 1002 
1002 1002 1002 1002 1002 1002 1002 1002 1002 
1002 1002 1002 1002 1002 1002 1002 1002 1002 
1002 1002 1002 1002 1002 1002 1002 1002 1002 
1002 1002 1002 1002 1002 1002 1002 1002 1002 
1002 1002 1002 1002 1002 1002 1002 1002 1002 
1002 1002 1002 1002 1002 1002 1002 1002 1002 
1002 1002 1002 1002 1002 1002 1002 1002 1002 
1002 1002 1002 1002 1002 1002 1002 1002 1002 
1002 1002 1002 1002 1002 1002 1002 1002 1002 
1002 1002 1002 1002 1002 1002 1002 1002 1002 
1002 1002 1002 1002 1002 1002 1002 1002 1002 
1002 1002 1002 1002 1002 1002 1002 1002 1002 
1002 1002 1002 1002 1002 1002 1002 1002 1002 
1002 1002 1002 1002 1002 1002 1002 1002 1002 
1002 1002 1002 1002 1002 1002 1002 1002 1002 
1002 1002 1002 1002 1002 1002 1002 1002 1002 
1002 1002 1002 1002 1002 1002 1002 1002 1002 
1002 1002 1002 1002 1002 1002 1002 1002 1002 
1002 1002 1002 1002 1002 1002 1002 1002 1002 
1002 1002 1002 1002 1002 1002 1002 1002 1002 
1002 1002 1002 1002 1002 1002 1002 1002 1002 
1002 1002 1002 1002 1002 1002 1002 1002 1002 
1002 1002 1002 1002 1002 1002 1002 1002 1002 
1002 1002 1002 1002 1002 1002 1002 1002 1002 
1002 1002 1002 1002 1002 1002 1002 1002 1002 
1002 1002 1002 1002 1002 1002 1002 1002 1002 
1002 1002 1002 1002 1002 1002 1002 1002 1002 
1002 1002 1002 1002 1002 1002 1002 1002 1002 
1002 1002 1002 1002 1002 1002 1002 1002 1002 
1002 1002 1002 1002 1002 1002 1002 1002 1002 
1002 1002 1002 1002 1002 1002 1002 1002 1002 
1002 1002 1002 1002 1002 1002 1002 1002 1002 
1002 1002 1002 1002 1002 1002 1002 1002 1002 
1002 1002 1002 1002 1002 1002 1002 1002 1002 
1002 1002 1002 1002 1002 1002 1002 1002 1002 
1002 1002 1002 1002 1002 1002 1002 1002 1002 
1002 1002 1002 1002 1002 1002 1002 1002 1002 
1002 1002 1002 1002 1002 1002 1002 1002 1002 
1002 1002 1002 1002 1002 1002 1002 1002 1002 
1002 1002 1002 1002 1002 1002 1002 1002 1002 
1002 1002 1002 1002 1002 1002 1002 1002 1002 
1002 1002 1002 1002 1002 1002 1002 1002 1002 
1002 1002 1002 1002 1002 1002 1002 1002 1002 
1002 1002 1002 1002 1002 1002 1002 1002 1002 
1002 1002 1002 1002 1002 1002 1002 1002 1002 
1002 1002 1002 1002 1002 1002 1002 1002 1002 
1002 1002 1002 1002 1002 1002 1002 1002 1002 
1002 1002 1002 1002 1002 1002 1002 1002 1002 
1002 1002 1002 1002 1002 1002 1002 1002 1002 
1002 1002 1002 1002 1002 1002 1002 1002 1002 
1002 1002 1002 1002 1002 1002 1002 1002 1002 
1002 1002 1002 1002 1002 1002 1002 1002 1002 
1002 1002 1002 1002 1002 1002 1002 1002 1002 
1002 1002 1002 1002 1002 1002 1002 1002 1002 
1002 1002 1002 1002 1002 1002 1002 1002 1002 
1002 1002 1002 1002 1002 1002 1002 1002 1002 
1002 1002 1002 1002 1002 1002 1002 1002 1002 
1002 1002 1002 1002 1002 1002 1002 1002 1002 
1002 1002 1002 1002 1002 1002 1002 1002 1002 
1002 1002 1002 1002 1002 1002 1002 1002 1002 
1002 1002 1002 1002 1002 1002 1002 1002 1002 
1002 1002 1002 1002 1002 1002 1002 1002 1002 
1002 1002 1002 1002 1002 1002 1002 1002 1002 
1002 1002 1002 1002 1002 1002 1002 1002 1002 
1002 1002 1002 1002 1002 1002 1002 1002 1002 
1002 1002 1002 1002 1002 1002 1002 1002 1002 
1002 1002 1002 1002 1002 1002 1002 1002 1002 
1002 1002 1002 1002 1002 1002 1002 1002 1002 
1002 1002 1002 1002 1002 1002 1002 1002 1002 
1002 1002 1002 1002 1002 1002 1002 1002 1002 
1002 1002 1002 1002 1002 1002 1002 1002 1002 
1002 1002 1002 1002 1002 1002 1002 1002 1002 
1002 1002 1002 1002 1002 1002 1002 1002 1002 
1002 1002 1002 1002 1002 1002 1002 1002 1002 
1002 1002 1002 1002 1002 1002 1002 1002 1002 
1002 1002 1002 1002 1002 1002 1002 1002 1002 
1002 1002 1002 1002 1002 1002 1002 1002 1002 
1002 1002 1002 1002 1002 1002 1002 1002 1002 
1002 1002 1002 1002 1002 1002 1002 1002 1002 
1002 1002 1002 1002 1002 1002 1002 1002 1002 
1002 1002 1002 1002 1002 1002 1002 1002 1002 
1002 1002 1002 1002 1002 1002 1002 1002 1002 
1002 1002 1002 1002 1002 1002 1002 1002 1002 
1002 1002 1002 1002 1002 1002 1002 1002 1002 
1002 1002 1002 1002 1002 1002 1002 1002 1002 
1002 1002 1002 1002 1002 1002 1002 1002 1002 
1002 1002 1002 1002 1002 1002 1002 1002 1002 
1002 1002 1002 1002 1002 1002 1002 1002 1002 
1002 1002 1002 1002 1002 1002 1002 1002 1002 
1002 1002 1002 1002 1002 1002 1002 1002 1002 
1002 1002 1002 1002 1002 1002 1002 1002 1002 
1002 1002 1002 1002 1002 1002 1002 1002 1002 
1002 1002 1002 1002 1002 1002 1002 1002 1002 
1002 1002 1002 1002 1002 1002 1002 1002 1002 
1002 1002 1002 1002 1002 1002 1002 1002 1002 
1002 1002 1002 1002 1002 1002 1002 1002 1002 
1002 1002 1002 1002 1002 1002 1002 1002 1002 
1002 1002 1002 1002 1002 1002 1002 1002 1002 
1002 1002 1002 1002 1002 1002 1002 1002 1002 
1002 1002 1002 1002 1002 1002 1002 1002 1002 
1002 1002 1002 1002 1002 1002 1002 1002 1002 
1002 1002 1002 1002 1002 1002 1002 1002 1002 
1002 1002 1002 1002 1002 1002 1002 1002 1002 
1002 1002 1002 1002 1002 1002 1002 1002 1002 
1002 1002 1002 1002 1002 1002 1002 1002 1002 
1002 1002 1002 1002 1002 1002 1002 1002 1002 
1002 1002 1002 1002 1002 1002 1002 1002 1002 
1002 1002 1002 1002 1002 1002 1002 1002 1002 
1002 1002 1002 1002 1002 1002 1002 1002 1002 
1002 1002 1002 1002 1002 1002 1002 1002 1002 
1002 1002 1002 1002 1002 1002 1002 1002 1002 
1002 1002 1002 1002 1002 1002 1002 1002 1002 
1002 1002 1002 1002 1002 1002 1002 1002 1002 
1002 1002 1002 1002 1002 1002 1002 1002 1002 
1002 1002 1002 1002 1002 1002 1002 1002 1002 
1002 1002 1002 1002 1002 1002 1002 1002 1002 
1002 1002 1002 1002 1002 1002 1002 1002 1002 
1002 1002 1002 1002 1002 1002 1002 1002 1002 
1002 1002 1002 1002 1002 1002 1002 1002 1002 
1002 1002 1002 1002 1002 1002 1002 1002 1002 
1002 1002 1002 1002 1002 1002 1002 1002 1002 
1002 1002 1002 1002 1002 1002 1002 1002 1002 
1002 1002 1002 1002 1002 1002 1002 1002 1002 
1002 1002 1002 1002 1002 1002 1002 1002 1002 
1002 1002 1002 1002 1002 1002 1002 1002 1002 
1002 1002 1002 1002 1002 1002 1002 1002 1002 
1002 1002 1002 1002 1002 1002 1002 1002 1002 
1002 1002 1002 1002 1002 1002 1002 1002 1002 
1002 1002 1002 1002 1002 1002 1002 1002 1002 
1002 1002 1002 1002 1002 1002 1002 1002 1002 
1002 1002 1002 1002 1002 1002 1002 1002 1002 
1002 1002 1002 1002 1002 1002 1002 1002 1002 
1002 1002 1002 1002 1002 1002 1002 1002 1002 
1002 1002 1002 1002 1002 1002 1002 1002 1002 
1002 1002 1002 1002 1002 1002 1002 1002 1002 
1002 1002 1002 1002 1002 1002 1002 1002 1002 
1002 1002 1002 1002 1002 1002 1002 1002 1002 
1002 1002 1002 1002 1002 1002 1002 1002 1002 
1002 1002 1002 1002 1002 1002 1002 1002 1002 
1002 1002 1002 1002 1002 1002 1002 1002 1002 
1002 1002 1002 1002 1002 1002 1002 1002 1002 
1002 1002 1002 1002 1002 1002 1002 1002 1002 
1002 1002 1002 1002 1002 1002 1002 1002 1002 
1002 1002 1002 1002 1002 1002 1002 1002 1002 
1002 1002 1002 1002 1002 1002 1002 1002 1002 
1002 1002 1002 1002 1002 1002 1002 1002 1002 
1002 1002 1002 1002 1002 1002 1002 1002 1002 
1002 1002 1002 1002 1002 1002 1002 1002 1002 
1002 1002 1002 1002 1002 1002 1002 1002 1002 
1002 1002 1002 1002 1002 1002 1002 1002 1002 
1002 1002 1002 1002 1002 1002 1002 1002 1002 
1002 1002 1002 1002 1002 1002 1002 1002 1002 
1002 1002 1002 1002 1002 1002 1002 1002 1002 
1002 1002 1002 1002 1002 1002 1002 1002 1002 
1002 1002 1002 1002 1002 1002 1002 1002 1002 
1002 1002 1002 1002 1002 1002 1002 1002 1002 
1002 1002 1002 1002 1002 1002 1002 1002 1002 
1002 1002 1002 1002 1002 1002 1002 1002 1002 
1002 1002 1002 1002 1002 1002 1002 1002 1002 
1002 1002 1002 1002 1002 1002 1002 1002 1002 
1002 1002 1002 1002 1002 1002 1002 1002 1002 
1002 1002 1002 1002 1002 1002 1002 1002 1002 
1002 1002 1002 1002 1002 1002 1002 1002 1002 
1002 1002 1002 1002 1002 1002 1002 1002 1002 
1002 1002 1002 1002 1002 1002 1002 1002 1002 
1002 1002 1002 1002 1002 1002 1002 1002 1002 
1002 1002 1002 1002 1002 1002 1002 1002 1002 
1002 1002 1002 1002 1002 1002 1002 1002 1002 
1002 1002 1002 1002 1002 1002 1002 1002 1002 
1002 1002 1002 1002 1002 1002 1002 1002 1002 
1002 1002 1002 1002 1002 1002 1002 1002 1002 
1002 1002 1002 1002 1002 1002 1002 1002 1002 
1002 1002 1002 1002 1002 1002 1002 1002 1002 
1002 1002 1002 1002 1002 1002 1002 1002 1002 
1002 1002 1002 1002 1002 1002 1002 1002 1002 
1002 1002 1002 1002 1002 1002 1002 1002 1002 
1002 1002 1002 1002 1002 1002 1002 1002 1002 
1002 1002 1002 1002 1002 1002 1002 1002 1002 
1002 1002 1002 1002 1002 1002 1002 1002 1002 
1002 1002 1002 1002 1002 1002 1002 1002 1002 
1002 1002 1002 1002 1002 1002 1002 1002 1002 
1002 1002 1002 1002 1002 1002 1002 1002 1002 
1002 1002 1002 1002 1002 1002 1002 1002 1002 
1002 1002 1002 1002 1002 1002 1002 1002 1002 
1002 1002 1002 1002 1002 1002 1002 1002 1002 
1002 1002 1002 1002 1002 1002 1002 1002 1002 
1002 1002 1002 1002 1002 1002 1002 1002 1002 
1002 1002 1002 1002 1002 1002 1002 1002 1002 
1002 1002 1002 1002 1002 1002 1002 1002 1002 
1002 1002 1002 1002 1002 1002 1002 1002 1002 
1002 1002 1002 1002 1002 1002 1002 1002 1002 
1002 1002 1002 1002 1002 1002 1002 1002 1002 
1002 1002 1002 1002 1002 1002 1002 1002 1002 
1002 1002 1002 1002 1002 1002 1002 1002 1002 
1002 1002 1002 1002 1002 1002 1002 1002 1002 
1002 1002 1002 1002 1002 1002 1002 1002 1002 
1002 1002 1002 1002 1002 1002 1002 1002 1002 
1002 1002 1002 1002 1002 1002 1002 1002 1002 
1002 1002 1002 1002 1002 1002 1002 1002 1002 
1002 1002 1002 1002 1002 1002 1002 1002 1002 
1002 1002 1002 1002 1002 1002 1002 1002 1002 
1002 1002 1002 1002 1002 1002 1002 1002 1002 
1002 1002 1002 1002 1002 1002 1002 1002 1002 
1002 1002 1002 1002 1002 1002 1002 1002 1002 
1002 1002 1002 1002 1002 1002 1002 1002 1002 
1002 1002 1002 1002 1002 1002 1002 1002 1002 
1002 1002 1002 1002 1002 1002 1002 1002 1002 
1002 1002 1002 1002 1002 1002 1002 1002 1002 
1002 1002 1002 1002 1002 1002 1002 1002 1002 
1002 1002 1002 1002 1002 1002 1002 1002 1002 
1002 1002 1002 1002 1002 1002 1002 1002 1002 
1002 1002 1002 1002 1002 1002 1002 1002 1002 
1002 1002 1002 1002 1002 1002 1002 1002 1002 
1002 1002 1002 1002 1002 1002 1002 1002 1002 
1002 1002 1002 1002 1002 1002 1002 1002 1002 
1002 1002 1002 1002 1002 1002 1002 1002 1002 
1002 1002 1002 1002 1002 1002 1002 1002 1002 