# vtk DataFile Version 4.2
vtk output
ASCII
DATASET POLYDATA
POINTS 2942 float
1.82998 -18.2749 23.8558 2.02879 -18.1241 23.7052 2.22192 -18.3696 23.651 
1.50539 -18.337 23.852 1.56161 -18.0618 23.7487 1.15476 -18.3491 23.6306 
1.85768 -18.5122 23.6164 1.41803 -18.488 23.7041 1.91284 -14.1918 23.3297 
1.97546 -13.8269 23.1314 2.31535 -14.0543 23.1288 1.25713 -14.1491 23.3548 
1.57259 -13.7502 23.1376 0.784003 -14.2081 23.2905 0.991086 -13.7871 23.1397 
0.573907 -14.0212 23.0939 3.1223 -14.7996 23.3227 3.16347 -14.4401 23.138 
3.50228 -14.6793 23.1217 2.46419 -14.6317 23.3537 2.80986 -14.32 23.1336 
1.92528 -14.7607 23.4261 1.39533 -14.6786 23.4408 0.735498 -14.7323 23.3787 
0.421042 -14.509 23.1533 3.70223 -15.3126 23.3246 3.90865 -15.0122 23.0833 
4.17732 -15.3605 23.1704 3.1332 -15.3686 23.4173 2.62314 -15.2722 23.4178 
2.02376 -15.2703 23.4193 1.41877 -15.279 23.4379 0.79834 -15.3062 23.4446 
0.255167 -14.9809 23.1984 0.262216 -15.3646 23.3174 -0.015152 -15.2222 22.9782 
4.93598 -16.0216 23.3284 4.98868 -15.656 23.1174 5.39743 -16.027 22.9844 
4.25984 -15.8426 23.3542 4.61315 -15.5282 23.1402 3.71775 -15.9622 23.4107 
3.22176 -15.877 23.414 2.62681 -15.8753 23.4137 2.02196 -15.8814 23.4052 
1.40618 -15.8897 23.4115 0.78381 -15.91 23.4294 0.243887 -15.91 23.3581 
-0.136523 -15.7623 23.0219 5.45163 -16.4407 23.2895 5.67779 -16.3131 23.1331 
5.71774 -16.4773 23.1346 4.94776 -16.6013 23.4651 4.41339 -16.4993 23.454 
3.80229 -16.4869 23.4221 3.20531 -16.4931 23.4048 2.60043 -16.4844 23.3911 
1.99407 -16.4902 23.3854 1.38715 -16.4983 23.3936 0.761224 -16.5118 23.4191 
0.114835 -16.5561 23.3778 -0.199127 -16.3301 23.1524 5.46686 -16.7193 23.0173 
5.16991 -17.0527 23.0061 5.06957 -17.0318 23.3341 4.45681 -17.1292 23.473 
3.80408 -17.1353 23.4461 3.17907 -17.1213 23.4073 2.57222 -17.1061 23.3913 
1.95932 -17.103 23.3937 1.3593 -17.1054 23.3932 0.760776 -17.1025 23.4154 
0.152023 -17.1249 23.439 -0.370587 -16.7785 23.2029 -0.369479 -17.1736 23.3279 
-0.640475 -17.0101 22.999 4.84813 -17.3375 23.0082 4.55571 -17.6529 23.0285 
4.54831 -17.5561 23.3259 3.88524 -17.7414 23.3732 3.20415 -17.7426 23.4204 
2.66481 -17.6333 23.4114 2.04047 -17.7176 23.4964 1.31031 -17.7532 23.4972 
0.731433 -17.7151 23.4285 0.247137 -17.6185 23.4381 -0.261411 -17.7641 23.3546 
-0.652322 -17.628 23.0153 4.19547 -17.8506 23.0854 3.68845 -18.0574 23.0435 
3.36054 -18.2671 22.9927 3.32294 -18.1747 23.2877 2.6283 -18.1822 23.4312 
0.69548 -18.3294 23.4743 0.152206 -18.2634 23.3849 -0.242139 -18.3873 23.1272 
-0.500647 -18.0859 23.0679 2.99765 -18.4472 23.0739 2.46402 -18.5444 23.254 
1.98557 -18.7063 23.063 1.3702 -18.6848 23.3509 0.824753 -18.7748 23.3641 
1.10276 -18.9739 23.0562 0.347882 -18.8423 23.3182 -0.00877991 -18.796 23.1532 
0.637949 -19.137 22.9929 0.161536 -19.0985 23.0051 1.9462 -13.5725 22.8326 
1.94532 -13.2525 22.5273 2.29595 -13.4795 22.5206 1.2369 -13.4414 22.8269 
1.4535 -13.1648 22.4474 0.585873 -13.5659 22.8306 0.756253 -13.2248 22.4457 
0.130014 -13.6089 22.6717 0.272754 -13.3101 22.5111 -0.0217163 -13.4655 22.3641 
3.1455 -14.2058 22.8274 3.18822 -13.9691 22.3733 3.46592 -14.2014 22.5286 
2.5479 -13.9163 22.8296 2.80168 -13.7692 22.4054 0.204593 -14.1553 22.8451 
-0.0834595 -13.9288 22.4303 4.33466 -14.7477 22.7088 4.4072 -14.4838 22.3127 
4.7405 -14.77 22.5749 3.78343 -14.608 22.8337 3.8528 -14.3821 22.4456 
0.114478 -14.7729 22.9542 -0.072464 -14.6603 22.5379 4.92799 -15.2926 22.8244 
5.00777 -14.9638 22.5512 5.31731 -15.2682 22.5317 4.29393 -15.1122 22.9523 
-0.198724 -15.3043 22.4619 5.49812 -15.7394 22.6854 5.61789 -15.5899 22.5118 
5.75218 -15.8918 22.4391 -0.388412 -15.7253 22.5757 -0.451758 -16.1229 22.7917 
-0.58591 -15.9066 22.3747 5.62381 -16.4078 22.9632 5.58306 -16.1536 22.5929 
5.41125 -16.5269 22.6115 -0.508301 -16.5731 22.9501 -0.686398 -16.4445 22.5132 
5.12596 -16.9188 22.6386 4.98977 -17.1098 22.7873 4.76898 -17.2131 22.5283 
-0.759952 -17.1095 22.5353 5.45051 -17.8632 22.7064 5.60532 -17.5243 22.5535 
5.80061 -17.7591 22.5499 5.32088 -17.5991 22.5 4.4967 -17.5223 22.6416 
4.28518 -17.7428 22.7596 4.1259 -17.7953 22.4356 -0.755118 -17.6324 22.4566 
5.59932 -18.1854 22.7175 5.8139 -18.1739 22.4175 5.05905 -17.973 22.5764 
5.18659 -18.3071 22.6882 4.76473 -18.3855 22.3861 3.80208 -18.0089 22.6063 
3.33805 -18.1729 22.6498 3.08939 -18.3603 22.74 2.9402 -18.4157 22.4446 
-0.426874 -18.4561 22.8053 -0.662109 -18.2139 22.5063 5.40012 -18.494 22.5157 
5.04453 -18.5584 22.4916 2.58345 -18.6586 22.6898 2.03995 -18.8904 22.6802 
2.32943 -18.9843 22.3785 1.57472 -18.9348 22.8561 -0.203732 -18.9597 22.5953 
-0.488214 -18.7097 22.4418 1.92417 -19.1223 22.4067 1.26816 -19.2435 22.5568 
0.661285 -19.3465 22.5559 0.222052 -19.2901 22.5826 1.93929 -13.0104 22.2192 
2.04373 -12.7041 21.8883 2.35663 -13.0026 21.9746 1.34554 -12.9213 22.115 
1.42352 -12.6015 21.7917 1.01859 -12.8502 21.7973 2.49538 -13.3542 22.1755 
2.60692 -13.2122 21.9274 2.82803 -13.4626 21.9512 0.81178 -13.0691 21.9805 
0.24104 -13.2438 22.081 -0.0814362 -13.5546 21.9101 3.14331 -13.7435 21.9429 
3.46162 -14.0392 21.9896 -0.145157 -14.1037 21.9186 5.04293 -14.7677 22.3027 
4.83427 -14.4829 21.819 5.3132 -14.7533 21.9433 4.28 -14.3808 21.8052 
3.85188 -14.2988 21.9085 -0.131296 -14.7185 21.9188 5.62915 -15.2885 22.232 
5.7057 -14.9911 21.7261 5.9774 -15.3455 21.9759 -0.248099 -15.1384 21.805 
6.05432 -15.8508 22.1516 6.26948 -15.5196 21.8568 6.42395 -15.9341 21.8458 
-0.436661 -15.538 22.1074 -0.670963 -15.8339 21.8524 6.13992 -16.4626 22.0775 
6.41775 -16.4224 21.7107 5.68596 -16.4608 22.3092 -0.765189 -16.4755 21.9025 
6.09161 -16.8048 21.8243 5.96071 -17.1438 21.8504 5.68545 -17.1907 22.2406 
5.06111 -17.0597 22.2951 -0.764978 -17.1038 21.9094 6.10102 -17.6822 22.1131 
6.15724 -17.449 21.8395 6.33124 -17.6953 21.888 4.87734 -17.7186 22.3071 
4.41421 -17.6609 22.2761 -0.761792 -17.7127 21.9043 6.2367 -17.827 21.9006 
5.87524 -18.0244 21.953 5.53467 -18.4044 22.1715 5.38514 -18.2821 21.8429 
4.36581 -18.2327 22.215 3.85397 -18.3842 22.164 3.22569 -18.3907 22.2955 
-0.742319 -18.2305 21.8206 5.0027 -18.6264 22.1067 4.39243 -18.7793 22.0708 
4.61882 -18.8891 21.836 4.10486 -18.889 21.92 3.76578 -18.7621 21.8639 
3.41164 -18.8811 21.8085 3.2721 -18.787 22.0329 2.77221 -18.8295 22.2018 
-0.441742 -18.9585 22.223 -0.598956 -18.7397 21.9781 4.36109 -19.0431 21.8614 
3.02307 -19.0465 21.9093 2.52622 -19.1198 21.9818 1.90155 -19.2156 21.9451 
1.42803 -19.4952 22.1424 1.66561 -19.4447 21.8416 0.926935 -19.53 22.2598 
0.369342 -19.5463 22.2122 -0.0723175 -19.4661 21.8914 -0.365488 -19.0931 21.9223 
1.34317 -19.7351 21.8034 0.682928 -19.69 21.9885 0.256677 -19.8531 21.7483 
2.45805 -12.2881 21.471 2.59886 -11.9718 21.2022 2.78911 -12.3416 21.2302 
1.92529 -12.3596 21.6192 2.16029 -11.969 21.3196 1.4278 -12.2935 21.5557 
1.58266 -12.0319 21.338 1.15444 -12.2557 21.3542 2.59606 -12.8549 21.6702 
2.98298 -12.844 21.2501 0.663007 -12.9421 21.5343 0.763477 -12.6038 21.2887 
0.403702 -12.88 21.1791 3.07216 -13.3469 21.5603 3.21985 -13.1594 21.1692 
3.36196 -13.5935 21.332 0.246863 -13.1631 21.4966 -0.0813904 -13.4736 21.2574 
3.57303 -14.0225 21.3311 -0.125803 -14.1191 21.3195 4.81702 -14.5274 21.2004 
5.23463 -14.6837 21.5069 4.45728 -14.4003 21.3881 3.95802 -14.2941 21.2617 
-0.166599 -14.779 21.2222 6.13618 -15.2158 21.6781 6.14929 -15.08 21.1838 
6.50916 -15.4932 21.4585 5.47678 -14.9167 21.1851 -0.362393 -15.1246 21.3844 
-0.472778 -15.3634 21.6448 -0.588153 -15.4802 21.2193 6.60116 -16.0088 21.4774 
3.71221 -16.0024 21.5451 4.14352 -15.943 21.4043 3.91707 -15.6937 21.1871 
3.38958 -15.5664 21.2439 3.06366 -15.9472 21.5699 2.76616 -15.5388 21.3564 
2.4274 -15.9395 21.5875 2.12376 -15.5457 21.353 1.79193 -15.9655 21.5715 
1.52424 -15.7123 21.2606 1.331 -16.0603 21.4995 1.21019 -16.0391 21.2904 
-0.744324 -15.967 21.3559 6.45071 -16.3596 21.2288 4.89516 -16.5939 21.4977 
5.35211 -16.5683 21.3411 5.10421 -16.2948 21.1217 4.58882 -16.1169 21.2278 
4.23288 -16.4157 21.5734 3.71474 -16.5519 21.6394 3.20583 -16.4821 21.6486 
2.58288 -16.4861 21.6616 2.05011 -16.4052 21.6649 1.53279 -16.5452 21.5482 
1.2173 -16.3679 21.3835 -0.751199 -16.4866 21.2786 6.21738 -16.6564 21.437 
5.82127 -16.7533 21.4149 5.57748 -17.1385 21.5937 4.9106 -17.1567 21.5915 
4.39769 -17.0526 21.6132 3.81274 -17.0581 21.6235 3.21136 -17.0851 21.6349 
2.58605 -17.1085 21.6477 1.96585 -17.0463 21.5829 1.59175 -17.0115 21.2378 
1.36946 -16.6636 21.2364 -0.749817 -17.114 21.2771 6.08069 -17.6669 21.7521 
5.52427 -17.8368 21.6521 5.01177 -17.6962 21.5644 4.42591 -17.6843 21.5796 
3.81844 -17.6991 21.5911 3.19235 -17.705 21.5962 2.55993 -17.7302 21.6137 
2.01242 -17.7181 21.5385 1.70614 -17.566 21.2346 -0.747217 -17.7424 21.2938 
4.93108 -18.382 21.6702 4.50584 -18.2257 21.5669 3.8249 -18.4432 21.6292 
3.18781 -18.3512 21.5781 2.56344 -18.3366 21.5834 2.01928 -18.3307 21.5239 
1.70228 -18.1887 21.2244 -0.630295 -18.3634 21.3625 4.3118 -18.7827 21.7069 
3.12686 -18.8904 21.6961 2.56966 -18.8771 21.6685 2.09871 -18.8096 21.603 
1.77337 -18.946 21.3876 -0.469601 -18.8476 21.5592 -0.252173 -19.0028 21.3191 
-0.397119 -18.5904 21.1956 2.08382 -19.2599 21.1115 2.2487 -19.5574 21.236 
1.85768 -19.4871 21.5446 0.768567 -19.6598 21.5567 0.902728 -19.5383 21.3086 
0.786667 -19.4203 21.3056 0.665533 -19.548 21.3077 -0.150934 -19.4487 21.1992 
1.87138 -19.8276 21.2661 1.52011 -20.0674 21.4604 1.57016 -20.1102 21.2249 
1.19585 -19.9003 21.3235 0.371054 -19.9343 21.3004 0.145248 -20.1734 21.4817 
-0.0144653 -19.9795 21.3617 1.43727 -20.1947 21.3081 0.124832 -20.2391 21.3085 
1.87081 -11.1991 20.9092 2.13506 -10.8711 20.5442 2.36582 -11.1461 20.7421 
1.1973 -11.1762 20.9551 1.47448 -10.7567 20.5903 0.754752 -11.2292 20.8936 
0.914749 -10.9206 20.7665 0.613669 -11.071 20.6083 2.4039 -11.5513 20.9826 
2.60948 -11.3487 20.7192 2.84473 -11.7896 20.7656 1.89508 -11.6714 21.1247 
1.33011 -11.7253 21.101 0.825558 -11.6776 20.951 0.452921 -11.5276 20.6063 
[...]
CELL_DATA 5880
SCALARS scalars float
LOOKUP_TABLE default
2002 2002 2002 2002 2002 2002 2002 2002 2002 
2002 2002 2002 2002 2002 2002 2002 2002 2002 
2002 2002 2002 2002 2002 2002 2002 2002 2002 
2002 2002 2002 2002 2002 2002 2002 2002 2002 
2002 2002 2002 2002 2002 2002 2002 2002 2002 
2002 2002 2002 2002 2002 2002 2002 2002 2002 
2002 2002 2002 2002 2002 2002 2002 2002 2002 
2002 2002 2002 2002 2002 2002 2002 2002 2002 
2002 2002 2002 2002 2002 2002 2002 2002 2002 
2002 2002 2002 2002 2002 2002 2002 2002 2002 
2002 2002 2002 2002 2002 2002 2002 2002 2002 
2002 2002 2002 2002 2002 2002 2002 2002 2002 
2002 2002 2002 2002 2002 2002 2002 2002 2002 
2002 2002 2002 2002 2002 2002 2002 2002 2002 
2002 2002 2002 2002 2002 2002 2002 2002 2002 
2002 2002 2002 2002 2002 2002 2002 2002 2002 
2002 2002 2002 2002 2002 2002 2002 2002 2002 
2002 2002 2002 2002 2002 2002 2002 2002 2002 
2002 2002 2002 2002 2002 2002 2002 2002 2002 
2002 2002 2002 2002 2002 2002 2002 2002 2002 
2002 2002 2002 2002 2002 2002 2002 2002 2002 
2002 2002 2002 2002 2002 2002 2002 2002 2002 
2002 2002 2002 2002 2002 2002 2002 2002 2002 
2002 2002 2002 2002 2002 2002 2002 2002 2002 
2002 2002 2002 2002 2002 2002 2002 2002 2002 
2002 2002 2002 2002 2002 2002 2002 2002 2002 
2002 2002 2002 2002 2002 2002 2002 2002 2002 
2002 2002 2002 2002 2002 2002 2002 2002 2002 
2002 2002 2002 2002 2002 2002 2002 2002 2002 
2002 2002 2002 2002 2002 2002 2002 2002 2002 
2002 2002 2002 2002 2002 2002 2002 2002 2002 
2002 2002 2002 2002 2002 2002 2002 2002 2002 
2002 2002 2002 2002 2002 2002 2002 2002 2002 
2002 2002 2002 2002 2002 2002 2002 2002 2002 
2002 2002 2002 2002 2002 2002 2002 2002 2002 
2002 2002 2002 2002 2002 2002 2002 2002 2002 
2002 2002 2002 2002 2002 2002 2002 2002 2002 
2002 2002 2002 2002 2002 2002 2002 2002 2002 
2002 2002 2002 2002 2002 2002 2002 2002 2002 
2002 2002 2002 2002 2002 2002 2002 2002 2002 
2002 2002 2002 2002 2002 2002 2002 2002 2002 
2002 2002 2002 2002 2002 2002 2002 2002 2002 
2002 2002 2002 2002 2002 2002 2002 2002 2002 
2002 2002 2002 2002 2002 2002 2002 2002 2002 
2002 2002 2002 2002 2002 2002 2002 2002 2002 
2002 2002 2002 2002 2002 2002 2002 2002 2002 
2002 2002 2002 2002 2002 2002 2002 2002 2002 
2002 2002 2002 2002 2002 2002 2002 2002 2002 
2002 2002 2002 2002 2002 2002 2002 2002 2002 
2002 2002 2002 2002 2002 2002 2002 2002 2002 
2002 2002 2002 2002 2002 2002 2002 2002 2002 
2002 2002 2002 2002 2002 2002 2002 2002 2002 
2002 2002 2002 2002 2002 2002 2002 2002 2002 
2002 2002 2002 2002 2002 2002 2002 2002 2002 
2002 2002 2002 2002 2002 2002 2002 2002 2002 
2002 2002 2002 2002 2002 2002 2002 2002 2002 
2002 2002 2002 2002 2002 2002 2002 2002 2002 
2002 2002 2002 2002 2002 2002 2002 2002 2002 
2002 2002 2002 2002 2002 2002 2002 2002 2002 
2002 2002 2002 2002 2002 2002 2002 2002 2002 
2002 2002 2002 2002 2002 2002 2002 2002 2002 
2002 2002 2002 2002 2002 2002 2002 2002 2002 
2002 2002 2002 2002 2002 2002 2002 2002 2002 
2002 2002 2002 2002 2002 2002 2002 2002 2002 
2002 2002 2002 2002 2002 2002 2002 2002 2002 
2002 2002 2002 2002 2002 2002 2002 2002 2002 
2002 2002 2002 2002 2002 2002 2002 2002 2002 
2002 2002 2002 2002 2002 2002 2002 2002 2002 
2002 2002 2002 2002 2002 2002 2002 2002 2002 
2002 2002 2002 2002 2002 2002 2002 2002 2002 
2002 2002 2002 2002 2002 2002 2002 2002 2002 
2002 2002 2002 2002 2002 2002 2002 2002 2002 
2002 2002 2002 2002 2002 2002 2002 2002 2002 
2002 2002 2002 2002 2002 2002 2002 2002 2002 
2002 2002 2002 2002 2002 2002 2002 2002 2002 
2002 2002 2002 2002 2002 2002 2002 2002 2002 
2002 2002 2002 2002 2002 2002 2002 2002 2002 
2002 2002 2002 2002 2002 2002 2002 2002 2002 
2002 2002 2002 2002 2002 2002 2002 2002 2002 
2002 2002 2002 2002 2002 2002 2002 2002 2002 
2002 2002 2002 2002 2002 2002 2002 2002 2002 
2002 2002 2002 2002 2002 2002 2002 2002 2002 
2002 2002 2002 2002 2002 2002 2002 2002 2002 
2002 2002 2002 2002 2002 2002 2002 2002 2002 
2002 2002 2002 2002 2002 2002 2002 2002 2002 
2002 2002 2002 2002 2002 2002 2002 2002 2002 
2002 2002 2002 2002 2002 2002 2002 2002 2002 
2002 2002 2002 2002 2002 2002 2002 2002 2002 
2002 2002 2002 2002 2002 2002 2002 2002 2002 
2002 2002 2002 2002 2002 2002 2002 2002 2002 
2002 2002 2002 2002 2002 2002 2002 2002 2002 
2002 2002 2002 2002 2002 2002 2002 2002 2002 
2002 2002 2002 2002 2002 2002 2002 2002 2002 
2002 2002 2002 2002 2002 2002 2002 2002 2002 
2002 2002 2002 2002 2002 2002 2002 2002 2002 
2002 2002 2002 2002 2002 2002 2002 2002 2002 
2002 2002 2002 2002 2002 2002 2002 2002 2002 
2002 2002 2002 2002 2002 2002 2002 2002 2002 
2002 2002 2002 2002 2002 2002 2002 2002 2002 
2002 2002 2002 2002 2002 2002 2002 2002 2002 
2002 2002 2002 2002 2002 2002 2002 2002 2002 
2002 2002 2002 2002 2002 2002 2002 2002 2002 
2002 2002 2002 2002 2002 2002 2002 2002 2002 
2002 2002 2002 2002 2002 2002 2002 2002 2002 
2002 2002 2002 2002 2002 2002 2002 2002 2002 
2002 2002 2002 2002 2002 2002 2002 2002 2002 
2002 2002 2002 2002 2002 2002 2002 2002 2002 
2002 2002 2002 2002 2002 2002 2002 2002 2002 
2002 2002 2002 2002 2002 2002 2002 2002 2002 
2002 2002 2002 2002 2002 2002 2002 2002 2002 
2002 2002 2002 2002 2002 2002 2002 2002 2002 
2002 2002 2002 2002 2002 2002 2002 2002 2002 
2002 2002 2002 2002 2002 2002 2002 2002 2002 
2002 2002 2002 2002 2002 2002 2002 2002 2002 
2002 2002 2002 2002 2002 2002 2002 2002 2002 
2002 2002 2002 2002 2002 2002 2002 2002 2002 
2002 2002 2002 2002 2002 2002 2002 2002 2002 
2002 2002 2002 2002 2002 2002 2002 2002 2002 
2002 2002 2002 2002 2002 2002 2002 2002 2002 
2002 2002 2002 2002 2002 2002 2002 2002 2002 
2002 2002 2002 2002 2002 2002 2002 2002 2002 
2002 2002 2002 2002 2002 2002 2002 2002 2002 
2002 2002 2002 2002 2002 2002 2002 2002 2002 
2002 2002 2002 2002 2002 2002 2002 2002 2002 
2002 2002 2002 2002 2002 2002 2002 2002 2002 
2002 2002 2002 2002 2002 2002 2002 2002 2002 
2002 2002 2002 2002 2002 2002 2002 2002 2002 
2002 2002 2002 2002 2002 2002 2002 2002 2002 
2002 2002 2002 2002 2002 2002 2002 2002 2002 
2002 2002 2002 2002 2002 2002 2002 2002 2002 
2002 2002 2002 2002 2002 2002 2002 2002 2002 
2002 2002 2002 2002 2002 2002 2002 2002 2002 
2002 2002 2002 2002 2002 2002 2002 2002 2002 
2002 2002 2002 2002 2002 2002 2002 2002 2002 
2002 2002 2002 2002 2002 2002 2002 2002 2002 
2002 2002 2002 2002 2002 2002 2002 2002 2002 
2002 2002 2002 2002 2002 2002 2002 2002 2002 
2002 2002 2002 2002 2002 2002 2002 2002 2002 
2002 2002 2002 2002 2002 2002 2002 2002 2002 
2002 2002 2002 2002 2002 2002 2002 2002 2002 
2002 2002 2002 2002 2002 2002 2002 2002 2002 
2002 2002 2002 2002 2002 2002 2002 2002 2002 
2002 2002 2002 2002 2002 2002 2002 2002 2002 
2002 2002 2002 2002 2002 2002 2002 2002 2002 
2002 2002 2002 2002 2002 2002 2002 2002 2002 
2002 2002 2002 2002 2002 2002 2002 2002 2002 
2002 2002 2002 2002 2002 2002 2002 2002 2002 
2002 2002 2002 2002 2002 2002 2002 2002 2002 
2002 2002 2002 2002 2002 2002 2002 2002 2002 
2002 2002 2002 2002 2002 2002 2002 2002 2002 
2002 2002 2002 2002 2002 2002 2002 2002 2002 
2002 2002 2002 2002 2002 2002 2002 2002 2002 
2002 2002 2002 2002 2002 2002 2002 2002 2002 
2002 2002 2002 2002 2002 2002 2002 2002 2002 
2002 2002 2002 2002 2002 2002 2002 2002 2002 
2002 2002 2002 2002 2002 2002 2002 2002 2002 
2002 2002 2002 2002 2002 2002 2002 2002 2002 
2002 2002 2002 2002 2002 2002 2002 2002 2002 
2002 2002 2002 2002 2002 2002 2002 2002 2002 
2002 2002 2002 2002 2002 2002 2002 2002 2002 
2002 2002 2002 2002 2002 2002 2002 2002 2002 
2002 2002 2002 2002 2002 2002 2002 2002 2002 
2002 2002 2002 2002 2002 2002 2002 2002 2002 
2002 2002 2002 2002 2002 2002 2002 2002 2002 
2002 2002 2002 2002 2002 2002 2002 2002 2002 
2002 2002 2002 2002 2002 2002 2002 2002 2002 
2002 2002 2002 2002 2002 2002 2002 2002 2002 
2002 2002 2002 2002 2002 2002 2002 2002 2002 
2002 2002 2002 2002 2002 2002 2002 2002 2002 
2002 2002 2002 2002 2002 2002 2002 2002 2002 
2002 2002 2002 2002 2002 2002 2002 2002 2002 
2002 2002 2002 2002 2002 2002 2002 2002 2002 
2002 2002 2002 2002 2002 2002 2002 2002 2002 
2002 2002 2002 2002 2002 2002 2002 2002 2002 
2002 2002 2002 2002 2002 2002 2002 2002 2002 
2002 2002 2002 2002 2002 2002 2002 2002 2002 
2002 2002 2002 2002 2002 2002 2002 2002 2002 
2002 2002 2002 2002 2002 2002 2002 2002 2002 
2002 2002 2002 2002 2002 2002 2002 2002 2002 
2002 2002 2002 2002 2002 2002 2002 2002 2002 
2002 2002 2002 2002 2002 2002 2002 2002 2002 
2002 2002 2002 2002 2002 2002 2002 2002 2002 
2002 2002 2002 2002 2002 2002 2002 2002 2002 
2002 2002 2002 2002 2002 2002 2002 2002 2002 
2002 2002 2002 2002 2002 2002 2002 2002 2002 
2002 2002 2002 2002 2002 2002 2002 2002 2002 
2002 2002 2002 2002 2002 2002 2002 2002 2002 
2002 2002 2002 2002 2002 2002 2002 2002 2002 
2002 2002 2002 2002 2002 2002 2002 2002 2002 
2002 2002 2002 2002 2002 2002 2002 2002 2002 
2002 2002 2002 2002 2002 2002 2002 2002 2002 
2002 2002 2002 2002 2002 2002 2002 2002 2002 
2002 2002 2002 2002 2002 2002 2002 2002 2002 
2002 2002 2002 2002 2002 2002 2002 2002 2002 
2002 2002 2002 2002 2002 2002 2002 2002 2002 
2002 2002 2002 2002 2002 2002 2002 2002 2002 
2002 2002 2002 2002 2002 2002 2002 2002 2002 
2002 2002 2002 2002 2002 2002 2002 2002 2002 
2002 2002 2002 2002 2002 2002 2002 2002 2002 
2002 2002 2002 2002 2002 2002 2002 2002 2002 
2002 2002 2002 2002 2002 2002 2002 2002 2002 
2002 2002 2002 2002 2002 2002 2002 2002 2002 
2002 2002 2002 2002 2002 2002 2002 2002 2002 
2002 2002 2002 2002 2002 2002 2002 2002 2002 
2002 2002 2002 2002 2002 2002 2002 2002 2002 
2002 2002 2002 2002 2002 2002 2002 2002 2002 
2002 2002 2002 2002 2002 2002 2002 2002 2002 
2002 2002 2002 2002 2002 2002 2002 2002 2002 
2002 2002 2002 2002 2002 2002 2002 2002 2002 
2002 2002 2002 2002 2002 2002 2002 2002 2002 
2002 2002 2002 2002 2002 2002 2002 2002 2002 
2002 2002 2002 2002 2002 2002 2002 2002 2002 
2002 2002 2002 2002 2002 2002 2002 2002 2002 
2002 2002 2002 2002 2002 2002 2002 2002 2002 
2002 2002 2002 2002 2002 2002 2002 2002 2002 
2002 2002 2002 2002 2002 2002 2002 2002 2002 
2002 2002 2002 2002 2002 2002 2002 2002 2002 
2002 2002 2002 2002 2002 2002 2002 2002 2002 
2002 2002 2002 2002 2002 2002 2002 2002 2002 
2002 2002 2002 2002 2002 2002 2002 2002 2002 
2002 2002 2002 2002 2002 2002 2002 2002 2002 
2002 2002 2002 2002 2002 2002 2002 2002 2002 
2002 2002 2002 2002 2002 2002 2002 2002 2002 
2002 2002 2002 2002 2002 2002 2002 2002 2002 
2002 2002 2002 2002 2002 2002 2002 2002 2002 
2002 2002 2002 2002 2002 2002 2002 2002 2002 
2002 2002 2002 2002 2002 2002 2002 2002 2002 
2002 2002 2002 2002 2002 2002 2002 2002 2002 
2002 2002 2002 2002 2002 2002 2002 2002 2002 
2002 2002 2002 2002 2002 2002 2002 2002 2002 
2002 2002 2002 2002 2002 2002 2002 2002 2002 
2002 2002 2002 2002 2002 2002 2002 2002 2002 
2002 2002 2002 2002 2002 2002 2002 2002 2002 
2002 2002 2002 2002 2002 2002 2002 2002 2002 
2002 2002 2002 2002 2002 2002 2002 2002 2002 
2002 2002 2002 2002 2002 2002 2002 2002 2002 
2002 2002 2002 2002 2002 2002 2002 2002 2002 
2002 2002 2002 2002 2002 2002 2002 2002 2002 
2002 2002 2002 2002 2002 2002 2002 2002 2002 
2002 2002 2002 2002 2002 2002 2002 2002 2002 
2002 2002 2002 2002 2002 2002 2002 2002 2002 
2002 2002 2002 2002 2002 2002 2002 2002 2002 
2002 2002 2002 2002 2002 2002 2002 2002 2002 
2002 2002 2002 2002 2002 2002 2002 2002 2002 
2002 2002 2002 2002 2002 2002 2002 2002 2002 
2002 2002 2002 2002 2002 2002 2002 2002 2002 
2002 2002 2002 2002 2002 2002 2002 2002 2002 
2002 2002 2002 2002 2002 2002 2002 2002 2002 
2002 2002 2002 2002 2002 2002 2002 2002 2002 
2002 2002 2002 2002 2002 2002 2002 2002 2002 
2002 2002 2002 2002 2002 2002 2002 2002 2002 
2002 2002 2002 2002 2002 2002 2002 2002 2002 
2002 2002 2002 2002 2002 2002 2002 2002 2002 
2002 2002 2002 2002 2002 2002 2002 2002 2002 
2002 2002 2002 2002 2002 2002 2002 2002 2002 
2002 2002 2002 2002 2002 2002 2002 2002 2002 
2002 2002 2002 2002 2002 2002 2002 2002 2002 
2002 2002 2002 2002 2002 2002 2002 2002 2002 
2002 2002 2002 2002 2002 2002 2002 2002 2002 
2002 2002 2002 2002 2002 2002 2002 2002 2002 
2002 2002 2002 2002 2002 2002 2002 2002 2002 
2002 2002 2002 2002 2002 2002 2002 2002 2002 
2002 2002 2002 2002 2002 2002 2002 2002 2002 
2002 2002 2002 2002 2002 2002 2002 2002 2002 
2002 2002 2002 2002 2002 2002 2002 2002 2002 
2002 2002 2002 2002 2002 2002 2002 2002 2002 
2002 2002 2002 2002 2002 2002 2002 2002 2002 
2002 2002 2002 2002 2002 2002 2002 2002 2002 
2002 2002 2002 2002 2002 2002 2002 2002 2002 
2002 2002 2002 2002 2002 2002 2002 2002 2002 
2002 2002 2002 2002 2002 2002 2002 2002 2002 
2002 2002 2002 2002 2002 2002 2002 2002 2002 
2002 2002 2002 2002 2002 2002 2002 2002 2002 
2002 2002 2002 2002 2002 2002 2002 2002 2002 
2002 2002 2002 2002 2002 2002 2002 2002 2002 
2002 2002 2002 2002 2002 2002 2002 2002 2002 
2002 2002 2002 2002 2002 2002 2002 2002 2002 
2002 2002 2002 2002 2002 2002 2002 2002 2002 
2002 2002 2002 2002 2002 2002 2002 2002 2002 
2002 2002 2002 2002 2002 2002 2002 2002 2002 
2002 2002 2002 2002 2002 2002 2002 2002 2002 
2002 2002 2002 2002 2002 2002 2002 2002 2002 
2002 2002 2002 2002 2002 2002 2002 2002 2002 
2002 2002 2002 2002 2002 2002 2002 2002 2002 
2002 2002 2002 2002 2002 2002 2002 2002 2002 
2002 2002 2002 2002 2002 2002 2002 2002 2002 
2002 2002 2002 2002 2002 2002 2002 2002 2002 
2002 2002 2002 2002 2002 2002 2002 2002 2002 
2002 2002 2002 2002 2002 2002 2002 2002 2002 
2002 2002 2002 2002 2002 2002 2002 2002 2002 
2002 2002 2002 2002 2002 2002 2002 2002 2002 
2002 2002 2002 2002 2002 2002 2002 2002 2002 
2002 2002 2002 2002 2002 2002 2002 2002 2002 
2002 2002 2002 2002 2002 2002 2002 2002 2002 
2002 2002 2002 2002 2002 2002 2002 2002 2002 
2002 2002 2002 2002 2002 2002 2002 2002 2002 
2002 2002 2002 2002 2002 2002 2002 2002 2002 
2002 2002 2002 2002 2002 2002 2002 2002 2002 
2002 2002 2002 2002 2002 2002 2002 2002 2002 
2002 2002 2002 2002 2002 2002 2002 2002 2002 
2002 2002 2002 2002 2002 2002 2002 2002 2002 
2002 2002 2002 2002 2002 2002 2002 2002 2002 
2002 2002 2002 2002 2002 2002 2002 2002 2002 
2002 2002 2002 2002 2002 2002 2002 2002 2002 
2002 2002 2002 2002 2002 2002 2002 2002 2002 
2002 2002 2002 2002 2002 2002 2002 2002 2002 
2002 2002 2002 2002 2002 2002 2002 2002 2002 
2002 2002 2002 2002 2002 2002 2002 2002 2002 
2002 2002 2002 2002 2002 2002 2002 2002 2002 
2002 2002 2002 2002 2002 2002 2002 2002 2002 
2002 2002 2002 2002 2002 2002 2002 2002 2002 
2002 2002 2002 2002 2002 2002 2002 2002 2002 
2002 2002 2002 2002 2002 2002 2002 2002 2002 
2002 2002 2002 2002 2002 2002 2002 2002 2002 
2002 2002 2002 2002 2002 2002 2002 2002 2002 
2002 2002 2002 2002 2002 2002 2002 2002 2002 
2002 2002 2002 2002 2002 2002 2002 2002 2002 
2002 2002 2002 2002 2002 2002 2002 2002 2002 
2002 2002 2002 2002 2002 2002 2002 2002 2002 
2002 2002 2002 2002 2002 2002 2002 2002 2002 
2002 2002 2002 2002 2002 2002 2002 2002 2002 
2002 2002 2002 2002 2002 2002 2002 2002 2002 
2002 2002 2002 2002 2002 2002 2002 2002 2002 
2002 2002 2002 2002 2002 2002 2002 2002 2002 
2002 2002 2002 2002 2002 2002 2002 2002 2002 
2002 2002 2002 2002 2002 2002 2002 2002 2002 
2002 2002 2002 2002 2002 2002 2002 2002 2002 
2002 2002 2002 2002 2002 2002 2002 2002 2002 
2002 2002 2002 2002 2002 2002 2002 2002 2002 
2002 2002 2002 2002 2002 2002 2002 2002 2002 
2002 2002 2002 2002 2002 2002 2002 2002 2002 
2002 2002 2002 2002 2002 2002 2002 2002 2002 
2002 2002 2002 2002 2002 2002 2002 2002 2002 
2002 2002 2002 2002 2002 2002 2002 2002 2002 
2002 2002 2002 2002 2002 2002 2002 2002 2002 
2002 2002 2002 2002 2002 2002 2002 2002 2002 
2002 2002 2002 2002 2002 2002 2002 2002 2002 
2002 2002 2002 2002 2002 2002 2002 2002 2002 
2002 2002 2002 2002 2002 2002 2002 2002 2002 
2002 2002 2002 2002 2002 2002 2002 2002 2002 
2002 2002 2002 2002 2002 2002 2002 2002 2002 
2002 2002 2002 2002 2002 2002 2002 2002 2002 
2002 2002 2002 2002 2002 2002 2002 2002 2002 
2002 2002 2002 2002 2002 2002 2002 2002 2002 
2002 2002 2002 2002 2002 2002 2002 2002 2002 
2002 2002 2002 2002 2002 2002 2002 2002 2002 
2002 2002 2002 2002 2002 2002 2002 2002 2002 
2002 2002 2002 2002 2002 2002 2002 2002 2002 
2002 2002 2002 2002 2002 2002 2002 2002 2002 
2002 2002 2002 2002 2002 2002 2002 2002 2002 
2002 2002 2002 2002 2002 2002 2002 2002 2002 
2002 2002 2002 2002 2002 2002 2002 2002 2002 
2002 2002 2002 2002 2002 2002 2002 2002 2002 
2002 2002 2002 2002 2002 2002 2002 2002 2002 
2002 2002 2002 2002 2002 2002 2002 2002 2002 
2002 2002 2002 2002 2002 2002 2002 2002 2002 
2002 2002 2002 2002 2002 2002 2002 2002 2002 
2002 2002 2002 2002 2002 2002 2002 2002 2002 
2002 2002 2002 2002 2002 2002 2002 2002 2002 
2002 2002 2002 2002 2002 2002 2002 2002 2002 
2002 2002 2002 2002 2002 2002 2002 2002 2002 
2002 2002 2002 2002 2002 2002 2002 2002 2002 
2002 2002 2002 2002 2002 2002 2002 2002 2002 
2002 2002 2002 2002 2002 2002 2002 2002 2002 
2002 2002 2002 2002 2002 2002 2002 2002 2002 
2002 2002 2002 2002 2002 2002 2002 2002 2002 
2002 2002 2002 2002 2002 2002 2002 2002 2002 
2002 2002 2002 2002 2002 2002 2002 2002 2002 
2002 2002 2002 2002 2002 2002 2002 2002 2002 
2002 2002 2002 2002 2002 2002 2002 2002 2002 
2002 2002 2002 2002 2002 2002 2002 2002 2002 
2002 2002 2002 2002 2002 2002 2002 2002 2002 
2002 2002 2002 2002 2002 2002 2002 2002 2002 
2002 2002 2002 2002 2002 2002 2002 2002 2002 
2002 2002 2002 2002 2002 2002 2002 2002 2002 
2002 2002 2002 2002 2002 2002 2002 2002 2002 
2002 2002 2002 2002 2002 2002 2002 2002 2002 
2002 2002 2002 2002 2002 2002 2002 2002 2002 
2002 2002 2002 2002 2002 2002 2002 2002 2002 
2002 2002 2002 2002 2002 2002 2002 2002 2002 
2002 2002 2002 2002 2002 2002 2002 2002 2002 
2002 2002 2002 2002 2002 2002 2002 2002 2002 
2002 2002 2002 2002 2002 2002 2002 2002 2002 
2002 2002 2002 2002 2002 2002 2002 2002 2002 
2002 2002 2002 2002 2002 2002 2002 2002 2002 
2002 2002 2002 2002 2002 2002 2002 2002 2002 
2002 2002 2002 2002 2002 2002 2002 2002 2002 
2002 2002 2002 2002 2002 2002 2002 2002 2002 
2002 2002 2002 2002 2002 2002 2002 2002 2002 
2002 2002 2002 2002 2002 2002 2002 2002 2002 
2002 2002 2002 2002 2002 2002 2002 2002 2002 
2002 2002 2002 2002 2002 2002 2002 2002 2002 
2002 2002 2002 2002 2002 2002 2002 2002 2002 
2002 2002 2002 2002 2002 2002 2002 2002 2002 
2002 2002 2002 2002 2002 2002 2002 2002 2002 
2002 2002 2002 2002 2002 2002 2002 2002 2002 
2002 2002 2002 2002 2002 2002 2002 2002 2002 
2002 2002 2002 2002 2002 2002 2002 2002 2002 
2002 2002 2002 2002 2002 2002 2002 2002 2002 
2002 2002 2002 2002 2002 2002 2002 2002 2002 
2002 2002 2002 2002 2002 2002 2002 2002 2002 
2002 2002 2002 2002 2002 2002 2002 2002 2002 
2002 2002 2002 2002 2002 2002 2002 2002 2002 
2002 2002 2002 2002 2002 2002 2002 2002 2002 
2002 2002 2002 2002 2002 2002 2002 2002 2002 
2002 2002 2002 2002 2002 2002 2002 2002 2002 
2002 2002 2002 2002 2002 2002 2002 2002 2002 
2002 2002 2002 2002 2002 2002 2002 2002 2002 
2002 2002 2002 2002 2002 2002 2002 2002 2002 
2002 2002 2002 2002 2002 2002 2002 2002 2002 
2002 2002 2002 2002 2002 2002 2002 2002 2002 
2002 2002 2002 2002 2002 2002 2002 2002 2002 
2002 2002 2002 2002 2002 2002 2002 2002 2002 
2002 2002 2002 2002 2002 2002 2002 2002 2002 
2002 2002 2002 2002 2002 2002 2002 2002 2002 
2002 2002 2002 2002 2002 2002 2002 2002 2002 
2002 2002 2002 2002 2002 2002 2002 2002 2002 
2002 2002 2002 2002 2002 2002 2002 2002 2002 
2002 2002 2002 2002 2002 2002 2002 2002 2002 
2002 2002 2002 2002 2002 2002 2002 2002 2002 
2002 2002 2002 2002 2002 2002 2002 2002 2002 
2002 2002 2002 2002 2002 2002 2002 2002 2002 
2002 2002 2002 2002 2002 2002 2002 2002 2002 
2002 2002 2002 2002 2002 2002 2002 2002 2002 
2002 2002 2002 2002 2002 2002 2002 2002 2002 
2002 2002 2002 2002 2002 2002 2002 2002 2002 
2002 2002 2002 2002 2002 2002 2002 2002 2002 
2002 2002 2002 2002 2002 2002 2002 2002 2002 
2002 2002 2002 2002 2002 2002 2002 2002 2002 
2002 2002 2002 2002 2002 2002 2002 2002 2002 
2002 2002 2002 2002 2002 2002 2002 2002 2002 
2002 2002 2002 2002 2002 2002 2002 2002 2002 
2002 2002 2002 2002 2002 2002 2002 2002 2002 