# vtk DataFile Version 4.2
vtk output
ASCII
DATASET POLYDATA
POINTS 10272 float
37.2929 -16.0596 -0.639347 37.24 -16.3471 -0.0756709 37.8756 -16.3795 -0.458309 
36.6073 -16.164 -0.790512 36.6214 -16.3904 -0.041798 35.9755 -16.7998 -0.414564 
38.1471 -16.1661 -1.27551 38.5378 -16.5656 -0.930525 38.7018 -16.7847 -1.52735 
37.4295 -16.082 -1.42128 36.7891 -16.4952 -1.6456 36.2051 -16.5956 -1.12984 
38.0799 -16.5444 -1.86828 37.4758 -16.4692 -1.87546 37.2012 -16.9029 0.351206 
37.0662 -17.7272 0.781065 37.7285 -17.6372 0.26105 36.0208 -16.9957 0.454497 
36.4514 -17.4445 0.895345 35.3938 -17.2849 0.560466 35.6301 -17.6168 1.00486 
34.9597 -17.7198 0.466449 38.2188 -16.9773 -0.221373 38.3412 -17.6119 -0.225995 
38.7453 -17.3452 -0.864179 35.4816 -17.5148 0.0122173 35.7118 -17.5351 -0.570776 
38.8025 -17.6372 -1.56157 36.0628 -16.915 -1.85813 35.7231 -17.5091 -1.1931 
38.2928 -17.4995 -1.94731 37.2802 -17.2894 -2.12209 36.438 -17.0555 -2.34257 
36.5536 -17.6065 -2.49616 35.4604 -17.3988 -2.03411 35.6539 -17.2177 -2.55275 
34.9835 -17.7444 -2.42459 35.958 -17.541 -2.80384 35.2908 -17.7017 -2.86462 
34.9692 -18.0326 1.35238 35.5288 -18.7661 1.85359 35.7629 -18.3166 1.48494 
34.1377 -18.0988 1.50998 34.5996 -18.624 2.04426 33.3735 -18.1729 1.32245 
33.5636 -18.4416 2.02044 32.5445 -18.2863 1.41126 32.6101 -18.437 1.93308 
31.9997 -18.5185 1.65363 37.3283 -18.0131 0.535154 36.9754 -18.5636 0.737958 
36.3985 -18.3098 1.17809 34.11 -18.0066 0.55012 33.5656 -18.3481 0.633512 
32.9571 -18.4669 0.914511 32.2061 -18.5399 1.16695 38.5151 -18.0506 -0.668637 
38.0126 -18.454 -0.443908 37.4307 -18.6691 0.151971 35.5399 -18.2393 -0.570707 
35.1317 -18.3074 -0.220289 34.5235 -18.1048 -0.479656 35.0644 -18.5446 -0.705925 
33.5273 -18.3983 0.0639063 33.6633 -18.2425 -0.621452 33 -18.8688 -0.45278 
38.3403 -18.6777 -1.08572 38.6689 -18.2376 -1.28043 35.3983 -18.468 -0.937718 
34.9571 -18.0604 -1.48968 34.1724 -18.1642 -1.29063 33.6686 -18.4142 -1.40499 
33.2142 -18.6889 -1.10331 38.2658 -18.4671 -1.83457 37.3571 -18.4963 -2.05187 
36.5567 -18.307 -2.24556 36.1053 -18.0801 -2.61751 35.9633 -18.7503 -2.44508 
34.271 -18.3519 -2.03228 34.7705 -18.2099 -2.68058 35.4981 -18.4853 -2.93588 
33.9881 -19.0553 2.52721 34.5305 -19.7653 2.83697 34.7708 -19.3143 2.47137 
32.9924 -18.9406 2.525 33.5752 -19.6512 3.04779 31.9666 -18.9385 2.32838 
32.5129 -19.4673 3.03431 31.2613 -19.2196 2.26021 31.5834 -19.4744 2.95326 
30.9437 -19.5547 2.58775 36.1654 -18.9405 1.61038 36.0252 -19.6104 1.86187 
36.6094 -19.4027 1.19814 35.3043 -19.2566 2.20853 31.5072 -18.987 1.33999 
30.8008 -19.5844 1.58942 37.0162 -19.3796 0.532913 33.0617 -18.7702 0.297404 
32.281 -18.8975 0.670804 31.5515 -19.2638 0.465825 31.0024 -19.6443 0.558485 
37.346 -19.7964 0.0102636 37.7134 -19.3715 -0.514962 35.3313 -18.7395 -0.547362 
32.1921 -19.3922 -0.0950049 32.578 -19.4404 -0.586702 31.3086 -19.7178 -0.0251296 
38.2089 -18.9717 -1.60881 37.8747 -19.6587 -1.48771 33.4255 -18.9164 -1.88754 
32.7635 -19.3589 -1.22717 37.3358 -19.5663 -2.08069 36.4432 -19.2902 -2.16794 
35.9925 -19.615 -2.75181 34.3634 -18.7775 -2.75768 33.5597 -19.2093 -2.79176 
32.8498 -19.5309 -2.19733 36.1575 -19.2143 -3.38751 36.3933 -19.5101 -3.28524 
36.5267 -19.4799 -3.57519 35.3693 -19.0489 -3.51974 34.4062 -19.1909 -3.49003 
33.8181 -19.5052 -3.44259 33.1298 -19.858 -2.99703 36.1517 -19.4004 -3.76198 
35.2578 -19.6003 -3.86782 34.3475 -19.7006 -3.84646 33.0139 -20.0626 3.52643 
33.5374 -20.7495 3.82959 33.77 -20.303 3.47165 32.0649 -19.9714 3.53237 
32.6317 -20.6462 4.04033 31.0355 -19.956 3.3402 31.6176 -20.4636 4.03397 
30.0569 -20.0779 3.34863 30.6249 -20.4535 4.01848 29.1995 -20.1164 3.48732 
29.6163 -20.4395 4.02387 28.3782 -20.1805 3.32856 28.4567 -20.5509 4.00962 
27.298 -20.2133 3.51264 27.3019 -20.5877 3.88577 26.522 -20.2478 3.5097 
26.3448 -20.5829 3.84674 25.8459 -20.5765 3.62662 35.406 -19.9633 2.41753 
35.0473 -20.5816 2.8563 35.6338 -20.6897 2.2882 34.288 -20.2429 3.20657 
30.3144 -19.8519 2.35481 29.3422 -20.0692 2.58471 28.6636 -20.3647 2.53654 
27.9856 -20.4441 2.8943 27.0413 -20.4362 3.03987 26.1775 -20.4936 3.22109 
36.411 -20.1593 1.34843 35.9764 -20.563 1.66475 30.3396 -20.053 1.36261 
29.6909 -20.2039 1.55826 28.9058 -20.4873 1.76653 36.3047 -20.7079 0.957104 
36.7911 -20.2234 0.652056 30.6078 -20.2411 0.658159 30.0229 -20.704 0.837441 
29.1687 -20.8074 1.10551 37.1969 -20.551 -0.017371 37.7096 -20.388 -0.769465 
32.1536 -19.8325 -0.884886 31.4431 -20.0655 -0.647287 30.8048 -20.3596 -0.224175 
37.9054 -20.5815 -1.56944 32.2962 -19.8684 -1.67017 31.6414 -20.2446 -1.58902 
30.8775 -20.5695 -1.15929 37.4105 -20.1957 -2.43367 37.6303 -20.7101 -2.24344 
37.0484 -20.4161 -2.55376 36.5792 -20.5627 -2.32389 35.9677 -20.6252 -2.57699 
32.3089 -20.055 -2.37496 31.7226 -20.4618 -2.35795 31.1257 -20.6364 -1.92314 
37.2994 -20.5952 -2.719 36.0684 -19.7463 -3.48027 35.6038 -20.5034 -3.08155 
35.2932 -20.1567 -3.65055 34.8934 -20.8605 -3.53945 33.7626 -20.1597 -3.59675 
33.1004 -20.5181 -3.32292 32.3574 -20.4674 -2.91445 34.3588 -20.4918 -3.86888 
32.0562 -21.0364 4.51985 32.233 -21.7873 4.81586 32.708 -21.364 4.46269 
31.1171 -20.9541 4.53456 31.3638 -21.5996 4.8876 30.1024 -20.9505 4.53574 
30.3496 -21.6062 4.89283 29.0781 -20.9566 4.51625 29.3104 -21.624 4.9012 
28.2225 -21.1275 4.45085 28.3718 -21.6219 4.81932 27.7069 -21.6496 4.5804 
34.3992 -20.9254 3.42368 34.0277 -21.6366 3.78617 34.6233 -21.6514 3.30472 
33.2508 -21.4697 4.17101 27.3238 -21.3694 4.20144 26.2619 -21.4503 4.02252 
25.192 -20.9832 3.17015 25.4816 -21.287 3.82669 24.7849 -21.8363 3.51944 
21.2995 -21.3277 3.47776 21.1232 -21.6684 3.70316 21.6801 -21.6188 3.64558 
20.8807 -21.5849 3.52929 35.4436 -21.1444 2.34898 35.003 -21.5323 2.66129 
28.3206 -20.7242 2.18278 27.6023 -20.9774 2.26489 26.2834 -20.9435 2.48497 
25.0805 -20.9179 2.29596 24.3533 -21.5079 3.00184 24.3192 -21.1374 2.41159 
23.928 -21.6863 2.51214 21.4389 -21.6247 3.21968 20.3135 -21.4473 2.77451 
20.5219 -21.5497 2.45748 20.3036 -21.3597 2.51568 20.0742 -21.4924 2.64974 
35.341 -21.7142 1.92501 35.6841 -21.2868 1.70438 28.3506 -21.0066 1.53506 
27.9506 -21.4413 1.58525 27.38 -21.6713 1.95446 26.4105 -21.5286 1.83776 
25.8503 -21.4631 1.46349 25.4996 -21.1337 1.72666 24.5597 -21.1341 1.628 
23.7631 -21.6153 1.81379 20.1743 -21.5104 2.24794 36.5284 -20.9847 0.181001 
35.8508 -21.3601 0.776115 30.1588 -20.971 0.131003 29.8085 -21.3794 0.51544 
29.3733 -21.4567 0.861151 28.6166 -21.5062 1.1804 25.2478 -21.5713 1.05628 
24.1315 -21.4882 1.11599 37.2335 -21.0563 -0.529286 36.6073 -21.3039 -0.491318 
35.9018 -21.634 -0.409983 30.1482 -20.8898 -0.77525 29.4767 -21.455 0.157641 
29.2008 -21.1489 -0.547745 28.3083 -21.2554 -0.745565 28.6847 -21.5192 -0.0502302 
27.9877 -21.5571 -0.406614 37.0541 -21.7104 -1.04674 37.6584 -21.2251 -1.43967 
36.4582 -21.6508 -0.768381 30.313 -20.9012 -1.79788 29.2896 -21.0122 -1.53945 
28.3871 -21.1447 -1.49635 27.7484 -21.4669 -1.24394 37.2929 -21.3145 -2.12447 
37.1601 -20.839 -2.53674 36.2739 -21.0984 -2.45038 36.7659 -21.7995 -2.3101 
31.2235 -20.8517 -2.73655 30.2926 -20.9981 -2.56371 29.5523 -21.1075 -2.59152 
28.5825 -21.2039 -2.39504 27.8163 -21.4765 -2.20849 35.9496 -21.4586 -2.80136 
35.298 -21.3524 -3.16644 34.7844 -21.793 -3.52295 33.4457 -20.8141 -3.65857 
32.3339 -21.0237 -3.57266 31.3182 -21.0169 -3.56208 30.5006 -21.1528 -3.50447 
29.7088 -21.407 -3.42067 28.9478 -21.4673 -3.13788 28.1851 -21.5629 -2.91221 
34.1645 -21.5032 -3.88428 33.3337 -21.337 -3.92443 32.1505 -21.7408 -4.27911 
31.6078 -21.4833 -4.62466 31.426 -21.2429 -4.26163 30.9272 -21.403 -4.42374 
30.3262 -21.8131 -4.03369 31.3239 -21.4289 -4.72386 23.0874 -22.2354 5.19811 
23.2695 -22.7411 5.90518 23.7702 -22.44 5.1359 22.7429 -22.6189 5.62095 
32.2433 -22.7215 4.89675 32.8728 -22.1786 4.54309 31.3799 -22.4796 5.01642 
30.3634 -22.4817 5.02233 29.3049 -22.5347 5.04242 28.2978 -22.5001 5.03118 
27.1128 -22.109 4.44793 27.5354 -22.3313 4.81158 26.8051 -22.8787 4.50677 
23.2172 -22.1424 4.48871 23.787 -22.4373 4.54823 22.5009 -22.3851 5.07596 
22.3519 -22.0484 4.35867 21.9163 -22.5296 4.63248 34.4132 -22.1036 3.34656 
34.006 -22.6049 3.44854 33.4697 -22.6027 4.04896 26.4323 -22.323 4.15453 
25.4594 -22.3493 3.85732 24.8394 -22.4808 3.52919 23.4736 -22.5572 3.96202 
22.8656 -22.4459 3.43242 22.4588 -21.9902 3.63634 21.3106 -22.342 4.05157 
20.2562 -21.7968 3.15671 20.363 -22.4046 3.8348 19.0506 -22.179 3.22676 
19.3459 -22.6427 3.78169 18.6515 -22.6956 3.60441 34.3232 -22.6801 2.91095 
34.6868 -22.2522 2.71503 24.4184 -22.4121 3.0159 23.8071 -22.2316 2.34538 
22.3622 -22.4173 2.94494 21.24 -21.9062 2.43909 21.9604 -22.6079 2.0915 
19.5859 -21.7915 2.40674 18.1966 -22.6811 3.14366 18.5877 -22.207 2.38164 
17.8603 -22.6403 2.57917 35.3562 -21.9808 1.18201 34.8984 -22.3766 1.7712 
28.1756 -21.9378 1.55175 28.7277 -22.4939 1.4924 27.9903 -22.6216 2.01216 
27.1383 -22.3118 1.84825 26.3314 -21.9655 1.45337 26.7757 -22.8327 1.49965 
23.5152 -22.5223 1.85402 23.3499 -21.9887 1.09007 23.0039 -22.7242 1.20264 
21.4031 -22.1813 1.6421 21.6838 -22.6988 1.42259 20.3739 -21.9346 1.56874 
19.2117 -22.0991 1.42059 18.7014 -22.5434 1.45725 18.1068 -22.5758 2.07569 
35.1546 -22.0195 0.170716 34.8042 -22.5454 0.781876 29.1469 -21.793 0.568261 
28.1523 -22.0138 0.472648 28.1139 -22.6176 1.08918 27.1322 -22.1649 0.244041 
27.4804 -22.5968 0.73883 26.0769 -22.367 0.967161 26.8258 -22.7066 0.420185 
25.2467 -22.0879 0.362612 25.7638 -22.7504 0.371384 24.1407 -21.8028 0.390491 
23.2061 -22.0491 0.245303 22.8572 -22.4346 0.581119 21.0708 -22.6159 1.10561 
20.1439 -22.636 0.785273 19.5489 -22.6658 0.400657 19.5782 -22.2854 0.636428 
19.1271 -22.5519 0.643436 17.3447 -22.1827 0.177516 17.4336 -22.5243 0.774272 
17.8713 -22.3158 0.359996 16.886 -22.723 0.660504 35.0821 -21.8818 -0.740543 
34.5042 -22.4761 0.0470488 34.2796 -22.1548 -0.699333 33.9085 -22.5794 -0.382909 
27.2589 -21.8355 -0.597989 26.2973 -22.5406 -0.0462773 26.2226 -22.1253 -0.611742 
[...]
CELL_DATA 20708
SCALARS scalars float
LOOKUP_TABLE default
2013 2013 2013 2013 2013 2013 2013 2013 2013 
2013 2013 2013 2013 2013 2013 2013 2013 2013 
2013 2013 2013 2013 2013 2013 2013 2013 2013 
2013 2013 2013 2013 2013 2013 2013 2013 2013 
2013 2013 2013 2013 2013 2013 2013 2013 2013 
2013 2013 2013 2013 2013 2013 2013 2013 2013 
2013 2013 2013 2013 2013 2013 2013 2013 2013 
2013 2013 2013 2013 2013 2013 2013 2013 2013 
2013 2013 2013 2013 2013 2013 2013 2013 2013 
2013 2013 2013 2013 2013 2013 2013 2013 2013 
2013 2013 2013 2013 2013 2013 2013 2013 2013 
2013 2013 2013 2013 2013 2013 2013 2013 2013 
2013 2013 2013 2013 2013 2013 2013 2013 2013 
2013 2013 2013 2013 2013 2013 2013 2013 2013 
2013 2013 2013 2013 2013 2013 2013 2013 2013 
2013 2013 2013 2013 2013 2013 2013 2013 2013 
2013 2013 2013 2013 2013 2013 2013 2013 2013 
2013 2013 2013 2013 2013 2013 2013 2013 2013 
2013 2013 2013 2013 2013 2013 2013 2013 2013 
2013 2013 2013 2013 2013 2013 2013 2013 2013 
2013 2013 2013 2013 2013 2013 2013 2013 2013 
2013 2013 2013 2013 2013 2013 2013 2013 2013 
2013 2013 2013 2013 2013 2013 2013 2013 2013 
2013 2013 2013 2013 2013 2013 2013 2013 2013 
2013 2013 2013 2013 2013 2013 2013 2013 2013 
2013 2013 2013 2013 2013 2013 2013 2013 2013 
2013 2013 2013 2013 2013 2013 2013 2013 2013 
2013 2013 2013 2013 2013 2013 2013 2013 2013 
2013 2013 2013 2013 2013 2013 2013 2013 2013 
2013 2013 2013 2013 2013 2013 2013 2013 2013 
2013 2013 2013 2013 2013 2013 2013 2013 2013 
2013 2013 2013 2013 2013 2013 2013 2013 2013 
2013 2013 2013 2013 2013 2013 2013 2013 2013 
2013 2013 2013 2013 2013 2013 2013 2013 2013 
2013 2013 2013 2013 2013 2013 2013 2013 2013 
2013 2013 2013 2013 2013 2013 2013 2013 2013 
2013 2013 2013 2013 2013 2013 2013 2013 2013 
2013 2013 2013 2013 2013 2013 2013 2013 2013 
2013 2013 2013 2013 2013 2013 2013 2013 2013 
2013 2013 2013 2013 2013 2013 2013 2013 2013 
2013 2013 2013 2013 2013 2013 2013 2013 2013 
2013 2013 2013 2013 2013 2013 2013 2013 2013 
2013 2013 2013 2013 2013 2013 2013 2013 2013 
2013 2013 2013 2013 2013 2013 2013 2013 2013 
2013 2013 2013 2013 2013 2013 2013 2013 2013 
2013 2013 2013 2013 2013 2013 2013 2013 2013 
2013 2013 2013 2013 2013 2013 2013 2013 2013 
2013 2013 2013 2013 2013 2013 2013 2013 2013 
2013 2013 2013 2013 2013 2013 2013 2013 2013 
2013 2013 2013 2013 2013 2013 2013 2013 2013 
2013 2013 2013 2013 2013 2013 2013 2013 2013 
2013 2013 2013 2013 2013 2013 2013 2013 2013 
2013 2013 2013 2013 2013 2013 2013 2013 2013 
2013 2013 2013 2013 2013 2013 2013 2013 2013 
2013 2013 2013 2013 2013 2013 2013 2013 2013 
2013 2013 2013 2013 2013 2013 2013 2013 2013 
2013 2013 2013 2013 2013 2013 2013 2013 2013 
2013 2013 2013 2013 2013 2013 2013 2013 2013 
2013 2013 2013 2013 2013 2013 2013 2013 2013 
2013 2013 2013 2013 2013 2013 2013 2013 2013 
2013 2013 2013 2013 2013 2013 2013 2013 2013 
2013 2013 2013 2013 2013 2013 2013 2013 2013 
2013 2013 2013 2013 2013 2013 2013 2013 2013 
2013 2013 2013 2013 2013 2013 2013 2013 2013 
2013 2013 2013 2013 2013 2013 2013 2013 2013 
2013 2013 2013 2013 2013 2013 2013 2013 2013 
2013 2013 2013 2013 2013 2013 2013 2013 2013 
2013 2013 2013 2013 2013 2013 2013 2013 2013 
2013 2013 2013 2013 2013 2013 2013 2013 2013 
2013 2013 2013 2013 2013 2013 2013 2013 2013 
2013 2013 2013 2013 2013 2013 2013 2013 2013 
2013 2013 2013 2013 2013 2013 2013 2013 2013 
2013 2013 2013 2013 2013 2013 2013 2013 2013 
2013 2013 2013 2013 2013 2013 2013 2013 2013 
2013 2013 2013 2013 2013 2013 2013 2013 2013 
2013 2013 2013 2013 2013 2013 2013 2013 2013 
2013 2013 2013 2013 2013 2013 2013 2013 2013 
2013 2013 2013 2013 2013 2013 2013 2013 2013 
2013 2013 2013 2013 2013 2013 2013 2013 2013 
2013 2013 2013 2013 2013 2013 2013 2013 2013 
2013 2013 2013 2013 2013 2013 2013 2013 2013 
2013 2013 2013 2013 2013 2013 2013 2013 2013 
2013 2013 2013 2013 2013 2013 2013 2013 2013 
2013 2013 2013 2013 2013 2013 2013 2013 2013 
2013 2013 2013 2013 2013 2013 2013 2013 2013 
2013 2013 2013 2013 2013 2013 2013 2013 2013 
2013 2013 2013 2013 2013 2013 2013 2013 2013 
2013 2013 2013 2013 2013 2013 2013 2013 2013 
2013 2013 2013 2013 2013 2013 2013 2013 2013 
2013 2013 2013 2013 2013 2013 2013 2013 2013 
2013 2013 2013 2013 2013 2013 2013 2013 2013 
2013 2013 2013 2013 2013 2013 2013 2013 2013 
2013 2013 2013 2013 2013 2013 2013 2013 2013 
2013 2013 2013 2013 2013 2013 2013 2013 2013 
2013 2013 2013 2013 2013 2013 2013 2013 2013 
2013 2013 2013 2013 2013 2013 2013 2013 2013 
2013 2013 2013 2013 2013 2013 2013 2013 2013 
2013 2013 2013 2013 2013 2013 2013 2013 2013 
2013 2013 2013 2013 2013 2013 2013 2013 2013 
2013 2013 2013 2013 2013 2013 2013 2013 2013 
2013 2013 2013 2013 2013 2013 2013 2013 2013 
2013 2013 2013 2013 2013 2013 2013 2013 2013 
2013 2013 2013 2013 2013 2013 2013 2013 2013 
2013 2013 2013 2013 2013 2013 2013 2013 2013 
2013 2013 2013 2013 2013 2013 2013 2013 2013 
2013 2013 2013 2013 2013 2013 2013 2013 2013 
2013 2013 2013 2013 2013 2013 2013 2013 2013 
2013 2013 2013 2013 2013 2013 2013 2013 2013 
2013 2013 2013 2013 2013 2013 2013 2013 2013 
2013 2013 2013 2013 2013 2013 2013 2013 2013 
2013 2013 2013 2013 2013 2013 2013 2013 2013 
2013 2013 2013 2013 2013 2013 2013 2013 2013 
2013 2013 2013 2013 2013 2013 2013 2013 2013 
2013 2013 2013 2013 2013 2013 2013 2013 2013 
2013 2013 2013 2013 2013 2013 2013 2013 2013 
2013 2013 2013 2013 2013 2013 2013 2013 2013 
2013 2013 2013 2013 2013 2013 2013 2013 2013 
2013 2013 2013 2013 2013 2013 2013 2013 2013 
2013 2013 2013 2013 2013 2013 2013 2013 2013 
2013 2013 2013 2013 2013 2013 2013 2013 2013 
2013 2013 2013 2013 2013 2013 2013 2013 2013 
2013 2013 2013 2013 2013 2013 2013 2013 2013 
2013 2013 2013 2013 2013 2013 2013 2013 2013 
2013 2013 2013 2013 2013 2013 2013 2013 2013 
2013 2013 2013 2013 2013 2013 2013 2013 2013 
2013 2013 2013 2013 2013 2013 2013 2013 2013 
2013 2013 2013 2013 2013 2013 2013 2013 2013 
2013 2013 2013 2013 2013 2013 2013 2013 2013 
2013 2013 2013 2013 2013 2013 2013 2013 2013 
2013 2013 2013 2013 2013 2013 2013 2013 2013 
2013 2013 2013 2013 2013 2013 2013 2013 2013 
2013 2013 2013 2013 2013 2013 2013 2013 2013 
2013 2013 2013 2013 2013 2013 2013 2013 2013 
2013 2013 2013 2013 2013 2013 2013 2013 2013 
2013 2013 2013 2013 2013 2013 2013 2013 2013 
2013 2013 2013 2013 2013 2013 2013 2013 2013 
2013 2013 2013 2013 2013 2013 2013 2013 2013 
2013 2013 2013 2013 2013 2013 2013 2013 2013 
2013 2013 2013 2013 2013 2013 2013 2013 2013 
2013 2013 2013 2013 2013 2013 2013 2013 2013 
2013 2013 2013 2013 2013 2013 2013 2013 2013 
2013 2013 2013 2013 2013 2013 2013 2013 2013 
2013 2013 2013 2013 2013 2013 2013 2013 2013 
2013 2013 2013 2013 2013 2013 2013 2013 2013 
2013 2013 2013 2013 2013 2013 2013 2013 2013 
2013 2013 2013 2013 2013 2013 2013 2013 2013 
2013 2013 2013 2013 2013 2013 2013 2013 2013 
2013 2013 2013 2013 2013 2013 2013 2013 2013 
2013 2013 2013 2013 2013 2013 2013 2013 2013 
2013 2013 2013 2013 2013 2013 2013 2013 2013 
2013 2013 2013 2013 2013 2013 2013 2013 2013 
2013 2013 2013 2013 2013 2013 2013 2013 2013 
2013 2013 2013 2013 2013 2013 2013 2013 2013 
2013 2013 2013 2013 2013 2013 2013 2013 2013 
2013 2013 2013 2013 2013 2013 2013 2013 2013 
2013 2013 2013 2013 2013 2013 2013 2013 2013 
2013 2013 2013 2013 2013 2013 2013 2013 2013 
2013 2013 2013 2013 2013 2013 2013 2013 2013 
2013 2013 2013 2013 2013 2013 2013 2013 2013 
2013 2013 2013 2013 2013 2013 2013 2013 2013 
2013 2013 2013 2013 2013 2013 2013 2013 2013 
2013 2013 2013 2013 2013 2013 2013 2013 2013 
2013 2013 2013 2013 2013 2013 2013 2013 2013 
2013 2013 2013 2013 2013 2013 2013 2013 2013 
2013 2013 2013 2013 2013 2013 2013 2013 2013 
2013 2013 2013 2013 2013 2013 2013 2013 2013 
2013 2013 2013 2013 2013 2013 2013 2013 2013 
2013 2013 2013 2013 2013 2013 2013 2013 2013 
2013 2013 2013 2013 2013 2013 2013 2013 2013 
2013 2013 2013 2013 2013 2013 2013 2013 2013 
2013 2013 2013 2013 2013 2013 2013 2013 2013 
2013 2013 2013 2013 2013 2013 2013 2013 2013 
2013 2013 2013 2013 2013 2013 2013 2013 2013 
2013 2013 2013 2013 2013 2013 2013 2013 2013 
2013 2013 2013 2013 2013 2013 2013 2013 2013 
2013 2013 2013 2013 2013 2013 2013 2013 2013 
2013 2013 2013 2013 2013 2013 2013 2013 2013 
2013 2013 2013 2013 2013 2013 2013 2013 2013 
2013 2013 2013 2013 2013 2013 2013 2013 2013 
2013 2013 2013 2013 2013 2013 2013 2013 2013 
2013 2013 2013 2013 2013 2013 2013 2013 2013 
2013 2013 2013 2013 2013 2013 2013 2013 2013 
2013 2013 2013 2013 2013 2013 2013 2013 2013 
2013 2013 2013 2013 2013 2013 2013 2013 2013 
2013 2013 2013 2013 2013 2013 2013 2013 2013 
2013 2013 2013 2013 2013 2013 2013 2013 2013 
2013 2013 2013 2013 2013 2013 2013 2013 2013 
2013 2013 2013 2013 2013 2013 2013 2013 2013 
2013 2013 2013 2013 2013 2013 2013 2013 2013 
2013 2013 2013 2013 2013 2013 2013 2013 2013 
2013 2013 2013 2013 2013 2013 2013 2013 2013 
2013 2013 2013 2013 2013 2013 2013 2013 2013 
2013 2013 2013 2013 2013 2013 2013 2013 2013 
2013 2013 2013 2013 2013 2013 2013 2013 2013 
2013 2013 2013 2013 2013 2013 2013 2013 2013 
2013 2013 2013 2013 2013 2013 2013 2013 2013 
2013 2013 2013 2013 2013 2013 2013 2013 2013 
2013 2013 2013 2013 2013 2013 2013 2013 2013 
2013 2013 2013 2013 2013 2013 2013 2013 2013 
2013 2013 2013 2013 2013 2013 2013 2013 2013 
2013 2013 2013 2013 2013 2013 2013 2013 2013 
2013 2013 2013 2013 2013 2013 2013 2013 2013 
2013 2013 2013 2013 2013 2013 2013 2013 2013 
2013 2013 2013 2013 2013 2013 2013 2013 2013 
2013 2013 2013 2013 2013 2013 2013 2013 2013 
2013 2013 2013 2013 2013 2013 2013 2013 2013 
2013 2013 2013 2013 2013 2013 2013 2013 2013 
2013 2013 2013 2013 2013 2013 2013 2013 2013 
2013 2013 2013 2013 2013 2013 2013 2013 2013 
2013 2013 2013 2013 2013 2013 2013 2013 2013 
2013 2013 2013 2013 2013 2013 2013 2013 2013 
2013 2013 2013 2013 2013 2013 2013 2013 2013 
2013 2013 2013 2013 2013 2013 2013 2013 2013 
2013 2013 2013 2013 2013 2013 2013 2013 2013 
2013 2013 2013 2013 2013 2013 2013 2013 2013 
2013 2013 2013 2013 2013 2013 2013 2013 2013 
2013 2013 2013 2013 2013 2013 2013 2013 2013 
2013 2013 2013 2013 2013 2013 2013 2013 2013 
2013 2013 2013 2013 2013 2013 2013 2013 2013 
2013 2013 2013 2013 2013 2013 2013 2013 2013 
2013 2013 2013 2013 2013 2013 2013 2013 2013 
2013 2013 2013 2013 2013 2013 2013 2013 2013 
2013 2013 2013 2013 2013 2013 2013 2013 2013 
2013 2013 2013 2013 2013 2013 2013 2013 2013 
2013 2013 2013 2013 2013 2013 2013 2013 2013 
2013 2013 2013 2013 2013 2013 2013 2013 2013 
2013 2013 2013 2013 2013 2013 2013 2013 2013 
2013 2013 2013 2013 2013 2013 2013 2013 2013 
2013 2013 2013 2013 2013 2013 2013 2013 2013 
2013 2013 2013 2013 2013 2013 2013 2013 2013 
2013 2013 2013 2013 2013 2013 2013 2013 2013 
2013 2013 2013 2013 2013 2013 2013 2013 2013 
2013 2013 2013 2013 2013 2013 2013 2013 2013 
2013 2013 2013 2013 2013 2013 2013 2013 2013 
2013 2013 2013 2013 2013 2013 2013 2013 2013 
2013 2013 2013 2013 2013 2013 2013 2013 2013 
2013 2013 2013 2013 2013 2013 2013 2013 2013 
2013 2013 2013 2013 2013 2013 2013 2013 2013 
2013 2013 2013 2013 2013 2013 2013 2013 2013 
2013 2013 2013 2013 2013 2013 2013 2013 2013 
2013 2013 2013 2013 2013 2013 2013 2013 2013 
2013 2013 2013 2013 2013 2013 2013 2013 2013 
2013 2013 2013 2013 2013 2013 2013 2013 2013 
2013 2013 2013 2013 2013 2013 2013 2013 2013 
2013 2013 2013 2013 2013 2013 2013 2013 2013 
2013 2013 2013 2013 2013 2013 2013 2013 2013 
2013 2013 2013 2013 2013 2013 2013 2013 2013 
2013 2013 2013 2013 2013 2013 2013 2013 2013 
2013 2013 2013 2013 2013 2013 2013 2013 2013 
2013 2013 2013 2013 2013 2013 2013 2013 2013 
2013 2013 2013 2013 2013 2013 2013 2013 2013 
2013 2013 2013 2013 2013 2013 2013 2013 2013 
2013 2013 2013 2013 2013 2013 2013 2013 2013 
2013 2013 2013 2013 2013 2013 2013 2013 2013 
2013 2013 2013 2013 2013 2013 2013 2013 2013 
2013 2013 2013 2013 2013 2013 2013 2013 2013 
2013 2013 2013 2013 2013 2013 2013 2013 2013 
2013 2013 2013 2013 2013 2013 2013 2013 2013 
2013 2013 2013 2013 2013 2013 2013 2013 2013 
2013 2013 2013 2013 2013 2013 2013 2013 2013 
2013 2013 2013 2013 2013 2013 2013 2013 2013 
2013 2013 2013 2013 2013 2013 2013 2013 2013 
2013 2013 2013 2013 2013 2013 2013 2013 2013 
2013 2013 2013 2013 2013 2013 2013 2013 2013 
2013 2013 2013 2013 2013 2013 2013 2013 2013 
2013 2013 2013 2013 2013 2013 2013 2013 2013 
2013 2013 2013 2013 2013 2013 2013 2013 2013 
2013 2013 2013 2013 2013 2013 2013 2013 2013 
2013 2013 2013 2013 2013 2013 2013 2013 2013 
2013 2013 2013 2013 2013 2013 2013 2013 2013 
2013 2013 2013 2013 2013 2013 2013 2013 2013 
2013 2013 2013 2013 2013 2013 2013 2013 2013 
2013 2013 2013 2013 2013 2013 2013 2013 2013 
2013 2013 2013 2013 2013 2013 2013 2013 2013 
2013 2013 2013 2013 2013 2013 2013 2013 2013 
2013 2013 2013 2013 2013 2013 2013 2013 2013 
2013 2013 2013 2013 2013 2013 2013 2013 2013 
2013 2013 2013 2013 2013 2013 2013 2013 2013 
2013 2013 2013 2013 2013 2013 2013 2013 2013 
2013 2013 2013 2013 2013 2013 2013 2013 2013 
2013 2013 2013 2013 2013 2013 2013 2013 2013 
2013 2013 2013 2013 2013 2013 2013 2013 2013 
2013 2013 2013 2013 2013 2013 2013 2013 2013 
2013 2013 2013 2013 2013 2013 2013 2013 2013 
2013 2013 2013 2013 2013 2013 2013 2013 2013 
2013 2013 2013 2013 2013 2013 2013 2013 2013 
2013 2013 2013 2013 2013 2013 2013 2013 2013 
2013 2013 2013 2013 2013 2013 2013 2013 2013 
2013 2013 2013 2013 2013 2013 2013 2013 2013 
2013 2013 2013 2013 2013 2013 2013 2013 2013 
2013 2013 2013 2013 2013 2013 2013 2013 2013 
2013 2013 2013 2013 2013 2013 2013 2013 2013 
2013 2013 2013 2013 2013 2013 2013 2013 2013 
2013 2013 2013 2013 2013 2013 2013 2013 2013 
2013 2013 2013 2013 2013 2013 2013 2013 2013 
2013 2013 2013 2013 2013 2013 2013 2013 2013 
2013 2013 2013 2013 2013 2013 2013 2013 2013 
2013 2013 2013 2013 2013 2013 2013 2013 2013 
2013 2013 2013 2013 2013 2013 2013 2013 2013 
2013 2013 2013 2013 2013 2013 2013 2013 2013 
2013 2013 2013 2013 2013 2013 2013 2013 2013 
2013 2013 2013 2013 2013 2013 2013 2013 2013 
2013 2013 2013 2013 2013 2013 2013 2013 2013 
2013 2013 2013 2013 2013 2013 2013 2013 2013 
2013 2013 2013 2013 2013 2013 2013 2013 2013 
2013 2013 2013 2013 2013 2013 2013 2013 2013 
2013 2013 2013 2013 2013 2013 2013 2013 2013 
2013 2013 2013 2013 2013 2013 2013 2013 2013 
2013 2013 2013 2013 2013 2013 2013 2013 2013 
2013 2013 2013 2013 2013 2013 2013 2013 2013 
2013 2013 2013 2013 2013 2013 2013 2013 2013 
2013 2013 2013 2013 2013 2013 2013 2013 2013 
2013 2013 2013 2013 2013 2013 2013 2013 2013 
2013 2013 2013 2013 2013 2013 2013 2013 2013 
2013 2013 2013 2013 2013 2013 2013 2013 2013 
2013 2013 2013 2013 2013 2013 2013 2013 2013 
2013 2013 2013 2013 2013 2013 2013 2013 2013 
2013 2013 2013 2013 2013 2013 2013 2013 2013 
2013 2013 2013 2013 2013 2013 2013 2013 2013 
2013 2013 2013 2013 2013 2013 2013 2013 2013 
2013 2013 2013 2013 2013 2013 2013 2013 2013 
2013 2013 2013 2013 2013 2013 2013 2013 2013 
2013 2013 2013 2013 2013 2013 2013 2013 2013 
2013 2013 2013 2013 2013 2013 2013 2013 2013 
2013 2013 2013 2013 2013 2013 2013 2013 2013 
2013 2013 2013 2013 2013 2013 2013 2013 2013 
2013 2013 2013 2013 2013 2013 2013 2013 2013 
2013 2013 2013 2013 2013 2013 2013 2013 2013 
2013 2013 2013 2013 2013 2013 2013 2013 2013 
2013 2013 2013 2013 2013 2013 2013 2013 2013 
2013 2013 2013 2013 2013 2013 2013 2013 2013 
2013 2013 2013 2013 2013 2013 2013 2013 2013 
2013 2013 2013 2013 2013 2013 2013 2013 2013 
2013 2013 2013 2013 2013 2013 2013 2013 2013 
2013 2013 2013 2013 2013 2013 2013 2013 2013 
2013 2013 2013 2013 2013 2013 2013 2013 2013 
2013 2013 2013 2013 2013 2013 2013 2013 2013 
2013 2013 2013 2013 2013 2013 2013 2013 2013 
2013 2013 2013 2013 2013 2013 2013 2013 2013 
2013 2013 2013 2013 2013 2013 2013 2013 2013 
2013 2013 2013 2013 2013 2013 2013 2013 2013 
2013 2013 2013 2013 2013 2013 2013 2013 2013 
2013 2013 2013 2013 2013 2013 2013 2013 2013 
2013 2013 2013 2013 2013 2013 2013 2013 2013 
2013 2013 2013 2013 2013 2013 2013 2013 2013 
2013 2013 2013 2013 2013 2013 2013 2013 2013 
2013 2013 2013 2013 2013 2013 2013 2013 2013 
2013 2013 2013 2013 2013 2013 2013 2013 2013 
2013 2013 2013 2013 2013 2013 2013 2013 2013 
2013 2013 2013 2013 2013 2013 2013 2013 2013 
2013 2013 2013 2013 2013 2013 2013 2013 2013 
2013 2013 2013 2013 2013 2013 2013 2013 2013 
2013 2013 2013 2013 2013 2013 2013 2013 2013 
2013 2013 2013 2013 2013 2013 2013 2013 2013 
2013 2013 2013 2013 2013 2013 2013 2013 2013 
2013 2013 2013 2013 2013 2013 2013 2013 2013 
2013 2013 2013 2013 2013 2013 2013 2013 2013 
2013 2013 2013 2013 2013 2013 2013 2013 2013 
2013 2013 2013 2013 2013 2013 2013 2013 2013 
2013 2013 2013 2013 2013 2013 2013 2013 2013 
2013 2013 2013 2013 2013 2013 2013 2013 2013 
2013 2013 2013 2013 2013 2013 2013 2013 2013 
2013 2013 2013 2013 2013 2013 2013 2013 2013 
2013 2013 2013 2013 2013 2013 2013 2013 2013 
2013 2013 2013 2013 2013 2013 2013 2013 2013 
2013 2013 2013 2013 2013 2013 2013 2013 2013 
2013 2013 2013 2013 2013 2013 2013 2013 2013 
2013 2013 2013 2013 2013 2013 2013 2013 2013 
2013 2013 2013 2013 2013 2013 2013 2013 2013 
2013 2013 2013 2013 2013 2013 2013 2013 2013 
2013 2013 2013 2013 2013 2013 2013 2013 2013 
2013 2013 2013 2013 2013 2013 2013 2013 2013 
2013 2013 2013 2013 2013 2013 2013 2013 2013 
2013 2013 2013 2013 2013 2013 2013 2013 2013 
2013 2013 2013 2013 2013 2013 2013 2013 2013 
2013 2013 2013 2013 2013 2013 2013 2013 2013 
2013 2013 2013 2013 2013 2013 2013 2013 2013 
2013 2013 2013 2013 2013 2013 2013 2013 2013 
2013 2013 2013 2013 2013 2013 2013 2013 2013 
2013 2013 2013 2013 2013 2013 2013 2013 2013 
2013 2013 2013 2013 2013 2013 2013 2013 2013 
2013 2013 2013 2013 2013 2013 2013 2013 2013 
2013 2013 2013 2013 2013 2013 2013 2013 2013 
2013 2013 2013 2013 2013 2013 2013 2013 2013 
2013 2013 2013 2013 2013 2013 2013 2013 2013 
2013 2013 2013 2013 2013 2013 2013 2013 2013 
2013 2013 2013 2013 2013 2013 2013 2013 2013 
2013 2013 2013 2013 2013 2013 2013 2013 2013 
2013 2013 2013 2013 2013 2013 2013 2013 2013 
2013 2013 2013 2013 2013 2013 2013 2013 2013 
2013 2013 2013 2013 2013 2013 2013 2013 2013 
2013 2013 2013 2013 2013 2013 2013 2013 2013 
2013 2013 2013 2013 2013 2013 2013 2013 2013 
2013 2013 2013 2013 2013 2013 2013 2013 2013 
2013 2013 2013 2013 2013 2013 2013 2013 2013 
2013 2013 2013 2013 2013 2013 2013 2013 2013 
2013 2013 2013 2013 2013 2013 2013 2013 2013 
2013 2013 2013 2013 2013 2013 2013 2013 2013 
2013 2013 2013 2013 2013 2013 2013 2013 2013 
2013 2013 2013 2013 2013 2013 2013 2013 2013 
2013 2013 2013 2013 2013 2013 2013 2013 2013 
2013 2013 2013 2013 2013 2013 2013 2013 2013 
2013 2013 2013 2013 2013 2013 2013 2013 2013 
2013 2013 2013 2013 2013 2013 2013 2013 2013 
2013 2013 2013 2013 2013 2013 2013 2013 2013 
2013 2013 2013 2013 2013 2013 2013 2013 2013 
2013 2013 2013 2013 2013 2013 2013 2013 2013 
2013 2013 2013 2013 2013 2013 2013 2013 2013 
2013 2013 2013 2013 2013 2013 2013 2013 2013 
2013 2013 2013 2013 2013 2013 2013 2013 2013 
2013 2013 2013 2013 2013 2013 2013 2013 2013 
2013 2013 2013 2013 2013 2013 2013 2013 2013 
2013 2013 2013 2013 2013 2013 2013 2013 2013 
2013 2013 2013 2013 2013 2013 2013 2013 2013 
2013 2013 2013 2013 2013 2013 2013 2013 2013 
2013 2013 2013 2013 2013 2013 2013 2013 2013 
2013 2013 2013 2013 2013 2013 2013 2013 2013 
2013 2013 2013 2013 2013 2013 2013 2013 2013 
2013 2013 2013 2013 2013 2013 2013 2013 2013 
2013 2013 2013 2013 2013 2013 2013 2013 2013 
2013 2013 2013 2013 2013 2013 2013 2013 2013 
2013 2013 2013 2013 2013 2013 2013 2013 2013 
2013 2013 2013 2013 2013 2013 2013 2013 2013 
2013 2013 2013 2013 2013 2013 2013 2013 2013 
2013 2013 2013 2013 2013 2013 2013 2013 2013 
2013 2013 2013 2013 2013 2013 2013 2013 2013 
2013 2013 2013 2013 2013 2013 2013 2013 2013 
2013 2013 2013 2013 2013 2013 2013 2013 2013 
2013 2013 2013 2013 2013 2013 2013 2013 2013 
2013 2013 2013 2013 2013 2013 2013 2013 2013 
2013 2013 2013 2013 2013 2013 2013 2013 2013 
2013 2013 2013 2013 2013 2013 2013 2013 2013 
2013 2013 2013 2013 2013 2013 2013 2013 2013 