# vtk DataFile Version 4.2
vtk output
ASCII
DATASET POLYDATA
POINTS 7514 float
-14.8428 3.80762 17.8802 -14.758 4.06317 17.6338 -14.6302 3.75876 17.7705 
-15.089 4.02759 17.639 -14.7999 3.31968 17.9143 -14.5096 3.21624 17.6098 
-15.1223 3.46747 17.7748 -14.6631 2.63056 17.6554 -14.7757 2.82521 17.849 
-15.1256 2.74215 17.6363 -14.2151 2.12056 17.8396 -14.2331 2.19387 17.5925 
-14.0752 1.95509 17.5851 -14.8704 2.41804 17.6529 -14.3701 2.12444 17.7798 
-14.2888 1.9776 17.7408 -15.3828 4.34828 17.2897 -15.2798 4.69623 16.9491 
-15.1412 4.55131 17.1161 -15.5858 4.54741 16.9756 -14.9388 4.30559 17.3081 
-14.498 3.90504 17.294 -15.4404 3.74676 17.4706 -15.6091 3.98315 17.0805 
-14.2408 3.41027 17.2613 -14.1554 3.65381 17.0093 -14.0317 3.36216 16.965 
-15.4393 3.12014 17.4611 -15.6039 3.38163 17.2079 -14.1344 3.0224 17.0871 
-14.4247 2.6758 17.3093 -15.4481 2.72831 17.3585 -15.6725 2.88567 17.051 
-14.1936 2.35921 17.1845 -13.9026 1.99603 17.0892 -14.6087 2.09256 17.4749 
-15.1322 2.1617 17.2865 -15.499 2.46484 17.146 -14.2807 1.65676 17.4317 
-14.0028 1.45258 17.045 -14.638 1.49274 17.2429 -15.0668 1.67379 17.098 
-16.0682 1.51091 17.1782 -16.0267 1.71742 17.0095 -15.8928 1.48867 17.1286 
-16.2241 1.59741 16.9734 -14.3846 1.23543 17.0887 -14.8416 1.28407 17.0281 
-15.4237 1.07056 17.1409 -15.192 0.792645 17.1128 -15.4612 0.770142 17.2361 
-16.0287 1.39446 16.9721 -15.5887 0.934918 17.0431 -13.7732 0.251825 17.3253 
-13.7151 0.513885 16.9853 -13.4583 0.190329 17.1544 -14.3183 0.177246 17.3277 
-14.0346 0.560559 17.1463 -14.4441 0.43732 17.0847 -15.3875 0.431104 17.2281 
-15.1995 0.350162 17.1358 -15.6283 0.367099 16.9909 -13.6506 -0.241626 17.3342 
-13.4528 -0.144846 17.0655 -14.1954 -0.315344 17.4683 -14.7516 0.0516541 17.1679 
-14.7575 -0.376172 17.3431 -15.4019 0.0474792 17.0167 -15.0833 -0.389072 17.0222 
-13.6866 -0.51666 17.0786 -13.9282 -0.843439 17.0436 -14.0786 -0.771378 17.3369 
-14.6371 -0.869247 17.3595 -15.0232 -0.817969 17.1536 -13.1015 -1.41647 17.2754 
-12.9643 -1.15946 17.0631 -12.8108 -1.36763 17.0297 -13.4593 -1.53102 17.2857 
-13.3932 -1.22272 17.1578 -14.3632 -1.19932 17.0262 -13.863 -1.54061 17.0004 
-14.8719 -1.12516 17.0188 -13.0545 -1.75415 17.0967 -13.62 -1.8061 17.0779 
-14.7917 4.46411 16.8936 -14.96 4.79874 16.611 -14.496 4.53543 16.5012 
-15.3764 4.86409 16.6082 -15.6544 4.52911 16.5501 -14.289 4.05577 16.7673 
-14.0757 4.15791 16.4551 -13.9131 3.68097 16.6107 -15.3876 4.16619 16.3347 
-15.4735 3.94835 16.7461 -15.2505 3.74714 16.5387 -13.8135 3.1965 16.6711 
-15.5122 3.37978 16.8159 -15.2682 3.44851 16.3834 -13.7526 2.77317 16.7326 
-13.5401 3.03259 16.4216 -13.4266 2.64816 16.4036 -14.0691 2.62267 16.9727 
-15.4901 3.18766 16.5362 -15.8438 2.91467 16.5119 -15.9541 2.49695 16.7487 
-16.1938 2.56821 16.4374 -13.7178 2.3179 16.772 -13.4152 2.07052 16.2876 
-15.5409 2.05342 16.92 -15.9289 2.03987 16.8017 -16.226 2.02244 16.6134 
-13.6316 1.85426 16.607 -13.7648 1.45146 16.5927 -15.527 1.37437 16.9291 
-16.2209 1.50668 16.6602 -14.1844 0.798825 16.8785 -13.8615 0.91203 16.5252 
-14.775 0.968445 16.9378 -15.9668 1.27353 16.618 -15.7134 0.842157 16.573 
-18.439 0.89837 16.6176 -18.3413 1.0638 16.5448 -18.2047 0.783069 16.4491 
-18.5779 1.07234 16.401 -13.557 0.123669 16.8395 -13.7826 0.353833 16.5527 
-14.9285 0.289069 16.9808 -15.6428 0.150641 16.535 -18.476 0.800171 16.3988 
-13.563 -0.240472 16.8651 -13.6995 -0.362512 16.6904 -15.3467 -0.372482 16.7747 
-15.5877 -0.215836 16.6677 -13.1744 -0.698199 16.3613 -12.8396 -1.04659 16.6871 
-13.1859 -0.882605 16.7927 -13.4697 -0.584463 16.5446 -13.7661 -0.99397 16.9046 
-15.1694 -0.825101 16.602 -15.4241 -0.522986 16.4138 -12.7081 -1.49118 16.6508 
-14.1678 -1.44743 16.8495 -14.466 -1.58833 16.4981 -14.7874 -1.26368 16.457 
-12.5764 -2.05909 16.7554 -12.4736 -1.83581 16.3282 -12.2029 -2.26452 16.3712 
-12.9801 -2.14935 16.943 -13.4225 -2.21917 16.8393 -13.9572 -2.13217 16.5456 
-14.2458 -1.83102 16.5432 -12.4542 -2.45462 16.602 -12.6515 -2.70685 16.5567 
-12.916 -2.51347 16.7244 -13.392 -2.77063 16.4294 -13.6967 -2.48716 16.4605 
-12.887 -2.96729 16.3809 -14.9033 5.03732 16.2178 -14.9074 5.33001 15.7122 
-14.509 5.03958 15.9366 -15.6329 5.11018 16.2035 -15.4674 5.38239 15.8457 
-16.0179 5.18183 16.029 -15.9405 5.33583 15.911 -16.2346 5.08861 15.7154 
-13.7276 4.52056 16.0704 -13.6584 4.68936 15.6942 -13.4396 4.36692 15.9108 
-14.1739 4.59478 16.2154 -14.0993 4.8338 15.8467 -15.9561 4.85941 16.0575 
-15.7114 4.49051 16.0792 -13.6748 4.07486 16.2156 -13.353 3.9128 15.8512 
-15.0793 3.84863 15.9968 -15.2899 4.22065 15.7475 -15.9062 3.9201 15.7729 
-16.0058 3.86594 16.0019 -16.021 4.03689 15.9509 -16.1921 3.9835 15.8086 
-17.1827 3.94136 16.0075 -17.2346 4.06819 15.733 -17.0878 3.89044 15.8255 
-17.466 3.87543 15.7913 -13.5679 3.48311 16.2644 -13.2717 3.20759 15.9428 
-15.2984 3.51236 15.791 -15.5338 3.19081 16.2119 -16.0467 3.76758 15.7747 
-15.5976 3.23179 15.8439 -17.183 3.82032 15.9184 -13.2259 2.51216 15.8787 
-15.7631 2.75089 15.9298 -16.0832 2.67997 16.2482 -18.5954 2.68081 16.1093 
-18.3483 2.9347 15.9088 -18.2048 2.73265 15.9644 -19.1545 2.59069 16.149 
-18.8312 2.89763 15.8777 -19.2144 2.74369 15.953 -13.3079 2.07858 15.8795 
-16.1027 2.27745 16.1878 -15.757 1.96185 15.8899 -18.3242 2.42265 15.8827 
-18.6502 2.12007 15.9602 -18.9966 2.20602 16.1713 -19.4698 2.42911 15.8801 
-19.595 2.09686 16.146 -19.8085 1.96201 15.7747 -13.5581 1.54585 16.2933 
-13.3854 1.54911 15.8948 -15.9801 1.5097 16.2633 -15.6337 1.43595 15.9245 
-17.8728 1.46004 16.1307 -17.7012 1.70801 15.778 -17.4406 1.43307 15.9815 
-18.3505 1.36829 16.2774 -18.2395 1.64355 15.8104 -18.9214 1.82433 15.8842 
-18.5857 1.37236 15.9548 -19.2575 1.3129 15.9369 -19.6674 1.54107 16.1603 
-19.9814 1.49745 15.8474 -13.6196 1.05751 16.1913 -13.3283 0.819113 15.8299 
-15.5522 1.00128 16.1039 -15.2362 0.834192 15.8016 -15.3669 1.23406 15.794 
-17.4151 1.00127 16.0987 -17.0899 1.17165 15.8897 -17.0258 0.82099 15.869 
-17.9599 1.04974 16.3513 -18.643 0.972748 15.9861 -19.7255 0.888684 16.1958 
-19.3722 0.776404 15.9071 -20.1861 1.1647 15.9922 -20.2117 0.867261 16.1521 
-20.4293 0.75358 15.7769 -13.629 0.462314 16.1709 -13.3353 0.114001 15.791 
-15.4504 0.424786 16.1862 -15.2124 0.261905 15.8001 -17.2892 0.552814 15.9543 
-17.4484 0.100378 15.9301 -17.8794 0.374377 16.1264 -18.3761 0.598425 16.0254 
-18.2122 0.302142 15.9149 -19.6836 0.303845 16.1369 -19.4806 0.385034 15.8427 
-20.157 0.276746 16.1845 -20.4816 0.382288 15.9346 -13.5298 -0.21741 16.1948 
-13.4072 -0.312305 15.8048 -15.4542 -0.156317 16.2337 -15.2202 -0.388879 15.9235 
-17.8301 -0.397046 16.1636 -17.427 -0.364114 15.975 -18.3045 0.0478729 15.9377 
-18.311 -0.333508 16.0836 -18.6135 -0.242542 15.8598 -19.7695 0.0180176 15.814 
-20.0578 -0.361496 15.8452 -20.0493 -0.210352 16.0813 -20.3598 -0.150677 15.8482 
-13.0024 -1.09186 16.244 -13.3111 -0.731671 15.8674 -15.019 -0.867581 15.9463 
-17.4219 -0.893564 16.1564 -17.1147 -0.652551 15.8943 -16.9295 -1.1118 15.9645 
-17.8258 -0.925012 16.2647 -18.2097 -0.949786 16.1473 -18.6719 -0.71109 15.9081 
-20.2178 -0.457892 15.9357 -12.8779 -1.48603 16.2222 -13.1591 -1.30622 15.8689 
-14.6223 -1.46168 15.9005 -14.7957 -1.13275 15.8418 -17.1904 -1.39477 16.1247 
-16.9193 -1.47548 15.9771 -17.7103 -1.38166 16.1577 -18.1719 -1.43544 15.9995 
-18.5266 -1.18 15.9004 -12.5499 -1.89558 15.8617 -12.1729 -2.191 15.9538 
-12.8687 -1.65588 16.0058 -14.2684 -2.13649 16.2217 -14.4479 -1.93542 15.9393 
-17.2304 -1.77892 15.7745 -17.9227 -1.71558 15.784 -12.3926 -2.6885 16.3279 
-12.1617 -2.62002 15.9114 -13.662 -2.73838 16.2244 -13.8752 -2.61436 16.0469 
-14.2118 -2.36426 15.8137 -12.5218 -3.03834 16.012 -12.9101 -3.3174 16.0836 
-12.7406 -3.36123 15.7107 -13.2438 -3.24992 16.0594 -13.6094 -2.99512 15.8382 
-13.0642 -3.48441 15.8027 -14.7249 5.36348 15.1977 -14.4676 5.1511 15.5177 
-15.3594 5.38292 15.3239 -15.9685 5.3383 15.5234 -16.2835 5.10353 15.2701 
-13.5927 4.7309 15.1954 -13.3603 4.41213 15.4661 -14.0048 4.94418 15.2666 
-16.0529 4.4044 15.6863 -16.5228 4.80481 15.275 -16.6156 4.53149 15.4194 
-16.771 4.49105 15.1168 -13.1711 3.86856 15.3872 -14.8138 3.98207 15.505 
-14.6689 3.9319 15.2374 -14.928 4.05439 15.2664 -15.4128 4.16575 15.3652 
-15.6941 4.00446 15.3918 -16.5395 4.20768 15.4302 -16.3132 3.85211 15.4718 
-17.0313 3.89214 15.4003 -17.1679 4.13591 15.2653 -18.0072 3.79283 15.5578 
-17.638 4.10455 15.3968 -18.0664 3.96167 15.3406 -13.0223 3.34796 15.5366 
-12.9366 3.64321 15.22 -12.8087 3.25226 15.2423 -14.8743 3.79188 15.4197 
-15.195 3.665 15.2645 -15.5991 3.23716 15.329 -15.978 3.73676 15.3286 
-17.2447 3.63029 15.5493 -17.7469 3.43875 15.5928 -17.4382 3.10627 15.2915 
-18.2733 3.64836 15.2404 -18.3654 3.2502 15.5923 -18.5534 3.20238 15.2469 
-12.9983 2.88512 15.5839 -12.7991 2.65873 15.1119 -15.4774 2.78612 15.5095 
-15.157 2.54403 15.3164 -15.2548 2.96505 15.1666 -17.9406 2.85657 15.6148 
-17.6006 2.63247 15.2087 -18.8179 2.79605 15.3776 -19.1457 2.70106 15.6867 
-13.0366 2.43185 15.4125 -13.1974 1.98558 15.4561 -15.4449 2.26967 15.6038 
-15.1017 1.9623 15.3204 -16.7567 1.9604 15.4544 -16.506 2.26097 15.2406 
-16.3315 1.91973 15.2147 -16.8716 2.18807 15.2598 -18.0284 2.37031 15.2219 
-18.3758 2.09858 15.6255 -18.2191 2.08905 15.3057 -19.2392 2.38853 15.4319 
-19.578 2.14991 15.5579 -19.3757 2.11265 15.2982 -13.1882 1.36027 15.4619 
-15.4047 1.67443 15.6391 -15.0939 1.32204 15.404 -16.6122 1.62115 15.5172 
-16.3849 1.41828 15.3214 -17.2802 1.90396 15.4352 -17.0936 1.56562 15.7058 
-17.8223 1.8756 15.3075 -18.5201 1.84719 15.4146 -18.4591 1.52012 15.629 
-18.2165 1.4601 15.1823 -18.8256 1.47988 15.5709 -18.6781 1.50291 15.0802 
-19.534 1.86234 15.2616 -19.8601 1.51544 15.349 -21.5595 1.5444 15.4805 
-21.3691 1.7163 15.3131 -21.2603 1.42352 15.3165 -21.8948 1.46487 15.4882 
-21.83 1.76449 15.3664 -22.2124 1.57909 15.1679 -13.0487 0.930707 15.525 
-12.9671 1.23359 15.2173 -12.83 0.854334 15.235 -15.0289 0.723523 15.3678 
[...]
CELL_DATA 15088
SCALARS scalars float
LOOKUP_TABLE default
1003 1003 1003 1003 1003 1003 1003 1003 1003 
1003 1003 1003 1003 1003 1003 1003 1003 1003 
1003 1003 1003 1003 1003 1003 1003 1003 1003 
1003 1003 1003 1003 1003 1003 1003 1003 1003 
1003 1003 1003 1003 1003 1003 1003 1003 1003 
1003 1003 1003 1003 1003 1003 1003 1003 1003 
1003 1003 1003 1003 1003 1003 1003 1003 1003 
1003 1003 1003 1003 1003 1003 1003 1003 1003 
1003 1003 1003 1003 1003 1003 1003 1003 1003 
1003 1003 1003 1003 1003 1003 1003 1003 1003 
1003 1003 1003 1003 1003 1003 1003 1003 1003 
1003 1003 1003 1003 1003 1003 1003 1003 1003 
1003 1003 1003 1003 1003 1003 1003 1003 1003 
1003 1003 1003 1003 1003 1003 1003 1003 1003 
1003 1003 1003 1003 1003 1003 1003 1003 1003 
1003 1003 1003 1003 1003 1003 1003 1003 1003 
1003 1003 1003 1003 1003 1003 1003 1003 1003 
1003 1003 1003 1003 1003 1003 1003 1003 1003 
1003 1003 1003 1003 1003 1003 1003 1003 1003 
1003 1003 1003 1003 1003 1003 1003 1003 1003 
1003 1003 1003 1003 1003 1003 1003 1003 1003 
1003 1003 1003 1003 1003 1003 1003 1003 1003 
1003 1003 1003 1003 1003 1003 1003 1003 1003 
1003 1003 1003 1003 1003 1003 1003 1003 1003 
1003 1003 1003 1003 1003 1003 1003 1003 1003 
1003 1003 1003 1003 1003 1003 1003 1003 1003 
1003 1003 1003 1003 1003 1003 1003 1003 1003 
1003 1003 1003 1003 1003 1003 1003 1003 1003 
1003 1003 1003 1003 1003 1003 1003 1003 1003 
1003 1003 1003 1003 1003 1003 1003 1003 1003 
1003 1003 1003 1003 1003 1003 1003 1003 1003 
1003 1003 1003 1003 1003 1003 1003 1003 1003 
1003 1003 1003 1003 1003 1003 1003 1003 1003 
1003 1003 1003 1003 1003 1003 1003 1003 1003 
1003 1003 1003 1003 1003 1003 1003 1003 1003 
1003 1003 1003 1003 1003 1003 1003 1003 1003 
1003 1003 1003 1003 1003 1003 1003 1003 1003 
1003 1003 1003 1003 1003 1003 1003 1003 1003 
1003 1003 1003 1003 1003 1003 1003 1003 1003 
1003 1003 1003 1003 1003 1003 1003 1003 1003 
1003 1003 1003 1003 1003 1003 1003 1003 1003 
1003 1003 1003 1003 1003 1003 1003 1003 1003 
1003 1003 1003 1003 1003 1003 1003 1003 1003 
1003 1003 1003 1003 1003 1003 1003 1003 1003 
1003 1003 1003 1003 1003 1003 1003 1003 1003 
1003 1003 1003 1003 1003 1003 1003 1003 1003 
1003 1003 1003 1003 1003 1003 1003 1003 1003 
1003 1003 1003 1003 1003 1003 1003 1003 1003 
1003 1003 1003 1003 1003 1003 1003 1003 1003 
1003 1003 1003 1003 1003 1003 1003 1003 1003 
1003 1003 1003 1003 1003 1003 1003 1003 1003 
1003 1003 1003 1003 1003 1003 1003 1003 1003 
1003 1003 1003 1003 1003 1003 1003 1003 1003 
1003 1003 1003 1003 1003 1003 1003 1003 1003 
1003 1003 1003 1003 1003 1003 1003 1003 1003 
1003 1003 1003 1003 1003 1003 1003 1003 1003 
1003 1003 1003 1003 1003 1003 1003 1003 1003 
1003 1003 1003 1003 1003 1003 1003 1003 1003 
1003 1003 1003 1003 1003 1003 1003 1003 1003 
1003 1003 1003 1003 1003 1003 1003 1003 1003 
1003 1003 1003 1003 1003 1003 1003 1003 1003 
1003 1003 1003 1003 1003 1003 1003 1003 1003 
1003 1003 1003 1003 1003 1003 1003 1003 1003 
1003 1003 1003 1003 1003 1003 1003 1003 1003 
1003 1003 1003 1003 1003 1003 1003 1003 1003 
1003 1003 1003 1003 1003 1003 1003 1003 1003 
1003 1003 1003 1003 1003 1003 1003 1003 1003 
1003 1003 1003 1003 1003 1003 1003 1003 1003 
1003 1003 1003 1003 1003 1003 1003 1003 1003 
1003 1003 1003 1003 1003 1003 1003 1003 1003 
1003 1003 1003 1003 1003 1003 1003 1003 1003 
1003 1003 1003 1003 1003 1003 1003 1003 1003 
1003 1003 1003 1003 1003 1003 1003 1003 1003 
1003 1003 1003 1003 1003 1003 1003 1003 1003 
1003 1003 1003 1003 1003 1003 1003 1003 1003 
1003 1003 1003 1003 1003 1003 1003 1003 1003 
1003 1003 1003 1003 1003 1003 1003 1003 1003 
1003 1003 1003 1003 1003 1003 1003 1003 1003 
1003 1003 1003 1003 1003 1003 1003 1003 1003 
1003 1003 1003 1003 1003 1003 1003 1003 1003 
1003 1003 1003 1003 1003 1003 1003 1003 1003 
1003 1003 1003 1003 1003 1003 1003 1003 1003 
1003 1003 1003 1003 1003 1003 1003 1003 1003 
1003 1003 1003 1003 1003 1003 1003 1003 1003 
1003 1003 1003 1003 1003 1003 1003 1003 1003 
1003 1003 1003 1003 1003 1003 1003 1003 1003 
1003 1003 1003 1003 1003 1003 1003 1003 1003 
1003 1003 1003 1003 1003 1003 1003 1003 1003 
1003 1003 1003 1003 1003 1003 1003 1003 1003 
1003 1003 1003 1003 1003 1003 1003 1003 1003 
1003 1003 1003 1003 1003 1003 1003 1003 1003 
1003 1003 1003 1003 1003 1003 1003 1003 1003 
1003 1003 1003 1003 1003 1003 1003 1003 1003 
1003 1003 1003 1003 1003 1003 1003 1003 1003 
1003 1003 1003 1003 1003 1003 1003 1003 1003 
1003 1003 1003 1003 1003 1003 1003 1003 1003 
1003 1003 1003 1003 1003 1003 1003 1003 1003 
1003 1003 1003 1003 1003 1003 1003 1003 1003 
1003 1003 1003 1003 1003 1003 1003 1003 1003 
1003 1003 1003 1003 1003 1003 1003 1003 1003 
1003 1003 1003 1003 1003 1003 1003 1003 1003 
1003 1003 1003 1003 1003 1003 1003 1003 1003 
1003 1003 1003 1003 1003 1003 1003 1003 1003 
1003 1003 1003 1003 1003 1003 1003 1003 1003 
1003 1003 1003 1003 1003 1003 1003 1003 1003 
1003 1003 1003 1003 1003 1003 1003 1003 1003 
1003 1003 1003 1003 1003 1003 1003 1003 1003 
1003 1003 1003 1003 1003 1003 1003 1003 1003 
1003 1003 1003 1003 1003 1003 1003 1003 1003 
1003 1003 1003 1003 1003 1003 1003 1003 1003 
1003 1003 1003 1003 1003 1003 1003 1003 1003 
1003 1003 1003 1003 1003 1003 1003 1003 1003 
1003 1003 1003 1003 1003 1003 1003 1003 1003 
1003 1003 1003 1003 1003 1003 1003 1003 1003 
1003 1003 1003 1003 1003 1003 1003 1003 1003 
1003 1003 1003 1003 1003 1003 1003 1003 1003 
1003 1003 1003 1003 1003 1003 1003 1003 1003 
1003 1003 1003 1003 1003 1003 1003 1003 1003 
1003 1003 1003 1003 1003 1003 1003 1003 1003 
1003 1003 1003 1003 1003 1003 1003 1003 1003 
1003 1003 1003 1003 1003 1003 1003 1003 1003 
1003 1003 1003 1003 1003 1003 1003 1003 1003 
1003 1003 1003 1003 1003 1003 1003 1003 1003 
1003 1003 1003 1003 1003 1003 1003 1003 1003 
1003 1003 1003 1003 1003 1003 1003 1003 1003 
1003 1003 1003 1003 1003 1003 1003 1003 1003 
1003 1003 1003 1003 1003 1003 1003 1003 1003 
1003 1003 1003 1003 1003 1003 1003 1003 1003 
1003 1003 1003 1003 1003 1003 1003 1003 1003 
1003 1003 1003 1003 1003 1003 1003 1003 1003 
1003 1003 1003 1003 1003 1003 1003 1003 1003 
1003 1003 1003 1003 1003 1003 1003 1003 1003 
1003 1003 1003 1003 1003 1003 1003 1003 1003 
1003 1003 1003 1003 1003 1003 1003 1003 1003 
1003 1003 1003 1003 1003 1003 1003 1003 1003 
1003 1003 1003 1003 1003 1003 1003 1003 1003 
1003 1003 1003 1003 1003 1003 1003 1003 1003 
1003 1003 1003 1003 1003 1003 1003 1003 1003 
1003 1003 1003 1003 1003 1003 1003 1003 1003 
1003 1003 1003 1003 1003 1003 1003 1003 1003 
1003 1003 1003 1003 1003 1003 1003 1003 1003 
1003 1003 1003 1003 1003 1003 1003 1003 1003 
1003 1003 1003 1003 1003 1003 1003 1003 1003 
1003 1003 1003 1003 1003 1003 1003 1003 1003 
1003 1003 1003 1003 1003 1003 1003 1003 1003 
1003 1003 1003 1003 1003 1003 1003 1003 1003 
1003 1003 1003 1003 1003 1003 1003 1003 1003 
1003 1003 1003 1003 1003 1003 1003 1003 1003 
1003 1003 1003 1003 1003 1003 1003 1003 1003 
1003 1003 1003 1003 1003 1003 1003 1003 1003 
1003 1003 1003 1003 1003 1003 1003 1003 1003 
1003 1003 1003 1003 1003 1003 1003 1003 1003 
1003 1003 1003 1003 1003 1003 1003 1003 1003 
1003 1003 1003 1003 1003 1003 1003 1003 1003 
1003 1003 1003 1003 1003 1003 1003 1003 1003 
1003 1003 1003 1003 1003 1003 1003 1003 1003 
1003 1003 1003 1003 1003 1003 1003 1003 1003 
1003 1003 1003 1003 1003 1003 1003 1003 1003 
1003 1003 1003 1003 1003 1003 1003 1003 1003 
1003 1003 1003 1003 1003 1003 1003 1003 1003 
1003 1003 1003 1003 1003 1003 1003 1003 1003 
1003 1003 1003 1003 1003 1003 1003 1003 1003 
1003 1003 1003 1003 1003 1003 1003 1003 1003 
1003 1003 1003 1003 1003 1003 1003 1003 1003 
1003 1003 1003 1003 1003 1003 1003 1003 1003 
1003 1003 1003 1003 1003 1003 1003 1003 1003 
1003 1003 1003 1003 1003 1003 1003 1003 1003 
1003 1003 1003 1003 1003 1003 1003 1003 1003 
1003 1003 1003 1003 1003 1003 1003 1003 1003 
1003 1003 1003 1003 1003 1003 1003 1003 1003 
1003 1003 1003 1003 1003 1003 1003 1003 1003 
1003 1003 1003 1003 1003 1003 1003 1003 1003 
1003 1003 1003 1003 1003 1003 1003 1003 1003 
1003 1003 1003 1003 1003 1003 1003 1003 1003 
1003 1003 1003 1003 1003 1003 1003 1003 1003 
1003 1003 1003 1003 1003 1003 1003 1003 1003 
1003 1003 1003 1003 1003 1003 1003 1003 1003 
1003 1003 1003 1003 1003 1003 1003 1003 1003 
1003 1003 1003 1003 1003 1003 1003 1003 1003 
1003 1003 1003 1003 1003 1003 1003 1003 1003 
1003 1003 1003 1003 1003 1003 1003 1003 1003 
1003 1003 1003 1003 1003 1003 1003 1003 1003 
1003 1003 1003 1003 1003 1003 1003 1003 1003 
1003 1003 1003 1003 1003 1003 1003 1003 1003 
1003 1003 1003 1003 1003 1003 1003 1003 1003 
1003 1003 1003 1003 1003 1003 1003 1003 1003 
1003 1003 1003 1003 1003 1003 1003 1003 1003 
1003 1003 1003 1003 1003 1003 1003 1003 1003 
1003 1003 1003 1003 1003 1003 1003 1003 1003 
1003 1003 1003 1003 1003 1003 1003 1003 1003 
1003 1003 1003 1003 1003 1003 1003 1003 1003 
1003 1003 1003 1003 1003 1003 1003 1003 1003 
1003 1003 1003 1003 1003 1003 1003 1003 1003 
1003 1003 1003 1003 1003 1003 1003 1003 1003 
1003 1003 1003 1003 1003 1003 1003 1003 1003 
1003 1003 1003 1003 1003 1003 1003 1003 1003 
1003 1003 1003 1003 1003 1003 1003 1003 1003 
1003 1003 1003 1003 1003 1003 1003 1003 1003 
1003 1003 1003 1003 1003 1003 1003 1003 1003 
1003 1003 1003 1003 1003 1003 1003 1003 1003 
1003 1003 1003 1003 1003 1003 1003 1003 1003 
1003 1003 1003 1003 1003 1003 1003 1003 1003 
1003 1003 1003 1003 1003 1003 1003 1003 1003 
1003 1003 1003 1003 1003 1003 1003 1003 1003 
1003 1003 1003 1003 1003 1003 1003 1003 1003 
1003 1003 1003 1003 1003 1003 1003 1003 1003 
1003 1003 1003 1003 1003 1003 1003 1003 1003 
1003 1003 1003 1003 1003 1003 1003 1003 1003 
1003 1003 1003 1003 1003 1003 1003 1003 1003 
1003 1003 1003 1003 1003 1003 1003 1003 1003 
1003 1003 1003 1003 1003 1003 1003 1003 1003 
1003 1003 1003 1003 1003 1003 1003 1003 1003 
1003 1003 1003 1003 1003 1003 1003 1003 1003 
1003 1003 1003 1003 1003 1003 1003 1003 1003 
1003 1003 1003 1003 1003 1003 1003 1003 1003 
1003 1003 1003 1003 1003 1003 1003 1003 1003 
1003 1003 1003 1003 1003 1003 1003 1003 1003 
1003 1003 1003 1003 1003 1003 1003 1003 1003 
1003 1003 1003 1003 1003 1003 1003 1003 1003 
1003 1003 1003 1003 1003 1003 1003 1003 1003 
1003 1003 1003 1003 1003 1003 1003 1003 1003 
1003 1003 1003 1003 1003 1003 1003 1003 1003 
1003 1003 1003 1003 1003 1003 1003 1003 1003 
1003 1003 1003 1003 1003 1003 1003 1003 1003 
1003 1003 1003 1003 1003 1003 1003 1003 1003 
1003 1003 1003 1003 1003 1003 1003 1003 1003 
1003 1003 1003 1003 1003 1003 1003 1003 1003 
1003 1003 1003 1003 1003 1003 1003 1003 1003 
1003 1003 1003 1003 1003 1003 1003 1003 1003 
1003 1003 1003 1003 1003 1003 1003 1003 1003 
1003 1003 1003 1003 1003 1003 1003 1003 1003 
1003 1003 1003 1003 1003 1003 1003 1003 1003 
1003 1003 1003 1003 1003 1003 1003 1003 1003 
1003 1003 1003 1003 1003 1003 1003 1003 1003 
1003 1003 1003 1003 1003 1003 1003 1003 1003 
1003 1003 1003 1003 1003 1003 1003 1003 1003 
1003 1003 1003 1003 1003 1003 1003 1003 1003 
1003 1003 1003 1003 1003 1003 1003 1003 1003 
1003 1003 1003 1003 1003 1003 1003 1003 1003 
1003 1003 1003 1003 1003 1003 1003 1003 1003 
1003 1003 1003 1003 1003 1003 1003 1003 1003 
1003 1003 1003 1003 1003 1003 1003 1003 1003 
1003 1003 1003 1003 1003 1003 1003 1003 1003 
1003 1003 1003 1003 1003 1003 1003 1003 1003 
1003 1003 1003 1003 1003 1003 1003 1003 1003 
1003 1003 1003 1003 1003 1003 1003 1003 1003 
1003 1003 1003 1003 1003 1003 1003 1003 1003 
1003 1003 1003 1003 1003 1003 1003 1003 1003 
1003 1003 1003 1003 1003 1003 1003 1003 1003 
1003 1003 1003 1003 1003 1003 1003 1003 1003 
1003 1003 1003 1003 1003 1003 1003 1003 1003 
1003 1003 1003 1003 1003 1003 1003 1003 1003 
1003 1003 1003 1003 1003 1003 1003 1003 1003 
1003 1003 1003 1003 1003 1003 1003 1003 1003 
1003 1003 1003 1003 1003 1003 1003 1003 1003 
1003 1003 1003 1003 1003 1003 1003 1003 1003 
1003 1003 1003 1003 1003 1003 1003 1003 1003 
1003 1003 1003 1003 1003 1003 1003 1003 1003 
1003 1003 1003 1003 1003 1003 1003 1003 1003 
1003 1003 1003 1003 1003 1003 1003 1003 1003 
1003 1003 1003 1003 1003 1003 1003 1003 1003 
1003 1003 1003 1003 1003 1003 1003 1003 1003 
1003 1003 1003 1003 1003 1003 1003 1003 1003 
1003 1003 1003 1003 1003 1003 1003 1003 1003 
1003 1003 1003 1003 1003 1003 1003 1003 1003 
1003 1003 1003 1003 1003 1003 1003 1003 1003 
1003 1003 1003 1003 1003 1003 1003 1003 1003 
1003 1003 1003 1003 1003 1003 1003 1003 1003 
1003 1003 1003 1003 1003 1003 1003 1003 1003 
1003 1003 1003 1003 1003 1003 1003 1003 1003 
1003 1003 1003 1003 1003 1003 1003 1003 1003 
1003 1003 1003 1003 1003 1003 1003 1003 1003 
1003 1003 1003 1003 1003 1003 1003 1003 1003 
1003 1003 1003 1003 1003 1003 1003 1003 1003 
1003 1003 1003 1003 1003 1003 1003 1003 1003 
1003 1003 1003 1003 1003 1003 1003 1003 1003 
1003 1003 1003 1003 1003 1003 1003 1003 1003 
1003 1003 1003 1003 1003 1003 1003 1003 1003 
1003 1003 1003 1003 1003 1003 1003 1003 1003 
1003 1003 1003 1003 1003 1003 1003 1003 1003 
1003 1003 1003 1003 1003 1003 1003 1003 1003 
1003 1003 1003 1003 1003 1003 1003 1003 1003 
1003 1003 1003 1003 1003 1003 1003 1003 1003 
1003 1003 1003 1003 1003 1003 1003 1003 1003 
1003 1003 1003 1003 1003 1003 1003 1003 1003 
1003 1003 1003 1003 1003 1003 1003 1003 1003 
1003 1003 1003 1003 1003 1003 1003 1003 1003 
1003 1003 1003 1003 1003 1003 1003 1003 1003 
1003 1003 1003 1003 1003 1003 1003 1003 1003 
1003 1003 1003 1003 1003 1003 1003 1003 1003 
1003 1003 1003 1003 1003 1003 1003 1003 1003 
1003 1003 1003 1003 1003 1003 1003 1003 1003 
1003 1003 1003 1003 1003 1003 1003 1003 1003 
1003 1003 1003 1003 1003 1003 1003 1003 1003 
1003 1003 1003 1003 1003 1003 1003 1003 1003 
1003 1003 1003 1003 1003 1003 1003 1003 1003 
1003 1003 1003 1003 1003 1003 1003 1003 1003 
1003 1003 1003 1003 1003 1003 1003 1003 1003 
1003 1003 1003 1003 1003 1003 1003 1003 1003 
1003 1003 1003 1003 1003 1003 1003 1003 1003 
1003 1003 1003 1003 1003 1003 1003 1003 1003 
1003 1003 1003 1003 1003 1003 1003 1003 1003 
1003 1003 1003 1003 1003 1003 1003 1003 1003 
1003 1003 1003 1003 1003 1003 1003 1003 1003 
1003 1003 1003 1003 1003 1003 1003 1003 1003 
1003 1003 1003 1003 1003 1003 1003 1003 1003 
1003 1003 1003 1003 1003 1003 1003 1003 1003 
1003 1003 1003 1003 1003 1003 1003 1003 1003 
1003 1003 1003 1003 1003 1003 1003 1003 1003 
1003 1003 1003 1003 1003 1003 1003 1003 1003 
1003 1003 1003 1003 1003 1003 1003 1003 1003 
1003 1003 1003 1003 1003 1003 1003 1003 1003 
1003 1003 1003 1003 1003 1003 1003 1003 1003 
1003 1003 1003 1003 1003 1003 1003 1003 1003 
1003 1003 1003 1003 1003 1003 1003 1003 1003 
1003 1003 1003 1003 1003 1003 1003 1003 1003 
1003 1003 1003 1003 1003 1003 1003 1003 1003 
1003 1003 1003 1003 1003 1003 1003 1003 1003 
1003 1003 1003 1003 1003 1003 1003 1003 1003 
1003 1003 1003 1003 1003 1003 1003 1003 1003 
1003 1003 1003 1003 1003 1003 1003 1003 1003 
1003 1003 1003 1003 1003 1003 1003 1003 1003 
1003 1003 1003 1003 1003 1003 1003 1003 1003 
1003 1003 1003 1003 1003 1003 1003 1003 1003 
1003 1003 1003 1003 1003 1003 1003 1003 1003 
1003 1003 1003 1003 1003 1003 1003 1003 1003 
1003 1003 1003 1003 1003 1003 1003 1003 1003 
1003 1003 1003 1003 1003 1003 1003 1003 1003 
1003 1003 1003 1003 1003 1003 1003 1003 1003 
1003 1003 1003 1003 1003 1003 1003 1003 1003 
1003 1003 1003 1003 1003 1003 1003 1003 1003 
1003 1003 1003 1003 1003 1003 1003 1003 1003 
1003 1003 1003 1003 1003 1003 1003 1003 1003 
1003 1003 1003 1003 1003 1003 1003 1003 1003 
1003 1003 1003 1003 1003 1003 1003 1003 1003 
1003 1003 1003 1003 1003 1003 1003 1003 1003 
1003 1003 1003 1003 1003 1003 1003 1003 1003 
1003 1003 1003 1003 1003 1003 1003 1003 1003 
1003 1003 1003 1003 1003 1003 1003 1003 1003 
1003 1003 1003 1003 1003 1003 1003 1003 1003 
1003 1003 1003 1003 1003 1003 1003 1003 1003 
1003 1003 1003 1003 1003 1003 1003 1003 1003 
1003 1003 1003 1003 1003 1003 1003 1003 1003 
1003 1003 1003 1003 1003 1003 1003 1003 1003 
1003 1003 1003 1003 1003 1003 1003 1003 1003 
1003 1003 1003 1003 1003 1003 1003 1003 1003 
1003 1003 1003 1003 1003 1003 1003 1003 1003 
1003 1003 1003 1003 1003 1003 1003 1003 1003 
1003 1003 1003 1003 1003 1003 1003 1003 1003 
1003 1003 1003 1003 1003 1003 1003 1003 1003 
1003 1003 1003 1003 1003 1003 1003 1003 1003 
1003 1003 1003 1003 1003 1003 1003 1003 1003 
1003 1003 1003 1003 1003 1003 1003 1003 1003 
1003 1003 1003 1003 1003 1003 1003 1003 1003 
1003 1003 1003 1003 1003 1003 1003 1003 1003 
1003 1003 1003 1003 1003 1003 1003 1003 1003 
1003 1003 1003 1003 1003 1003 1003 1003 1003 
1003 1003 1003 1003 1003 1003 1003 1003 1003 
1003 1003 1003 1003 1003 1003 1003 1003 1003 
1003 1003 1003 1003 1003 1003 1003 1003 1003 
1003 1003 1003 1003 1003 1003 1003 1003 1003 
1003 1003 1003 1003 1003 1003 1003 1003 1003 
1003 1003 1003 1003 1003 1003 1003 1003 1003 
1003 1003 1003 1003 1003 1003 1003 1003 1003 
1003 1003 1003 1003 1003 1003 1003 1003 1003 
1003 1003 1003 1003 1003 1003 1003 1003 1003 
1003 1003 1003 1003 1003 1003 1003 1003 1003 
1003 1003 1003 1003 1003 1003 1003 1003 1003 
1003 1003 1003 1003 1003 1003 1003 1003 1003 
1003 1003 1003 1003 1003 1003 1003 1003 1003 
1003 1003 1003 1003 1003 1003 1003 1003 1003 
1003 1003 1003 1003 1003 1003 1003 1003 1003 
1003 1003 1003 1003 1003 1003 1003 1003 1003 
1003 1003 1003 1003 1003 1003 1003 1003 1003 
1003 1003 1003 1003 1003 1003 1003 1003 1003 
1003 1003 1003 1003 1003 1003 1003 1003 1003 
1003 1003 1003 1003 1003 1003 1003 1003 1003 
1003 1003 1003 1003 1003 1003 1003 1003 1003 
1003 1003 1003 1003 1003 1003 1003 1003 1003 
1003 1003 1003 1003 1003 1003 1003 1003 1003 
1003 1003 1003 1003 1003 1003 1003 1003 1003 
1003 1003 1003 1003 1003 1003 1003 1003 1003 
1003 1003 1003 1003 1003 1003 1003 1003 1003 
1003 1003 1003 1003 1003 1003 1003 1003 1003 
1003 1003 1003 1003 1003 1003 1003 1003 1003 
1003 1003 1003 1003 1003 1003 1003 1003 1003 
1003 1003 1003 1003 1003 1003 1003 1003 1003 
1003 1003 1003 1003 1003 1003 1003 1003 1003 
1003 1003 1003 1003 1003 1003 1003 1003 1003 
1003 1003 1003 1003 1003 1003 1003 1003 1003 
1003 1003 1003 1003 1003 1003 1003 1003 1003 
1003 1003 1003 1003 1003 1003 1003 1003 1003 
1003 1003 1003 1003 1003 1003 1003 1003 1003 
1003 1003 1003 1003 1003 1003 1003 1003 1003 
1003 1003 1003 1003 1003 1003 1003 1003 1003 
1003 1003 1003 1003 1003 1003 1003 1003 1003 
1003 1003 1003 1003 1003 1003 1003 1003 1003 
1003 1003 1003 1003 1003 1003 1003 1003 1003 
1003 1003 1003 1003 1003 1003 1003 1003 1003 
1003 1003 1003 1003 1003 1003 1003 1003 1003 
1003 1003 1003 1003 1003 1003 1003 1003 1003 
1003 1003 1003 1003 1003 1003 1003 1003 1003 
1003 1003 1003 1003 1003 1003 1003 1003 1003 
1003 1003 1003 1003 1003 1003 1003 1003 1003 
1003 1003 1003 1003 1003 1003 1003 1003 1003 
1003 1003 1003 1003 1003 1003 1003 1003 1003 
1003 1003 1003 1003 1003 1003 1003 1003 1003 
1003 1003 1003 1003 1003 1003 1003 1003 1003 
1003 1003 1003 1003 1003 1003 1003 1003 1003 
1003 1003 1003 1003 1003 1003 1003 1003 1003 
1003 1003 1003 1003 1003 1003 1003 1003 1003 
1003 1003 1003 1003 1003 1003 1003 1003 1003 
1003 1003 1003 1003 1003 1003 1003 1003 1003 
1003 1003 1003 1003 1003 1003 1003 1003 1003 
1003 1003 1003 1003 1003 1003 1003 1003 1003 
1003 1003 1003 1003 1003 1003 1003 1003 1003 
1003 1003 1003 1003 1003 1003 1003 1003 1003 
1003 1003 1003 1003 1003 1003 1003 1003 1003 
1003 1003 1003 1003 1003 1003 1003 1003 1003 
1003 1003 1003 1003 1003 1003 1003 1003 1003 
1003 1003 1003 1003 1003 1003 1003 1003 1003 
1003 1003 1003 1003 1003 1003 1003 1003 1003 
1003 1003 1003 1003 1003 1003 1003 1003 1003 
1003 1003 1003 1003 1003 1003 1003 1003 1003 
1003 1003 1003 1003 1003 1003 1003 1003 1003 
1003 1003 1003 1003 1003 1003 1003 1003 1003 
1003 1003 1003 1003 1003 1003 1003 1003 1003 
1003 1003 1003 1003 1003 1003 1003 1003 1003 
1003 1003 1003 1003 1003 1003 1003 1003 1003 
1003 1003 1003 1003 1003 1003 1003 1003 1003 
1003 1003 1003 1003 1003 1003 1003 1003 1003 
1003 1003 1003 1003 1003 1003 1003 1003 1003 
1003 1003 1003 1003 1003 1003 1003 1003 1003 