# vtk DataFile Version 4.2
vtk output
ASCII
DATASET POLYDATA
POINTS 17356 float
54.845 13.1447 28.7748 54.567 13.7387 28.431 54.1283 13.3359 28.5533 
55.1661 13.6237 28.4289 53.8966 12.4476 28.8553 53.516 12.9398 28.4159 
53.0756 12.3394 28.5312 54.8554 12.3222 29.0279 55.8089 13.0989 28.3539 
55.601 12.4143 28.8227 56.254 12.4435 28.3867 52.9987 11.532 28.8079 
52.4852 11.8886 28.3916 52.1963 11.1355 28.4615 53.8456 11.357 29.0221 
54.6854 11.4765 29.0402 55.5639 11.4972 28.9155 56.2469 11.6996 28.532 
52.8011 10.4471 28.8593 52.1479 10.1814 28.4617 53.6952 10.4671 29.0441 
54.6937 10.4273 29.0499 55.5829 10.46 28.9003 56.252 10.6935 28.5428 
52.7975 9.51331 28.7806 52.335 9.35687 28.395 53.6503 9.46263 29.0253 
54.6815 9.41028 29.0538 55.6062 9.41599 28.8878 56.2714 9.64752 28.529 
52.8222 8.86062 28.5343 53.2603 8.27827 28.3955 53.4772 8.70103 28.7874 
54.4401 8.56347 28.8911 55.4053 8.5329 28.8013 56.2596 8.50424 28.3109 
54.0477 7.99116 28.4807 55.0007 7.89869 28.4901 55.7453 7.91539 28.3325 
53.8897 16.2535 27.8534 53.6204 16.8532 27.4617 53.0993 16.3646 27.5689 
54.7218 16.2584 27.7891 54.4187 16.9066 27.5334 55.0617 16.723 27.2573 
53.0354 15.5402 27.7955 52.5148 15.9304 27.4085 52.2558 15.1436 27.4578 
53.8913 15.3378 28.0115 54.8001 15.368 27.9245 55.3178 15.8037 27.3757 
52.7237 14.3648 27.8281 52.0521 14.3468 27.5141 53.5523 14.68 27.9913 
54.6604 14.3217 28.1236 55.5904 14.9968 27.6061 55.6023 14.3626 27.8249 
56.0566 14.6303 27.2195 51.9175 13.3818 27.7821 51.5494 13.8852 27.3846 
51.1413 13.2732 27.5065 52.7356 13.4885 27.9493 53.6331 13.6953 28.1346 
55.602 13.711 28.0929 56.2766 13.6969 27.4531 50.8968 12.3813 27.7963 
50.5092 12.8658 27.412 50.0709 12.3011 27.544 51.7142 12.4819 27.9463 
52.6191 12.6786 28.1123 56.7585 12.0971 27.9573 56.5927 12.8715 27.7787 
57.0536 12.636 27.2214 49.9959 11.4919 27.7934 49.4832 11.8879 27.4168 
49.1954 11.141 27.4951 50.8231 11.332 27.958 51.6936 11.7403 28.0782 
56.7572 11.145 28.0258 57.1114 11.7113 27.3388 49.7707 10.4562 27.8492 
49.115 10.2094 27.4989 50.6394 10.4829 27.9785 51.4854 10.7105 28.1161 
56.7446 10.1281 28.0278 57.0912 10.7065 27.3656 49.7735 9.53575 27.7829 
49.2947 9.38962 27.4265 50.6378 9.48097 27.9717 51.6338 9.56879 28.0955 
56.7429 9.13056 27.9974 57.0788 9.69025 27.3689 49.8253 8.88136 27.5567 
50.274 8.27917 27.4252 50.6275 8.57232 27.789 51.6635 8.47068 27.9629 
52.5727 8.48607 28.141 56.7484 8.47832 27.8733 57.0477 8.60405 27.2496 
50.8916 7.85988 27.5148 51.348 7.28989 27.3969 51.689 7.55906 27.7677 
52.6999 7.45021 27.9617 53.6821 7.47478 28.089 54.7663 7.27038 28.1093 
55.6205 7.29254 27.9794 56.2586 7.53604 27.7407 56.7372 7.90975 27.4847 
51.8875 6.85328 27.5507 51.9579 6.29177 27.5695 52.5908 6.38256 27.8775 
53.7617 6.41637 27.9988 54.7429 6.39546 27.9717 55.6044 6.43293 27.8165 
56.2684 6.68613 27.4685 51.9535 5.69937 27.7108 51.5314 5.87276 27.42 
51.4386 5.31567 27.4028 52.6939 5.32404 27.8611 53.7049 5.41504 28.0007 
54.5969 5.54049 27.9942 55.4262 5.36531 27.7984 56.2214 5.75411 27.4626 
52.0047 5.01399 27.5049 52.7363 4.76911 27.578 53.2723 4.25848 27.418 
53.4981 4.66963 27.7853 54.5579 4.6345 27.8153 55.3274 4.55349 27.5692 
55.9379 4.98581 27.443 54.0637 3.98249 27.4732 54.8477 4.05468 27.4406 
51.8617 17.2477 26.7946 51.6015 17.7843 26.4115 51.1176 17.2899 26.5317 
52.8697 17.5085 26.8226 52.451 17.9718 26.4665 53.8483 17.3936 27.0225 
53.4902 18.028 26.489 54.7501 17.3508 27.0351 54.4668 17.9511 26.5119 
55.1313 17.597 26.3627 51.0484 16.4938 26.7679 50.5634 16.8705 26.3784 
50.2951 16.1015 26.4318 51.7109 16.5236 26.9744 52.6403 16.7061 27.1395 
55.4601 16.6445 26.4247 50.7355 15.3417 26.8231 50.0696 15.3263 26.5009 
51.7304 15.7824 27.0843 55.7082 15.8982 26.6694 55.8142 15.2895 27.1107 
56.0563 15.4752 26.3595 49.9366 14.3796 26.7819 49.5599 14.8609 26.375 
49.1534 14.2629 26.503 50.7266 14.4728 26.9455 51.4684 14.6405 27.1374 
56.3499 14.4564 26.3372 49.0556 13.4779 26.7675 48.5563 13.8355 26.3843 
48.2756 13.0945 26.4363 49.748 13.4818 26.9652 50.6458 13.6602 27.118 
56.6946 13.7826 26.5679 56.8388 13.2882 27.0708 57.0237 13.3087 26.3942 
48.7265 12.5973 26.7822 48.1796 12.1628 26.4567 49.6123 12.6833 27.124 
57.2197 12.4947 26.4262 48.7163 11.6198 26.965 48.0278 11.3428 26.5087 
57.3481 11.524 26.4358 48.0319 10.5706 26.7136 47.5387 10.8284 26.3584 
47.436 10.2498 26.3725 48.6468 10.6475 27.1454 57.3616 10.4375 26.6397 
47.8388 9.82543 26.5342 48.112 9.09267 26.4854 48.6158 9.59976 26.9775 
57.3622 9.42259 26.6271 48.8417 8.4859 26.7717 48.331 8.49074 26.4595 
49.5839 8.50958 27.1568 57.3534 8.42033 26.3659 48.6424 7.92652 26.3648 
49.2633 7.41044 26.4995 49.6857 7.55808 26.8137 50.6107 7.50201 27.153 
56.7542 7.07498 27.0355 57.0855 7.62675 26.6527 49.6446 6.93114 26.3774 
50.1766 6.10506 26.3414 50.5419 6.65865 26.8597 51.3826 6.56247 27.2261 
56.7752 6.16147 26.9518 57.1023 6.69216 26.3214 50.924 5.60175 27.006 
50.3563 5.28572 26.502 56.5969 5.13831 27.0106 57.1141 5.70001 26.3191 
50.679 4.73596 26.7529 50.3745 4.42617 26.1255 51.5287 4.5093 26.9961 
52.5916 4.29456 27.2063 55.7133 4.28001 27.1991 56.4891 4.21462 26.8318 
57.0723 4.6103 26.2825 51.0082 4.04638 26.4835 51.753 3.77944 26.5915 
51.9504 3.30843 26.5605 52.5037 3.39402 26.8838 53.6359 3.47101 27.1026 
54.8443 3.41645 27.1173 55.8434 3.42399 26.8722 56.3786 3.37472 26.45 
56.806 3.85251 26.3649 51.9484 2.7281 26.6865 51.4702 2.96224 26.2799 
51.4283 2.18843 26.2136 52.5122 2.49284 26.8104 53.3865 2.58414 26.83 
54.4319 2.57707 26.8458 55.38 2.56018 26.7638 56.0266 2.54644 26.3625 
52.0033 2.03365 26.4889 52.912 1.96151 26.4865 53.9769 1.95309 26.4713 
54.989 1.92151 26.467 55.7037 1.9405 26.3149 49.5963 20.2362 25.742 
49.6755 20.6653 25.5386 49.2979 20.2713 25.3339 49.8753 20.5028 25.5343 
48.8527 19.4541 25.874 48.6999 19.8305 25.3953 48.1896 19.4183 25.5974 
49.8693 19.3027 25.8582 50.1859 19.8646 25.4105 47.9443 18.5671 25.8366 
47.7735 19.01 25.1571 47.3266 18.3045 25.4791 48.7789 18.3072 26.0063 
49.6636 18.4531 25.9999 50.617 19.1245 25.5727 50.6764 18.5638 25.8663 
51.8042 18.3493 25.9782 51.4513 18.9298 25.4927 53.0177 18.5109 25.967 
52.6352 18.9804 25.3561 54.0547 18.5354 25.9679 53.7765 18.9123 25.3216 
54.794 18.3995 25.9698 54.5751 18.8117 25.4375 55.0943 18.4028 25.3801 
47.7367 17.4524 25.8512 47.2149 17.4965 25.3786 48.6447 17.4489 25.9815 
49.4926 17.6071 26.0001 50.6285 17.6581 26.1256 55.3759 17.3532 25.3165 
47.6543 16.3064 25.8625 47.0356 16.5576 25.3409 48.6684 16.4369 25.97 
49.7453 16.7221 26.0756 55.6987 16.7686 25.6327 55.822 16.3155 26.0659 
55.9315 16.1586 25.5385 46.9831 15.4567 25.835 46.5978 15.9225 25.1576 
46.3776 15.1998 25.522 47.8488 15.2503 25.9897 48.547 15.5637 25.976 
49.4961 15.6103 26.1254 56.0943 15.1665 25.3756 46.7685 14.4393 25.8946 
46.2615 14.4434 25.3968 47.5314 14.6045 26.0094 48.6325 14.6359 26.1218 
56.3969 14.4522 25.2952 46.6747 13.3418 25.8821 46.2826 13.4151 25.1982 
47.7024 13.7301 26.102 56.7185 13.949 25.7132 57.0845 13.3415 25.4369 
45.9874 12.4889 25.84 45.7174 12.7379 25.3802 45.3553 12.1242 25.4832 
46.8054 12.3067 25.9998 47.5536 12.6735 26.118 57.4022 12.5778 25.4074 
45.729 11.4554 25.9023 45.2491 11.313 25.5031 46.4895 11.6231 26.0128 
47.4233 11.5907 26.1527 57.6558 11.8634 25.6319 57.723 11.0949 25.9335 
58.0263 11.6538 25.2125 45.7625 10.5294 25.7839 45.4077 10.7474 25.1978 
46.763 10.5788 26.0861 53.8737 10.2063 25.7621 53.3285 10.3098 25.4268 
53.8006 10.6481 25.4724 54.0569 10.4687 25.3294 57.7425 10.1361 26.0284 
58.1064 10.7016 25.3556 45.8594 10.0815 25.3815 46.2497 9.38545 25.2919 
46.6215 9.54342 25.8122 47.3979 9.59229 26.1861 53.7348 9.61607 25.7566 
53.3205 9.25059 25.3823 54.0991 9.77975 25.4276 57.728 9.14586 26.0073 
58.1035 9.69405 25.3949 46.8462 8.81709 25.5521 47.1868 8.4002 25.5009 
47.6393 8.64476 25.9821 53.8443 9.20598 25.3568 57.6437 8.3458 25.8228 
58.0154 8.75437 25.3663 47.6795 7.92094 25.4867 48.7359 7.41285 26.0011 
48.1957 7.4354 25.477 57.3332 7.50617 25.7411 57.7226 7.98751 25.1585 
48.7203 6.95329 25.4991 49.5759 6.52441 25.9168 49.2079 6.48418 25.501 
57.2218 6.45456 25.4545 49.5495 6.08402 25.4507 50.0469 5.26835 25.5618 
57.2274 5.44863 25.4475 50.1876 4.46725 25.4625 57.2287 4.58134 25.3289 
50.8604 3.41492 25.9596 50.3513 3.48431 25.2426 51.4614 3.5259 26.323 
56.6761 3.26695 25.9458 57.0692 3.62176 25.4461 50.6934 2.95775 25.4602 
50.9784 2.43851 25.6329 56.4279 2.62099 25.7736 56.7852 2.82293 25.3513 
51.7783 1.35419 26.0652 51.1496 1.32857 25.5839 52.6481 1.32304 26.1409 
53.7069 1.31896 26.1164 54.756 1.30416 26.1194 55.6227 1.31555 25.9876 
56.2306 1.70661 25.6746 51.7684 0.506566 25.7754 51.2509 0.541484 25.4506 
52.6518 0.442843 25.9781 53.6966 0.438656 25.9988 54.729 0.445694 25.998 
55.5967 0.434481 25.8459 56.2525 0.543982 25.3796 51.5779 -0.0657188 25.3496 
52.2041 -0.573474 25.4727 52.4995 -0.28561 25.7502 53.6387 -0.555768 25.8784 
54.5946 -0.39149 26.0029 55.4436 -0.641384 25.8275 56.0613 -0.507871 25.3694 
51.6674 -1.54384 25.6169 51.6636 -1.29944 25.5603 51.324 -1.4967 25.3272 
52.906 -0.976924 25.4496 51.9256 -1.41171 25.4556 53.8704 -1.25302 25.5883 
54.2644 -1.59157 25.5029 54.6688 -1.25922 25.7837 55.399 -1.68308 25.3323 
55.8531 -1.21581 25.3605 51.7897 -1.81102 25.1585 54.6054 -1.98522 25.2395 
49.8746 20.3744 25.1532 48.4296 19.4997 25.0933 49.0318 19.6281 24.5539 
49.7307 20.0208 24.3064 50.4939 19.9508 24.6204 51.022 19.471 25.0647 
51.9869 19.4279 24.9756 51.5519 19.9665 24.2767 52.8173 19.4041 24.8013 
52.4828 19.7295 24.4845 53.1909 19.5079 24.1453 47.8511 18.8168 24.4398 
47.3118 18.4136 24.8101 48.4862 19.0773 24.4466 53.5665 19.1616 24.6437 
54.5444 18.8782 24.6204 55.0838 18.213 24.556 47.2204 17.5489 24.6183 
55.0997 17.3356 24.4653 46.9339 16.7029 24.4138 55.6385 16.5772 25.1347 
55.2099 16.3098 24.4143 46.5112 16.1841 24.3514 46.2164 15.4951 24.6093 
51.045 15.2649 24.7589 50.306 15.1785 24.5462 50.6037 15.7604 24.4499 
51.2382 15.5086 24.1591 55.6862 15.7671 24.8818 55.4152 15.432 24.2167 
[...]
CELL_DATA 34736
SCALARS scalars float
LOOKUP_TABLE default
1024 1024 1024 1024 1024 1024 1024 1024 1024 
1024 1024 1024 1024 1024 1024 1024 1024 1024 
1024 1024 1024 1024 1024 1024 1024 1024 1024 
1024 1024 1024 1024 1024 1024 1024 1024 1024 
1024 1024 1024 1024 1024 1024 1024 1024 1024 
1024 1024 1024 1024 1024 1024 1024 1024 1024 
1024 1024 1024 1024 1024 1024 1024 1024 1024 
1024 1024 1024 1024 1024 1024 1024 1024 1024 
1024 1024 1024 1024 1024 1024 1024 1024 1024 
1024 1024 1024 1024 1024 1024 1024 1024 1024 
1024 1024 1024 1024 1024 1024 1024 1024 1024 
1024 1024 1024 1024 1024 1024 1024 1024 1024 
1024 1024 1024 1024 1024 1024 1024 1024 1024 
1024 1024 1024 1024 1024 1024 1024 1024 1024 
1024 1024 1024 1024 1024 1024 1024 1024 1024 
1024 1024 1024 1024 1024 1024 1024 1024 1024 
1024 1024 1024 1024 1024 1024 1024 1024 1024 
1024 1024 1024 1024 1024 1024 1024 1024 1024 
1024 1024 1024 1024 1024 1024 1024 1024 1024 
1024 1024 1024 1024 1024 1024 1024 1024 1024 
1024 1024 1024 1024 1024 1024 1024 1024 1024 
1024 1024 1024 1024 1024 1024 1024 1024 1024 
1024 1024 1024 1024 1024 1024 1024 1024 1024 
1024 1024 1024 1024 1024 1024 1024 1024 1024 
1024 1024 1024 1024 1024 1024 1024 1024 1024 
1024 1024 1024 1024 1024 1024 1024 1024 1024 
1024 1024 1024 1024 1024 1024 1024 1024 1024 
1024 1024 1024 1024 1024 1024 1024 1024 1024 
1024 1024 1024 1024 1024 1024 1024 1024 1024 
1024 1024 1024 1024 1024 1024 1024 1024 1024 
1024 1024 1024 1024 1024 1024 1024 1024 1024 
1024 1024 1024 1024 1024 1024 1024 1024 1024 
1024 1024 1024 1024 1024 1024 1024 1024 1024 
1024 1024 1024 1024 1024 1024 1024 1024 1024 
1024 1024 1024 1024 1024 1024 1024 1024 1024 
1024 1024 1024 1024 1024 1024 1024 1024 1024 
1024 1024 1024 1024 1024 1024 1024 1024 1024 
1024 1024 1024 1024 1024 1024 1024 1024 1024 
1024 1024 1024 1024 1024 1024 1024 1024 1024 
1024 1024 1024 1024 1024 1024 1024 1024 1024 
1024 1024 1024 1024 1024 1024 1024 1024 1024 
1024 1024 1024 1024 1024 1024 1024 1024 1024 
1024 1024 1024 1024 1024 1024 1024 1024 1024 
1024 1024 1024 1024 1024 1024 1024 1024 1024 
1024 1024 1024 1024 1024 1024 1024 1024 1024 
1024 1024 1024 1024 1024 1024 1024 1024 1024 
1024 1024 1024 1024 1024 1024 1024 1024 1024 
1024 1024 1024 1024 1024 1024 1024 1024 1024 
1024 1024 1024 1024 1024 1024 1024 1024 1024 
1024 1024 1024 1024 1024 1024 1024 1024 1024 
1024 1024 1024 1024 1024 1024 1024 1024 1024 
1024 1024 1024 1024 1024 1024 1024 1024 1024 
1024 1024 1024 1024 1024 1024 1024 1024 1024 
1024 1024 1024 1024 1024 1024 1024 1024 1024 
1024 1024 1024 1024 1024 1024 1024 1024 1024 
1024 1024 1024 1024 1024 1024 1024 1024 1024 
1024 1024 1024 1024 1024 1024 1024 1024 1024 
1024 1024 1024 1024 1024 1024 1024 1024 1024 
1024 1024 1024 1024 1024 1024 1024 1024 1024 
1024 1024 1024 1024 1024 1024 1024 1024 1024 
1024 1024 1024 1024 1024 1024 1024 1024 1024 
1024 1024 1024 1024 1024 1024 1024 1024 1024 
1024 1024 1024 1024 1024 1024 1024 1024 1024 
1024 1024 1024 1024 1024 1024 1024 1024 1024 
1024 1024 1024 1024 1024 1024 1024 1024 1024 
1024 1024 1024 1024 1024 1024 1024 1024 1024 
1024 1024 1024 1024 1024 1024 1024 1024 1024 
1024 1024 1024 1024 1024 1024 1024 1024 1024 
1024 1024 1024 1024 1024 1024 1024 1024 1024 
1024 1024 1024 1024 1024 1024 1024 1024 1024 
1024 1024 1024 1024 1024 1024 1024 1024 1024 
1024 1024 1024 1024 1024 1024 1024 1024 1024 
1024 1024 1024 1024 1024 1024 1024 1024 1024 
1024 1024 1024 1024 1024 1024 1024 1024 1024 
1024 1024 1024 1024 1024 1024 1024 1024 1024 
1024 1024 1024 1024 1024 1024 1024 1024 1024 
1024 1024 1024 1024 1024 1024 1024 1024 1024 
1024 1024 1024 1024 1024 1024 1024 1024 1024 
1024 1024 1024 1024 1024 1024 1024 1024 1024 
1024 1024 1024 1024 1024 1024 1024 1024 1024 
1024 1024 1024 1024 1024 1024 1024 1024 1024 
1024 1024 1024 1024 1024 1024 1024 1024 1024 
1024 1024 1024 1024 1024 1024 1024 1024 1024 
1024 1024 1024 1024 1024 1024 1024 1024 1024 
1024 1024 1024 1024 1024 1024 1024 1024 1024 
1024 1024 1024 1024 1024 1024 1024 1024 1024 
1024 1024 1024 1024 1024 1024 1024 1024 1024 
1024 1024 1024 1024 1024 1024 1024 1024 1024 
1024 1024 1024 1024 1024 1024 1024 1024 1024 
1024 1024 1024 1024 1024 1024 1024 1024 1024 
1024 1024 1024 1024 1024 1024 1024 1024 1024 
1024 1024 1024 1024 1024 1024 1024 1024 1024 
1024 1024 1024 1024 1024 1024 1024 1024 1024 
1024 1024 1024 1024 1024 1024 1024 1024 1024 
1024 1024 1024 1024 1024 1024 1024 1024 1024 
1024 1024 1024 1024 1024 1024 1024 1024 1024 
1024 1024 1024 1024 1024 1024 1024 1024 1024 
1024 1024 1024 1024 1024 1024 1024 1024 1024 
1024 1024 1024 1024 1024 1024 1024 1024 1024 
1024 1024 1024 1024 1024 1024 1024 1024 1024 
1024 1024 1024 1024 1024 1024 1024 1024 1024 
1024 1024 1024 1024 1024 1024 1024 1024 1024 
1024 1024 1024 1024 1024 1024 1024 1024 1024 
1024 1024 1024 1024 1024 1024 1024 1024 1024 
1024 1024 1024 1024 1024 1024 1024 1024 1024 
1024 1024 1024 1024 1024 1024 1024 1024 1024 
1024 1024 1024 1024 1024 1024 1024 1024 1024 
1024 1024 1024 1024 1024 1024 1024 1024 1024 
1024 1024 1024 1024 1024 1024 1024 1024 1024 
1024 1024 1024 1024 1024 1024 1024 1024 1024 
1024 1024 1024 1024 1024 1024 1024 1024 1024 
1024 1024 1024 1024 1024 1024 1024 1024 1024 
1024 1024 1024 1024 1024 1024 1024 1024 1024 
1024 1024 1024 1024 1024 1024 1024 1024 1024 
1024 1024 1024 1024 1024 1024 1024 1024 1024 
1024 1024 1024 1024 1024 1024 1024 1024 1024 
1024 1024 1024 1024 1024 1024 1024 1024 1024 
1024 1024 1024 1024 1024 1024 1024 1024 1024 
1024 1024 1024 1024 1024 1024 1024 1024 1024 
1024 1024 1024 1024 1024 1024 1024 1024 1024 
1024 1024 1024 1024 1024 1024 1024 1024 1024 
1024 1024 1024 1024 1024 1024 1024 1024 1024 
1024 1024 1024 1024 1024 1024 1024 1024 1024 
1024 1024 1024 1024 1024 1024 1024 1024 1024 
1024 1024 1024 1024 1024 1024 1024 1024 1024 
1024 1024 1024 1024 1024 1024 1024 1024 1024 
1024 1024 1024 1024 1024 1024 1024 1024 1024 
1024 1024 1024 1024 1024 1024 1024 1024 1024 
1024 1024 1024 1024 1024 1024 1024 1024 1024 
1024 1024 1024 1024 1024 1024 1024 1024 1024 
1024 1024 1024 1024 1024 1024 1024 1024 1024 
1024 1024 1024 1024 1024 1024 1024 1024 1024 
1024 1024 1024 1024 1024 1024 1024 1024 1024 
1024 1024 1024 1024 1024 1024 1024 1024 1024 
1024 1024 1024 1024 1024 1024 1024 1024 1024 
1024 1024 1024 1024 1024 1024 1024 1024 1024 
1024 1024 1024 1024 1024 1024 1024 1024 1024 
1024 1024 1024 1024 1024 1024 1024 1024 1024 
1024 1024 1024 1024 1024 1024 1024 1024 1024 
1024 1024 1024 1024 1024 1024 1024 1024 1024 
1024 1024 1024 1024 1024 1024 1024 1024 1024 
1024 1024 1024 1024 1024 1024 1024 1024 1024 
1024 1024 1024 1024 1024 1024 1024 1024 1024 
1024 1024 1024 1024 1024 1024 1024 1024 1024 
1024 1024 1024 1024 1024 1024 1024 1024 1024 
1024 1024 1024 1024 1024 1024 1024 1024 1024 
1024 1024 1024 1024 1024 1024 1024 1024 1024 
1024 1024 1024 1024 1024 1024 1024 1024 1024 
1024 1024 1024 1024 1024 1024 1024 1024 1024 
1024 1024 1024 1024 1024 1024 1024 1024 1024 
1024 1024 1024 1024 1024 1024 1024 1024 1024 
1024 1024 1024 1024 1024 1024 1024 1024 1024 
1024 1024 1024 1024 1024 1024 1024 1024 1024 
1024 1024 1024 1024 1024 1024 1024 1024 1024 
1024 1024 1024 1024 1024 1024 1024 1024 1024 
1024 1024 1024 1024 1024 1024 1024 1024 1024 
1024 1024 1024 1024 1024 1024 1024 1024 1024 
1024 1024 1024 1024 1024 1024 1024 1024 1024 
1024 1024 1024 1024 1024 1024 1024 1024 1024 
1024 1024 1024 1024 1024 1024 1024 1024 1024 
1024 1024 1024 1024 1024 1024 1024 1024 1024 
1024 1024 1024 1024 1024 1024 1024 1024 1024 
1024 1024 1024 1024 1024 1024 1024 1024 1024 
1024 1024 1024 1024 1024 1024 1024 1024 1024 
1024 1024 1024 1024 1024 1024 1024 1024 1024 
1024 1024 1024 1024 1024 1024 1024 1024 1024 
1024 1024 1024 1024 1024 1024 1024 1024 1024 
1024 1024 1024 1024 1024 1024 1024 1024 1024 
1024 1024 1024 1024 1024 1024 1024 1024 1024 
1024 1024 1024 1024 1024 1024 1024 1024 1024 
1024 1024 1024 1024 1024 1024 1024 1024 1024 
1024 1024 1024 1024 1024 1024 1024 1024 1024 
1024 1024 1024 1024 1024 1024 1024 1024 1024 
1024 1024 1024 1024 1024 1024 1024 1024 1024 
1024 1024 1024 1024 1024 1024 1024 1024 1024 
1024 1024 1024 1024 1024 1024 1024 1024 1024 
1024 1024 1024 1024 1024 1024 1024 1024 1024 
1024 1024 1024 1024 1024 1024 1024 1024 1024 
1024 1024 1024 1024 1024 1024 1024 1024 1024 
1024 1024 1024 1024 1024 1024 1024 1024 1024 
1024 1024 1024 1024 1024 1024 1024 1024 1024 
1024 1024 1024 1024 1024 1024 1024 1024 1024 
1024 1024 1024 1024 1024 1024 1024 1024 1024 
1024 1024 1024 1024 1024 1024 1024 1024 1024 
1024 1024 1024 1024 1024 1024 1024 1024 1024 
1024 1024 1024 1024 1024 1024 1024 1024 1024 
1024 1024 1024 1024 1024 1024 1024 1024 1024 
1024 1024 1024 1024 1024 1024 1024 1024 1024 
1024 1024 1024 1024 1024 1024 1024 1024 1024 
1024 1024 1024 1024 1024 1024 1024 1024 1024 
1024 1024 1024 1024 1024 1024 1024 1024 1024 
1024 1024 1024 1024 1024 1024 1024 1024 1024 
1024 1024 1024 1024 1024 1024 1024 1024 1024 
1024 1024 1024 1024 1024 1024 1024 1024 1024 
1024 1024 1024 1024 1024 1024 1024 1024 1024 
1024 1024 1024 1024 1024 1024 1024 1024 1024 
1024 1024 1024 1024 1024 1024 1024 1024 1024 
1024 1024 1024 1024 1024 1024 1024 1024 1024 
1024 1024 1024 1024 1024 1024 1024 1024 1024 
1024 1024 1024 1024 1024 1024 1024 1024 1024 
1024 1024 1024 1024 1024 1024 1024 1024 1024 
1024 1024 1024 1024 1024 1024 1024 1024 1024 
1024 1024 1024 1024 1024 1024 1024 1024 1024 
1024 1024 1024 1024 1024 1024 1024 1024 1024 
1024 1024 1024 1024 1024 1024 1024 1024 1024 
1024 1024 1024 1024 1024 1024 1024 1024 1024 
1024 1024 1024 1024 1024 1024 1024 1024 1024 
1024 1024 1024 1024 1024 1024 1024 1024 1024 
1024 1024 1024 1024 1024 1024 1024 1024 1024 
1024 1024 1024 1024 1024 1024 1024 1024 1024 
1024 1024 1024 1024 1024 1024 1024 1024 1024 
1024 1024 1024 1024 1024 1024 1024 1024 1024 
1024 1024 1024 1024 1024 1024 1024 1024 1024 
1024 1024 1024 1024 1024 1024 1024 1024 1024 
1024 1024 1024 1024 1024 1024 1024 1024 1024 
1024 1024 1024 1024 1024 1024 1024 1024 1024 
1024 1024 1024 1024 1024 1024 1024 1024 1024 
1024 1024 1024 1024 1024 1024 1024 1024 1024 
1024 1024 1024 1024 1024 1024 1024 1024 1024 
1024 1024 1024 1024 1024 1024 1024 1024 1024 
1024 1024 1024 1024 1024 1024 1024 1024 1024 
1024 1024 1024 1024 1024 1024 1024 1024 1024 
1024 1024 1024 1024 1024 1024 1024 1024 1024 
1024 1024 1024 1024 1024 1024 1024 1024 1024 
1024 1024 1024 1024 1024 1024 1024 1024 1024 
1024 1024 1024 1024 1024 1024 1024 1024 1024 
1024 1024 1024 1024 1024 1024 1024 1024 1024 
1024 1024 1024 1024 1024 1024 1024 1024 1024 
1024 1024 1024 1024 1024 1024 1024 1024 1024 
1024 1024 1024 1024 1024 1024 1024 1024 1024 
1024 1024 1024 1024 1024 1024 1024 1024 1024 
1024 1024 1024 1024 1024 1024 1024 1024 1024 
1024 1024 1024 1024 1024 1024 1024 1024 1024 
1024 1024 1024 1024 1024 1024 1024 1024 1024 
1024 1024 1024 1024 1024 1024 1024 1024 1024 
1024 1024 1024 1024 1024 1024 1024 1024 1024 
1024 1024 1024 1024 1024 1024 1024 1024 1024 
1024 1024 1024 1024 1024 1024 1024 1024 1024 
1024 1024 1024 1024 1024 1024 1024 1024 1024 
1024 1024 1024 1024 1024 1024 1024 1024 1024 
1024 1024 1024 1024 1024 1024 1024 1024 1024 
1024 1024 1024 1024 1024 1024 1024 1024 1024 
1024 1024 1024 1024 1024 1024 1024 1024 1024 
1024 1024 1024 1024 1024 1024 1024 1024 1024 
1024 1024 1024 1024 1024 1024 1024 1024 1024 
1024 1024 1024 1024 1024 1024 1024 1024 1024 
1024 1024 1024 1024 1024 1024 1024 1024 1024 
1024 1024 1024 1024 1024 1024 1024 1024 1024 
1024 1024 1024 1024 1024 1024 1024 1024 1024 
1024 1024 1024 1024 1024 1024 1024 1024 1024 
1024 1024 1024 1024 1024 1024 1024 1024 1024 
1024 1024 1024 1024 1024 1024 1024 1024 1024 
1024 1024 1024 1024 1024 1024 1024 1024 1024 
1024 1024 1024 1024 1024 1024 1024 1024 1024 
1024 1024 1024 1024 1024 1024 1024 1024 1024 
1024 1024 1024 1024 1024 1024 1024 1024 1024 
1024 1024 1024 1024 1024 1024 1024 1024 1024 
1024 1024 1024 1024 1024 1024 1024 1024 1024 
1024 1024 1024 1024 1024 1024 1024 1024 1024 
1024 1024 1024 1024 1024 1024 1024 1024 1024 
1024 1024 1024 1024 1024 1024 1024 1024 1024 
1024 1024 1024 1024 1024 1024 1024 1024 1024 
1024 1024 1024 1024 1024 1024 1024 1024 1024 
1024 1024 1024 1024 1024 1024 1024 1024 1024 
1024 1024 1024 1024 1024 1024 1024 1024 1024 
1024 1024 1024 1024 1024 1024 1024 1024 1024 
1024 1024 1024 1024 1024 1024 1024 1024 1024 
1024 1024 1024 1024 1024 1024 1024 1024 1024 
1024 1024 1024 1024 1024 1024 1024 1024 1024 
1024 1024 1024 1024 1024 1024 1024 1024 1024 
1024 1024 1024 1024 1024 1024 1024 1024 1024 
1024 1024 1024 1024 1024 1024 1024 1024 1024 
1024 1024 1024 1024 1024 1024 1024 1024 1024 
1024 1024 1024 1024 1024 1024 1024 1024 1024 
1024 1024 1024 1024 1024 1024 1024 1024 1024 
1024 1024 1024 1024 1024 1024 1024 1024 1024 
1024 1024 1024 1024 1024 1024 1024 1024 1024 
1024 1024 1024 1024 1024 1024 1024 1024 1024 
1024 1024 1024 1024 1024 1024 1024 1024 1024 
1024 1024 1024 1024 1024 1024 1024 1024 1024 
1024 1024 1024 1024 1024 1024 1024 1024 1024 
1024 1024 1024 1024 1024 1024 1024 1024 1024 
1024 1024 1024 1024 1024 1024 1024 1024 1024 
1024 1024 1024 1024 1024 1024 1024 1024 1024 
1024 1024 1024 1024 1024 1024 1024 1024 1024 
1024 1024 1024 1024 1024 1024 1024 1024 1024 
1024 1024 1024 1024 1024 1024 1024 1024 1024 
1024 1024 1024 1024 1024 1024 1024 1024 1024 
1024 1024 1024 1024 1024 1024 1024 1024 1024 
1024 1024 1024 1024 1024 1024 1024 1024 1024 
1024 1024 1024 1024 1024 1024 1024 1024 1024 
1024 1024 1024 1024 1024 1024 1024 1024 1024 
1024 1024 1024 1024 1024 1024 1024 1024 1024 
1024 1024 1024 1024 1024 1024 1024 1024 1024 
1024 1024 1024 1024 1024 1024 1024 1024 1024 
1024 1024 1024 1024 1024 1024 1024 1024 1024 
1024 1024 1024 1024 1024 1024 1024 1024 1024 
1024 1024 1024 1024 1024 1024 1024 1024 1024 
1024 1024 1024 1024 1024 1024 1024 1024 1024 
1024 1024 1024 1024 1024 1024 1024 1024 1024 
1024 1024 1024 1024 1024 1024 1024 1024 1024 
1024 1024 1024 1024 1024 1024 1024 1024 1024 
1024 1024 1024 1024 1024 1024 1024 1024 1024 
1024 1024 1024 1024 1024 1024 1024 1024 1024 
1024 1024 1024 1024 1024 1024 1024 1024 1024 
1024 1024 1024 1024 1024 1024 1024 1024 1024 
1024 1024 1024 1024 1024 1024 1024 1024 1024 
1024 1024 1024 1024 1024 1024 1024 1024 1024 
1024 1024 1024 1024 1024 1024 1024 1024 1024 
1024 1024 1024 1024 1024 1024 1024 1024 1024 
1024 1024 1024 1024 1024 1024 1024 1024 1024 
1024 1024 1024 1024 1024 1024 1024 1024 1024 
1024 1024 1024 1024 1024 1024 1024 1024 1024 
1024 1024 1024 1024 1024 1024 1024 1024 1024 
1024 1024 1024 1024 1024 1024 1024 1024 1024 
1024 1024 1024 1024 1024 1024 1024 1024 1024 
1024 1024 1024 1024 1024 1024 1024 1024 1024 
1024 1024 1024 1024 1024 1024 1024 1024 1024 
1024 1024 1024 1024 1024 1024 1024 1024 1024 
1024 1024 1024 1024 1024 1024 1024 1024 1024 
1024 1024 1024 1024 1024 1024 1024 1024 1024 
1024 1024 1024 1024 1024 1024 1024 1024 1024 
1024 1024 1024 1024 1024 1024 1024 1024 1024 
1024 1024 1024 1024 1024 1024 1024 1024 1024 
1024 1024 1024 1024 1024 1024 1024 1024 1024 
1024 1024 1024 1024 1024 1024 1024 1024 1024 
1024 1024 1024 1024 1024 1024 1024 1024 1024 
1024 1024 1024 1024 1024 1024 1024 1024 1024 
1024 1024 1024 1024 1024 1024 1024 1024 1024 
1024 1024 1024 1024 1024 1024 1024 1024 1024 
1024 1024 1024 1024 1024 1024 1024 1024 1024 
1024 1024 1024 1024 1024 1024 1024 1024 1024 
1024 1024 1024 1024 1024 1024 1024 1024 1024 
1024 1024 1024 1024 1024 1024 1024 1024 1024 
1024 1024 1024 1024 1024 1024 1024 1024 1024 
1024 1024 1024 1024 1024 1024 1024 1024 1024 
1024 1024 1024 1024 1024 1024 1024 1024 1024 
1024 1024 1024 1024 1024 1024 1024 1024 1024 
1024 1024 1024 1024 1024 1024 1024 1024 1024 
1024 1024 1024 1024 1024 1024 1024 1024 1024 
1024 1024 1024 1024 1024 1024 1024 1024 1024 
1024 1024 1024 1024 1024 1024 1024 1024 1024 
1024 1024 1024 1024 1024 1024 1024 1024 1024 
1024 1024 1024 1024 1024 1024 1024 1024 1024 
1024 1024 1024 1024 1024 1024 1024 1024 1024 
1024 1024 1024 1024 1024 1024 1024 1024 1024 
1024 1024 1024 1024 1024 1024 1024 1024 1024 
1024 1024 1024 1024 1024 1024 1024 1024 1024 
1024 1024 1024 1024 1024 1024 1024 1024 1024 
1024 1024 1024 1024 1024 1024 1024 1024 1024 
1024 1024 1024 1024 1024 1024 1024 1024 1024 
1024 1024 1024 1024 1024 1024 1024 1024 1024 
1024 1024 1024 1024 1024 1024 1024 1024 1024 
1024 1024 1024 1024 1024 1024 1024 1024 1024 
1024 1024 1024 1024 1024 1024 1024 1024 1024 
1024 1024 1024 1024 1024 1024 1024 1024 1024 
1024 1024 1024 1024 1024 1024 1024 1024 1024 
1024 1024 1024 1024 1024 1024 1024 1024 1024 
1024 1024 1024 1024 1024 1024 1024 1024 1024 
1024 1024 1024 1024 1024 1024 1024 1024 1024 
1024 1024 1024 1024 1024 1024 1024 1024 1024 
1024 1024 1024 1024 1024 1024 1024 1024 1024 
1024 1024 1024 1024 1024 1024 1024 1024 1024 
1024 1024 1024 1024 1024 1024 1024 1024 1024 
1024 1024 1024 1024 1024 1024 1024 1024 1024 
1024 1024 1024 1024 1024 1024 1024 1024 1024 
1024 1024 1024 1024 1024 1024 1024 1024 1024 
1024 1024 1024 1024 1024 1024 1024 1024 1024 
1024 1024 1024 1024 1024 1024 1024 1024 1024 
1024 1024 1024 1024 1024 1024 1024 1024 1024 
1024 1024 1024 1024 1024 1024 1024 1024 1024 
1024 1024 1024 1024 1024 1024 1024 1024 1024 
1024 1024 1024 1024 1024 1024 1024 1024 1024 
1024 1024 1024 1024 1024 1024 1024 1024 1024 
1024 1024 1024 1024 1024 1024 1024 1024 1024 
1024 1024 1024 1024 1024 1024 1024 1024 1024 
1024 1024 1024 1024 1024 1024 1024 1024 1024 
1024 1024 1024 1024 1024 1024 1024 1024 1024 
1024 1024 1024 1024 1024 1024 1024 1024 1024 
1024 1024 1024 1024 1024 1024 1024 1024 1024 
1024 1024 1024 1024 1024 1024 1024 1024 1024 
1024 1024 1024 1024 1024 1024 1024 1024 1024 
1024 1024 1024 1024 1024 1024 1024 1024 1024 
1024 1024 1024 1024 1024 1024 1024 1024 1024 
1024 1024 1024 1024 1024 1024 1024 1024 1024 
1024 1024 1024 1024 1024 1024 1024 1024 1024 
1024 1024 1024 1024 1024 1024 1024 1024 1024 
1024 1024 1024 1024 1024 1024 1024 1024 1024 
1024 1024 1024 1024 1024 1024 1024 1024 1024 
1024 1024 1024 1024 1024 1024 1024 1024 1024 
1024 1024 1024 1024 1024 1024 1024 1024 1024 
1024 1024 1024 1024 1024 1024 1024 1024 1024 
1024 1024 1024 1024 1024 1024 1024 1024 1024 
1024 1024 1024 1024 1024 1024 1024 1024 1024 
1024 1024 1024 1024 1024 1024 1024 1024 1024 
1024 1024 1024 1024 1024 1024 1024 1024 1024 
1024 1024 1024 1024 1024 1024 1024 1024 1024 
1024 1024 1024 1024 1024 1024 1024 1024 1024 
1024 1024 1024 1024 1024 1024 1024 1024 1024 
1024 1024 1024 1024 1024 1024 1024 1024 1024 
1024 1024 1024 1024 1024 1024 1024 1024 1024 
1024 1024 1024 1024 1024 1024 1024 1024 1024 
1024 1024 1024 1024 1024 1024 1024 1024 1024 
1024 1024 1024 1024 1024 1024 1024 1024 1024 
1024 1024 1024 1024 1024 1024 1024 1024 1024 
1024 1024 1024 1024 1024 1024 1024 1024 1024 
1024 1024 1024 1024 1024 1024 1024 1024 1024 
1024 1024 1024 1024 1024 1024 1024 1024 1024 
1024 1024 1024 1024 1024 1024 1024 1024 1024 
1024 1024 1024 1024 1024 1024 1024 1024 1024 
1024 1024 1024 1024 1024 1024 1024 1024 1024 
1024 1024 1024 1024 1024 1024 1024 1024 1024 
1024 1024 1024 1024 1024 1024 1024 1024 1024 
1024 1024 1024 1024 1024 1024 1024 1024 1024 
1024 1024 1024 1024 1024 1024 1024 1024 1024 
1024 1024 1024 1024 1024 1024 1024 1024 1024 
1024 1024 1024 1024 1024 1024 1024 1024 1024 
1024 1024 1024 1024 1024 1024 1024 1024 1024 
1024 1024 1024 1024 1024 1024 1024 1024 1024 
1024 1024 1024 1024 1024 1024 1024 1024 1024 
1024 1024 1024 1024 1024 1024 1024 1024 1024 
1024 1024 1024 1024 1024 1024 1024 1024 1024 
1024 1024 1024 1024 1024 1024 1024 1024 1024 
1024 1024 1024 1024 1024 1024 1024 1024 1024 
1024 1024 1024 1024 1024 1024 1024 1024 1024 
1024 1024 1024 1024 1024 1024 1024 1024 1024 
1024 1024 1024 1024 1024 1024 1024 1024 1024 
1024 1024 1024 1024 1024 1024 1024 1024 1024 
1024 1024 1024 1024 1024 1024 1024 1024 1024 
1024 1024 1024 1024 1024 1024 1024 1024 1024 
1024 1024 1024 1024 1024 1024 1024 1024 1024 
1024 1024 1024 1024 1024 1024 1024 1024 1024 
1024 1024 1024 1024 1024 1024 1024 1024 1024 