# vtk DataFile Version 4.2
vtk output
ASCII
DATASET POLYDATA
POINTS 13362 float
-24.3538 -41.0514 9.41328 -24.3183 -40.957 9.21324 -24.2376 -41.218 9.20218 
-24.5775 -40.9432 9.24703 -24.4693 -41.2009 9.31649 -24.3295 -42.0359 9.26641 
-24.2073 -42.3534 9.27162 -24.4181 -42.4578 9.4693 -24.5843 -42.2476 9.30407 
-24.3582 -42.7871 9.47803 -24.2381 -42.8291 9.14026 -24.6789 -42.8509 9.2733 
-24.4092 -43.0384 9.3035 -24.9442 -40.6825 8.93263 -24.93 -40.3765 8.58417 
-24.7525 -40.4897 8.6715 -25.3227 -40.4604 8.64562 -24.4828 -40.7673 8.7086 
-24.1804 -41.083 8.8455 -24.955 -41.2322 9.11778 -25.6405 -41.0298 8.93803 
-25.6538 -40.7127 8.71788 -26.3978 -41.182 8.95045 -26.0518 -40.7809 8.72269 
-26.8584 -41.2312 8.89557 -26.6279 -40.8346 8.71977 -27.0464 -41.0443 8.68889 
-24.533 -41.6667 9.14042 -24.1455 -41.6588 8.83205 -25.1087 -41.7866 9.03676 
-25.6218 -41.6815 9.03373 -26.2392 -41.6852 9.04887 -26.7808 -41.6951 8.97539 
-27.156 -41.5419 8.75036 -24.1136 -42.3221 8.70095 -25.0159 -42.3547 9.10814 
-25.6314 -42.2887 9.02304 -26.1351 -42.1891 9.04823 -26.635 -42.3309 8.95707 
-27.143 -42.2396 8.6342 -24.1859 -42.7973 8.59384 -25.0899 -42.9066 9.09987 
-25.5536 -42.9772 8.96689 -26.2282 -42.829 8.96523 -26.6208 -42.9636 8.70624 
-26.8745 -42.657 8.64595 -24.4217 -43.2248 8.8004 -24.9822 -43.4782 8.94351 
-24.6032 -43.5946 8.76854 -25.3732 -43.4886 8.68537 -25.7384 -43.3447 8.77546 
-25.9974 -43.6166 8.69233 -26.0998 -43.3569 8.86821 -26.4411 -43.479 8.66448 
-22.7337 -44.251 8.877 -22.4722 -43.8777 8.62782 -22.4144 -44.2565 8.77024 
-22.8256 -43.9766 8.68402 -23.9512 -44.2643 8.93099 -23.7705 -43.9081 8.64797 
-23.448 -44.1975 8.78007 -24.5726 -44.0034 8.94186 -24.2511 -43.7699 8.69134 
-24.8833 -44.2165 8.89845 -25.1116 -43.9254 8.65688 -26.2817 -43.7782 8.6417 
-22.6554 -44.7307 8.97758 -22.3194 -44.7105 8.73723 -23.0829 -44.2341 8.78902 
-23.2833 -44.6523 8.99672 -23.9395 -44.858 9.07033 -24.4691 -44.6802 8.98876 
-24.7798 -44.6044 8.65082 -24.9689 -44.2631 8.60333 -22.5586 -45.1926 8.91255 
-22.3978 -45.1882 8.62738 -23.0209 -45.2781 8.97007 -23.6671 -45.3099 8.982 
-24.2431 -45.3023 8.94191 -24.5819 -45.1369 8.68665 -22.7786 -45.5175 8.69462 
-23.3635 -45.6219 8.6701 -23.93 -45.6158 8.72893 -24.2968 -45.5256 8.56765 
-26.2859 -39.41 8.32244 -26.226 -39.0108 8.13101 -25.8765 -39.2844 8.11272 
-26.9524 -39.3628 8.36226 -26.6438 -38.9561 8.15048 -27.421 -39.4207 8.30832 
-27.3543 -38.9713 8.02935 -27.7268 -39.2888 8.04555 -25.6604 -39.9395 8.33266 
-25.5543 -39.5977 8.10241 -25.3239 -39.7933 8.05491 -26.3027 -39.9777 8.4144 
-26.8167 -39.8904 8.42952 -27.3351 -39.873 8.3696 -27.7184 -39.7349 8.15342 
-25.0589 -40.1297 8.17972 -24.7114 -40.4268 8.18382 -25.7305 -40.4815 8.558 
-26.1941 -40.411 8.50114 -26.8462 -40.5211 8.49483 -27.3394 -40.4795 8.35539 
-27.7215 -40.3267 8.13962 -24.4531 -40.7274 8.00944 -24.097 -41.1096 8.14545 
-27.3788 -41.1618 8.43868 -27.7395 -40.9506 8.12714 -24.0117 -41.8731 8.17855 
-27.4452 -41.8631 8.44297 -27.7402 -41.6524 8.06754 -24.0356 -42.4876 8.15781 
-27.4406 -42.2651 8.37619 -27.6158 -42.2763 8.05174 -24.0613 -43.015 8.24074 
-26.7948 -43.011 8.37931 -27.1342 -42.9106 8.11621 -27.4314 -42.6089 8.11544 
-22.1906 -43.5508 8.31274 -22.1625 -43.2811 8.00826 -21.796 -43.3536 8.0236 
-22.7652 -43.5931 8.42049 -22.5166 -43.3063 8.13451 -23.3308 -43.5095 8.29253 
-23.0384 -43.2179 8.00062 -23.9283 -43.5157 8.41926 -23.6307 -43.1877 8.07647 
-24.3779 -43.5185 8.58653 -25.6401 -43.6603 8.50945 -26.6282 -43.5038 8.20498 
-26.8548 -43.2638 8.02012 -21.8305 -43.7219 8.03648 -22.1622 -44.111 8.36891 
-23.2797 -43.8867 8.55062 -25.1929 -43.8996 8.28851 -25.0241 -44.0833 8.40679 
-24.8935 -44.2608 8.27053 -25.316 -44.0712 8.09122 -25.5656 -43.9879 8.26152 
-26.0349 -44.018 8.37955 -26.4239 -43.9779 8.26577 -22.1261 -44.7205 8.34866 
-21.9788 -44.3329 8.05871 -21.8696 -44.6019 7.98483 -24.6417 -44.717 8.1362 
-25.6655 -44.3503 7.9462 -26.2286 -44.2877 7.97748 -22.0049 -45.0034 7.94935 
-22.4241 -45.104 8.20396 -22.6595 -45.3969 8.3802 -22.8845 -45.2278 8.00376 
-24.5025 -45.248 8.35341 -24.2244 -45.3102 8.1369 -24.4486 -45.0479 8.09509 
-23.0919 -45.5574 8.28018 -23.7432 -45.5736 8.26299 -26.9003 -38.2712 7.70546 
-26.7511 -37.9113 7.33087 -26.4828 -38.1622 7.57593 -27.1774 -38.0373 7.43853 
-26.2847 -38.6823 7.83815 -26.2286 -38.341 7.53387 -25.9183 -38.6688 7.5077 
-26.8932 -38.6588 7.95027 -27.4536 -38.3149 7.43059 -27.2844 -38.5791 7.79142 
-27.7192 -38.6776 7.51287 -25.5806 -39.2998 7.80441 -25.5083 -39.0485 7.47568 
-25.2325 -39.4068 7.55639 -28.0382 -39.4711 7.79507 -28.0388 -38.9884 7.5075 
-28.3477 -39.2956 7.43201 -25.106 -39.7609 7.76698 -24.8853 -39.618 7.39192 
-24.813 -40.0738 7.62687 -28.0306 -40.0427 7.83996 -28.3437 -39.7493 7.52488 
-23.9326 -40.6372 7.69624 -23.8483 -40.3326 7.31016 -23.6233 -40.6241 7.52668 
-24.1752 -40.425 7.41458 -24.601 -40.4274 7.54485 -28.0314 -40.6659 7.82848 
-28.3289 -40.4277 7.47027 -23.6815 -41.0849 7.78387 -23.3757 -41.0164 7.48609 
-24.3145 -40.6582 7.64907 -28.0217 -41.2638 7.81761 -28.2277 -41.0015 7.53338 
-23.3778 -41.652 7.69812 -23.1092 -41.3191 7.42109 -22.9954 -41.7494 7.41416 
-23.7935 -41.6036 7.89109 -27.989 -41.7582 7.72468 -28.2135 -41.5887 7.39133 
-23.2974 -42.3091 7.70771 -22.9836 -42.3183 7.40174 -23.7375 -42.164 7.86318 
-27.8347 -42.2758 7.58715 -28.0564 -42.0496 7.42565 -21.5012 -43.0402 7.73789 
-21.2183 -42.7051 7.39705 -21.0909 -43.0535 7.55241 -21.6571 -42.995 7.34472 
-23.2859 -42.8359 7.78087 -22.9534 -42.8236 7.44638 -23.7371 -42.7347 7.90855 
-27.4392 -42.9343 7.79825 -27.6326 -42.8482 7.54297 -21.423 -43.3992 7.81184 
-21.1267 -43.4223 7.54896 -22.0452 -43.2489 7.54329 -22.6041 -43.1368 7.58821 
-26.7784 -43.6153 7.75251 -27.08 -43.4122 7.63976 -27.4199 -43.2249 7.5089 
-21.3921 -43.7966 7.53268 -21.8918 -44.0508 7.89946 -21.6868 -44.3076 7.53182 
-24.9916 -44.2302 7.91796 -26.5305 -44.0369 7.68951 -26.9162 -43.7878 7.28313 
-21.653 -44.8346 7.57235 -23.2461 -44.8909 7.66491 -23.0488 -44.7884 7.36182 
-23.1991 -44.5973 7.51164 -23.352 -44.7031 7.42023 -24.3101 -44.8693 7.82218 
-24.1094 -44.7714 7.48231 -24.5092 -44.5035 7.509 -25.037 -44.4714 7.56053 
-25.5264 -44.6791 7.69753 -25.2592 -44.7671 7.44828 -25.8389 -44.6975 7.58393 
-26.1691 -44.4443 7.45439 -21.4967 -45.1911 7.73765 -21.3866 -45.1646 7.47352 
-21.2801 -45.3064 7.56979 -21.8276 -45.3468 7.74224 -22.2369 -45.2844 7.6326 
-22.6526 -45.0653 7.63859 -23.3433 -45.3236 7.94959 -23.7087 -44.8679 7.33778 
-23.8252 -45.1165 7.79302 -25.5978 -44.8948 7.34242 -21.5614 -45.4625 7.5134 
-22.1023 -45.5175 7.3649 -26.1983 -38.1656 7.29603 -26.1896 -37.8714 6.85135 
-25.889 -38.1536 6.97238 -26.6929 -37.6879 6.82675 -27.4212 -38.0673 7.24264 
-27.3384 -37.7679 6.92292 -27.7222 -38.0915 6.93163 -25.0503 -38.751 7.08428 
-25.002 -38.5204 6.75363 -24.6967 -38.866 6.82747 -25.6143 -38.6016 7.22163 
-25.4227 -38.3235 6.80988 -28.0305 -38.6905 7.19713 -27.9193 -38.4333 7.05312 
-28.259 -38.6484 6.94563 -24.6109 -39.2571 7.07369 -24.4315 -39.146 6.83314 
-24.3357 -39.2728 6.8898 -25.1216 -39.136 7.33587 -28.6355 -39.4861 7.174 
-28.5134 -39.0248 7.05752 -28.8081 -39.1536 6.75918 -24.4348 -39.4359 6.82712 
-24.5835 -39.9921 6.88807 -28.623 -40.0481 7.2119 -28.8511 -39.7371 6.83314 
-23.8293 -40.1722 6.81424 -23.4572 -40.5551 6.91221 -24.452 -40.3849 7.26239 
-24.2379 -40.283 6.97637 -28.5821 -40.5527 7.1222 -28.8132 -40.3888 6.774 
-23.171 -40.9576 7.17321 -23.1604 -40.885 6.9212 -23.0096 -41.2296 7.06677 
-28.4299 -41.0591 7.12529 -28.6627 -40.8582 6.83642 -22.9536 -41.7647 6.90228 
-25.1892 -41.8891 7.11671 -24.7448 -41.9307 6.95945 -24.9361 -41.5534 6.90352 
-25.3029 -41.6083 6.91653 -28.4014 -41.6971 6.85692 -22.9028 -42.3864 6.97761 
-25.0401 -42.235 7.11621 -24.7164 -42.3599 6.86743 -25.5602 -41.9671 7.01879 
-25.4679 -42.3118 7.09744 -25.8187 -42.1803 6.80476 -27.9886 -42.4081 7.17357 
-28.2057 -42.2245 6.94414 -20.847 -42.8355 7.23078 -20.9682 -42.6694 6.87074 
-20.6627 -42.9753 6.95157 -21.373 -42.6318 7.03911 -21.6051 -42.8845 6.85046 
-22.8046 -42.8292 6.92883 -25.1309 -42.5778 6.81045 -25.6601 -42.5356 6.78866 
-27.839 -42.8872 6.97556 -28.05 -42.6638 6.806 -20.8412 -43.3258 7.2263 
-20.6598 -43.3212 6.85677 -21.9583 -43.4591 7.17581 -21.8444 -43.3471 6.84847 
-22.2337 -43.4577 6.94645 -22.522 -43.1878 7.04323 -27.3238 -43.5608 7.23158 
-27.6089 -43.3631 7.01781 -20.9435 -43.7289 6.93639 -21.3162 -44.085 7.16168 
-21.0479 -44.072 6.73109 -22.0218 -43.6303 6.90897 -26.5247 -44.1164 7.05181 
-26.9133 -43.8827 6.72912 -27.3451 -43.6998 6.82859 -21.3787 -44.3319 6.86355 
-21.6297 -44.6419 6.92294 -23.2126 -44.643 7.34064 -24.1179 -44.6801 7.04459 
-24.5021 -44.5334 6.93853 -24.9019 -44.6732 7.17872 -24.7315 -44.7216 6.68998 
-25.9319 -44.7625 7.07119 -26.2213 -44.4374 6.74685 -21.4469 -45.3844 7.30771 
-21.6783 -45.2782 6.86937 -22.5118 -45.3538 7.27292 -22.8491 -45.1788 7.02911 
-23.3347 -44.9494 6.92246 -23.8053 -44.8783 6.80168 -25.1912 -44.9304 6.93554 
-25.6248 -44.9635 6.82243 -21.9856 -45.6565 6.90742 -22.5321 -45.5171 6.84914 
-27.0094 -37.4813 6.61779 -26.759 -37.2896 6.14404 -26.5444 -37.5113 6.4484 
-27.3737 -37.4801 6.60541 -27.3638 -37.3009 6.26544 -27.7141 -37.4872 6.33274 
-25.7275 -38.0219 6.65999 -25.5801 -37.8703 6.24898 -25.3709 -38.1003 6.42112 
-26.1178 -37.6653 6.30173 -28.2319 -38.1986 6.62541 -28.0239 -37.7887 6.39417 
-28.6377 -38.2165 6.44714 -28.5783 -37.8974 6.21839 -28.9166 -38.0808 6.19652 
-25.1063 -38.3139 6.45952 -24.7457 -38.6604 6.35975 -28.591 -38.6298 6.67284 
-28.9238 -38.6071 6.37236 -24.3693 -39.2845 6.74486 -24.5118 -39.3156 6.55438 
-29.003 -39.2789 6.40086 -23.9635 -39.9262 6.48792 -23.7787 -39.7484 6.16931 
-23.6032 -40.0458 6.41879 -24.1828 -39.5443 6.19964 -24.357 -39.9026 6.48045 
-29.0034 -39.8946 6.39904 -23.5769 -40.3439 6.18225 -24.0767 -40.3839 6.48549 
-24.4957 -40.6172 6.57001 -24.3835 -40.2551 6.1556 -24.762 -40.3805 6.28711 
-28.9968 -40.4861 6.25233 -23.3146 -41.1512 6.68113 -23.6489 -40.6938 6.42045 
[...]
CELL_DATA 26764
SCALARS scalars float
LOOKUP_TABLE default
1015 1015 1015 1015 1015 1015 1015 1015 1015 
1015 1015 1015 1015 1015 1015 1015 1015 1015 
1015 1015 1015 1015 1015 1015 1015 1015 1015 
1015 1015 1015 1015 1015 1015 1015 1015 1015 
1015 1015 1015 1015 1015 1015 1015 1015 1015 
1015 1015 1015 1015 1015 1015 1015 1015 1015 
1015 1015 1015 1015 1015 1015 1015 1015 1015 
1015 1015 1015 1015 1015 1015 1015 1015 1015 
1015 1015 1015 1015 1015 1015 1015 1015 1015 
1015 1015 1015 1015 1015 1015 1015 1015 1015 
1015 1015 1015 1015 1015 1015 1015 1015 1015 
1015 1015 1015 1015 1015 1015 1015 1015 1015 
1015 1015 1015 1015 1015 1015 1015 1015 1015 
1015 1015 1015 1015 1015 1015 1015 1015 1015 
1015 1015 1015 1015 1015 1015 1015 1015 1015 
1015 1015 1015 1015 1015 1015 1015 1015 1015 
1015 1015 1015 1015 1015 1015 1015 1015 1015 
1015 1015 1015 1015 1015 1015 1015 1015 1015 
1015 1015 1015 1015 1015 1015 1015 1015 1015 
1015 1015 1015 1015 1015 1015 1015 1015 1015 
1015 1015 1015 1015 1015 1015 1015 1015 1015 
1015 1015 1015 1015 1015 1015 1015 1015 1015 
1015 1015 1015 1015 1015 1015 1015 1015 1015 
1015 1015 1015 1015 1015 1015 1015 1015 1015 
1015 1015 1015 1015 1015 1015 1015 1015 1015 
1015 1015 1015 1015 1015 1015 1015 1015 1015 
1015 1015 1015 1015 1015 1015 1015 1015 1015 
1015 1015 1015 1015 1015 1015 1015 1015 1015 
1015 1015 1015 1015 1015 1015 1015 1015 1015 
1015 1015 1015 1015 1015 1015 1015 1015 1015 
1015 1015 1015 1015 1015 1015 1015 1015 1015 
1015 1015 1015 1015 1015 1015 1015 1015 1015 
1015 1015 1015 1015 1015 1015 1015 1015 1015 
1015 1015 1015 1015 1015 1015 1015 1015 1015 
1015 1015 1015 1015 1015 1015 1015 1015 1015 
1015 1015 1015 1015 1015 1015 1015 1015 1015 
1015 1015 1015 1015 1015 1015 1015 1015 1015 
1015 1015 1015 1015 1015 1015 1015 1015 1015 
1015 1015 1015 1015 1015 1015 1015 1015 1015 
1015 1015 1015 1015 1015 1015 1015 1015 1015 
1015 1015 1015 1015 1015 1015 1015 1015 1015 
1015 1015 1015 1015 1015 1015 1015 1015 1015 
1015 1015 1015 1015 1015 1015 1015 1015 1015 
1015 1015 1015 1015 1015 1015 1015 1015 1015 
1015 1015 1015 1015 1015 1015 1015 1015 1015 
1015 1015 1015 1015 1015 1015 1015 1015 1015 
1015 1015 1015 1015 1015 1015 1015 1015 1015 
1015 1015 1015 1015 1015 1015 1015 1015 1015 
1015 1015 1015 1015 1015 1015 1015 1015 1015 
1015 1015 1015 1015 1015 1015 1015 1015 1015 
1015 1015 1015 1015 1015 1015 1015 1015 1015 
1015 1015 1015 1015 1015 1015 1015 1015 1015 
1015 1015 1015 1015 1015 1015 1015 1015 1015 
1015 1015 1015 1015 1015 1015 1015 1015 1015 
1015 1015 1015 1015 1015 1015 1015 1015 1015 
1015 1015 1015 1015 1015 1015 1015 1015 1015 
1015 1015 1015 1015 1015 1015 1015 1015 1015 
1015 1015 1015 1015 1015 1015 1015 1015 1015 
1015 1015 1015 1015 1015 1015 1015 1015 1015 
1015 1015 1015 1015 1015 1015 1015 1015 1015 
1015 1015 1015 1015 1015 1015 1015 1015 1015 
1015 1015 1015 1015 1015 1015 1015 1015 1015 
1015 1015 1015 1015 1015 1015 1015 1015 1015 
1015 1015 1015 1015 1015 1015 1015 1015 1015 
1015 1015 1015 1015 1015 1015 1015 1015 1015 
1015 1015 1015 1015 1015 1015 1015 1015 1015 
1015 1015 1015 1015 1015 1015 1015 1015 1015 
1015 1015 1015 1015 1015 1015 1015 1015 1015 
1015 1015 1015 1015 1015 1015 1015 1015 1015 
1015 1015 1015 1015 1015 1015 1015 1015 1015 
1015 1015 1015 1015 1015 1015 1015 1015 1015 
1015 1015 1015 1015 1015 1015 1015 1015 1015 
1015 1015 1015 1015 1015 1015 1015 1015 1015 
1015 1015 1015 1015 1015 1015 1015 1015 1015 
1015 1015 1015 1015 1015 1015 1015 1015 1015 
1015 1015 1015 1015 1015 1015 1015 1015 1015 
1015 1015 1015 1015 1015 1015 1015 1015 1015 
1015 1015 1015 1015 1015 1015 1015 1015 1015 
1015 1015 1015 1015 1015 1015 1015 1015 1015 
1015 1015 1015 1015 1015 1015 1015 1015 1015 
1015 1015 1015 1015 1015 1015 1015 1015 1015 
1015 1015 1015 1015 1015 1015 1015 1015 1015 
1015 1015 1015 1015 1015 1015 1015 1015 1015 
1015 1015 1015 1015 1015 1015 1015 1015 1015 
1015 1015 1015 1015 1015 1015 1015 1015 1015 
1015 1015 1015 1015 1015 1015 1015 1015 1015 
1015 1015 1015 1015 1015 1015 1015 1015 1015 
1015 1015 1015 1015 1015 1015 1015 1015 1015 
1015 1015 1015 1015 1015 1015 1015 1015 1015 
1015 1015 1015 1015 1015 1015 1015 1015 1015 
1015 1015 1015 1015 1015 1015 1015 1015 1015 
1015 1015 1015 1015 1015 1015 1015 1015 1015 
1015 1015 1015 1015 1015 1015 1015 1015 1015 
1015 1015 1015 1015 1015 1015 1015 1015 1015 
1015 1015 1015 1015 1015 1015 1015 1015 1015 
1015 1015 1015 1015 1015 1015 1015 1015 1015 
1015 1015 1015 1015 1015 1015 1015 1015 1015 
1015 1015 1015 1015 1015 1015 1015 1015 1015 
1015 1015 1015 1015 1015 1015 1015 1015 1015 
1015 1015 1015 1015 1015 1015 1015 1015 1015 
1015 1015 1015 1015 1015 1015 1015 1015 1015 
1015 1015 1015 1015 1015 1015 1015 1015 1015 
1015 1015 1015 1015 1015 1015 1015 1015 1015 
1015 1015 1015 1015 1015 1015 1015 1015 1015 
1015 1015 1015 1015 1015 1015 1015 1015 1015 
1015 1015 1015 1015 1015 1015 1015 1015 1015 
1015 1015 1015 1015 1015 1015 1015 1015 1015 
1015 1015 1015 1015 1015 1015 1015 1015 1015 
1015 1015 1015 1015 1015 1015 1015 1015 1015 
1015 1015 1015 1015 1015 1015 1015 1015 1015 
1015 1015 1015 1015 1015 1015 1015 1015 1015 
1015 1015 1015 1015 1015 1015 1015 1015 1015 
1015 1015 1015 1015 1015 1015 1015 1015 1015 
1015 1015 1015 1015 1015 1015 1015 1015 1015 
1015 1015 1015 1015 1015 1015 1015 1015 1015 
1015 1015 1015 1015 1015 1015 1015 1015 1015 
1015 1015 1015 1015 1015 1015 1015 1015 1015 
1015 1015 1015 1015 1015 1015 1015 1015 1015 
1015 1015 1015 1015 1015 1015 1015 1015 1015 
1015 1015 1015 1015 1015 1015 1015 1015 1015 
1015 1015 1015 1015 1015 1015 1015 1015 1015 
1015 1015 1015 1015 1015 1015 1015 1015 1015 
1015 1015 1015 1015 1015 1015 1015 1015 1015 
1015 1015 1015 1015 1015 1015 1015 1015 1015 
1015 1015 1015 1015 1015 1015 1015 1015 1015 
1015 1015 1015 1015 1015 1015 1015 1015 1015 
1015 1015 1015 1015 1015 1015 1015 1015 1015 
1015 1015 1015 1015 1015 1015 1015 1015 1015 
1015 1015 1015 1015 1015 1015 1015 1015 1015 
1015 1015 1015 1015 1015 1015 1015 1015 1015 
1015 1015 1015 1015 1015 1015 1015 1015 1015 
1015 1015 1015 1015 1015 1015 1015 1015 1015 
1015 1015 1015 1015 1015 1015 1015 1015 1015 
1015 1015 1015 1015 1015 1015 1015 1015 1015 
1015 1015 1015 1015 1015 1015 1015 1015 1015 
1015 1015 1015 1015 1015 1015 1015 1015 1015 
1015 1015 1015 1015 1015 1015 1015 1015 1015 
1015 1015 1015 1015 1015 1015 1015 1015 1015 
1015 1015 1015 1015 1015 1015 1015 1015 1015 
1015 1015 1015 1015 1015 1015 1015 1015 1015 
1015 1015 1015 1015 1015 1015 1015 1015 1015 
1015 1015 1015 1015 1015 1015 1015 1015 1015 
1015 1015 1015 1015 1015 1015 1015 1015 1015 
1015 1015 1015 1015 1015 1015 1015 1015 1015 
1015 1015 1015 1015 1015 1015 1015 1015 1015 
1015 1015 1015 1015 1015 1015 1015 1015 1015 
1015 1015 1015 1015 1015 1015 1015 1015 1015 
1015 1015 1015 1015 1015 1015 1015 1015 1015 
1015 1015 1015 1015 1015 1015 1015 1015 1015 
1015 1015 1015 1015 1015 1015 1015 1015 1015 
1015 1015 1015 1015 1015 1015 1015 1015 1015 
1015 1015 1015 1015 1015 1015 1015 1015 1015 
1015 1015 1015 1015 1015 1015 1015 1015 1015 
1015 1015 1015 1015 1015 1015 1015 1015 1015 
1015 1015 1015 1015 1015 1015 1015 1015 1015 
1015 1015 1015 1015 1015 1015 1015 1015 1015 
1015 1015 1015 1015 1015 1015 1015 1015 1015 
1015 1015 1015 1015 1015 1015 1015 1015 1015 
1015 1015 1015 1015 1015 1015 1015 1015 1015 
1015 1015 1015 1015 1015 1015 1015 1015 1015 
1015 1015 1015 1015 1015 1015 1015 1015 1015 
1015 1015 1015 1015 1015 1015 1015 1015 1015 
1015 1015 1015 1015 1015 1015 1015 1015 1015 
1015 1015 1015 1015 1015 1015 1015 1015 1015 
1015 1015 1015 1015 1015 1015 1015 1015 1015 
1015 1015 1015 1015 1015 1015 1015 1015 1015 
1015 1015 1015 1015 1015 1015 1015 1015 1015 
1015 1015 1015 1015 1015 1015 1015 1015 1015 
1015 1015 1015 1015 1015 1015 1015 1015 1015 
1015 1015 1015 1015 1015 1015 1015 1015 1015 
1015 1015 1015 1015 1015 1015 1015 1015 1015 
1015 1015 1015 1015 1015 1015 1015 1015 1015 
1015 1015 1015 1015 1015 1015 1015 1015 1015 
1015 1015 1015 1015 1015 1015 1015 1015 1015 
1015 1015 1015 1015 1015 1015 1015 1015 1015 
1015 1015 1015 1015 1015 1015 1015 1015 1015 
1015 1015 1015 1015 1015 1015 1015 1015 1015 
1015 1015 1015 1015 1015 1015 1015 1015 1015 
1015 1015 1015 1015 1015 1015 1015 1015 1015 
1015 1015 1015 1015 1015 1015 1015 1015 1015 
1015 1015 1015 1015 1015 1015 1015 1015 1015 
1015 1015 1015 1015 1015 1015 1015 1015 1015 
1015 1015 1015 1015 1015 1015 1015 1015 1015 
1015 1015 1015 1015 1015 1015 1015 1015 1015 
1015 1015 1015 1015 1015 1015 1015 1015 1015 
1015 1015 1015 1015 1015 1015 1015 1015 1015 
1015 1015 1015 1015 1015 1015 1015 1015 1015 
1015 1015 1015 1015 1015 1015 1015 1015 1015 
1015 1015 1015 1015 1015 1015 1015 1015 1015 
1015 1015 1015 1015 1015 1015 1015 1015 1015 
1015 1015 1015 1015 1015 1015 1015 1015 1015 
1015 1015 1015 1015 1015 1015 1015 1015 1015 
1015 1015 1015 1015 1015 1015 1015 1015 1015 
1015 1015 1015 1015 1015 1015 1015 1015 1015 
1015 1015 1015 1015 1015 1015 1015 1015 1015 
1015 1015 1015 1015 1015 1015 1015 1015 1015 
1015 1015 1015 1015 1015 1015 1015 1015 1015 
1015 1015 1015 1015 1015 1015 1015 1015 1015 
1015 1015 1015 1015 1015 1015 1015 1015 1015 
1015 1015 1015 1015 1015 1015 1015 1015 1015 
1015 1015 1015 1015 1015 1015 1015 1015 1015 
1015 1015 1015 1015 1015 1015 1015 1015 1015 
1015 1015 1015 1015 1015 1015 1015 1015 1015 
1015 1015 1015 1015 1015 1015 1015 1015 1015 
1015 1015 1015 1015 1015 1015 1015 1015 1015 
1015 1015 1015 1015 1015 1015 1015 1015 1015 
1015 1015 1015 1015 1015 1015 1015 1015 1015 
1015 1015 1015 1015 1015 1015 1015 1015 1015 
1015 1015 1015 1015 1015 1015 1015 1015 1015 
1015 1015 1015 1015 1015 1015 1015 1015 1015 
1015 1015 1015 1015 1015 1015 1015 1015 1015 
1015 1015 1015 1015 1015 1015 1015 1015 1015 
1015 1015 1015 1015 1015 1015 1015 1015 1015 
1015 1015 1015 1015 1015 1015 1015 1015 1015 
1015 1015 1015 1015 1015 1015 1015 1015 1015 
1015 1015 1015 1015 1015 1015 1015 1015 1015 
1015 1015 1015 1015 1015 1015 1015 1015 1015 
1015 1015 1015 1015 1015 1015 1015 1015 1015 
1015 1015 1015 1015 1015 1015 1015 1015 1015 
1015 1015 1015 1015 1015 1015 1015 1015 1015 
1015 1015 1015 1015 1015 1015 1015 1015 1015 
1015 1015 1015 1015 1015 1015 1015 1015 1015 
1015 1015 1015 1015 1015 1015 1015 1015 1015 
1015 1015 1015 1015 1015 1015 1015 1015 1015 
1015 1015 1015 1015 1015 1015 1015 1015 1015 
1015 1015 1015 1015 1015 1015 1015 1015 1015 
1015 1015 1015 1015 1015 1015 1015 1015 1015 
1015 1015 1015 1015 1015 1015 1015 1015 1015 
1015 1015 1015 1015 1015 1015 1015 1015 1015 
1015 1015 1015 1015 1015 1015 1015 1015 1015 
1015 1015 1015 1015 1015 1015 1015 1015 1015 
1015 1015 1015 1015 1015 1015 1015 1015 1015 
1015 1015 1015 1015 1015 1015 1015 1015 1015 
1015 1015 1015 1015 1015 1015 1015 1015 1015 
1015 1015 1015 1015 1015 1015 1015 1015 1015 
1015 1015 1015 1015 1015 1015 1015 1015 1015 
1015 1015 1015 1015 1015 1015 1015 1015 1015 
1015 1015 1015 1015 1015 1015 1015 1015 1015 
1015 1015 1015 1015 1015 1015 1015 1015 1015 
1015 1015 1015 1015 1015 1015 1015 1015 1015 
1015 1015 1015 1015 1015 1015 1015 1015 1015 
1015 1015 1015 1015 1015 1015 1015 1015 1015 
1015 1015 1015 1015 1015 1015 1015 1015 1015 
1015 1015 1015 1015 1015 1015 1015 1015 1015 
1015 1015 1015 1015 1015 1015 1015 1015 1015 
1015 1015 1015 1015 1015 1015 1015 1015 1015 
1015 1015 1015 1015 1015 1015 1015 1015 1015 
1015 1015 1015 1015 1015 1015 1015 1015 1015 
1015 1015 1015 1015 1015 1015 1015 1015 1015 
1015 1015 1015 1015 1015 1015 1015 1015 1015 
1015 1015 1015 1015 1015 1015 1015 1015 1015 
1015 1015 1015 1015 1015 1015 1015 1015 1015 
1015 1015 1015 1015 1015 1015 1015 1015 1015 
1015 1015 1015 1015 1015 1015 1015 1015 1015 
1015 1015 1015 1015 1015 1015 1015 1015 1015 
1015 1015 1015 1015 1015 1015 1015 1015 1015 
1015 1015 1015 1015 1015 1015 1015 1015 1015 
1015 1015 1015 1015 1015 1015 1015 1015 1015 
1015 1015 1015 1015 1015 1015 1015 1015 1015 
1015 1015 1015 1015 1015 1015 1015 1015 1015 
1015 1015 1015 1015 1015 1015 1015 1015 1015 
1015 1015 1015 1015 1015 1015 1015 1015 1015 
1015 1015 1015 1015 1015 1015 1015 1015 1015 
1015 1015 1015 1015 1015 1015 1015 1015 1015 
1015 1015 1015 1015 1015 1015 1015 1015 1015 
1015 1015 1015 1015 1015 1015 1015 1015 1015 
1015 1015 1015 1015 1015 1015 1015 1015 1015 
1015 1015 1015 1015 1015 1015 1015 1015 1015 
1015 1015 1015 1015 1015 1015 1015 1015 1015 
1015 1015 1015 1015 1015 1015 1015 1015 1015 
1015 1015 1015 1015 1015 1015 1015 1015 1015 
1015 1015 1015 1015 1015 1015 1015 1015 1015 
1015 1015 1015 1015 1015 1015 1015 1015 1015 
1015 1015 1015 1015 1015 1015 1015 1015 1015 
1015 1015 1015 1015 1015 1015 1015 1015 1015 
1015 1015 1015 1015 1015 1015 1015 1015 1015 
1015 1015 1015 1015 1015 1015 1015 1015 1015 
1015 1015 1015 1015 1015 1015 1015 1015 1015 
1015 1015 1015 1015 1015 1015 1015 1015 1015 
1015 1015 1015 1015 1015 1015 1015 1015 1015 
1015 1015 1015 1015 1015 1015 1015 1015 1015 
1015 1015 1015 1015 1015 1015 1015 1015 1015 
1015 1015 1015 1015 1015 1015 1015 1015 1015 
1015 1015 1015 1015 1015 1015 1015 1015 1015 
1015 1015 1015 1015 1015 1015 1015 1015 1015 
1015 1015 1015 1015 1015 1015 1015 1015 1015 
1015 1015 1015 1015 1015 1015 1015 1015 1015 
1015 1015 1015 1015 1015 1015 1015 1015 1015 
1015 1015 1015 1015 1015 1015 1015 1015 1015 
1015 1015 1015 1015 1015 1015 1015 1015 1015 
1015 1015 1015 1015 1015 1015 1015 1015 1015 
1015 1015 1015 1015 1015 1015 1015 1015 1015 
1015 1015 1015 1015 1015 1015 1015 1015 1015 
1015 1015 1015 1015 1015 1015 1015 1015 1015 
1015 1015 1015 1015 1015 1015 1015 1015 1015 
1015 1015 1015 1015 1015 1015 1015 1015 1015 
1015 1015 1015 1015 1015 1015 1015 1015 1015 
1015 1015 1015 1015 1015 1015 1015 1015 1015 
1015 1015 1015 1015 1015 1015 1015 1015 1015 
1015 1015 1015 1015 1015 1015 1015 1015 1015 
1015 1015 1015 1015 1015 1015 1015 1015 1015 
1015 1015 1015 1015 1015 1015 1015 1015 1015 
1015 1015 1015 1015 1015 1015 1015 1015 1015 
1015 1015 1015 1015 1015 1015 1015 1015 1015 
1015 1015 1015 1015 1015 1015 1015 1015 1015 
1015 1015 1015 1015 1015 1015 1015 1015 1015 
1015 1015 1015 1015 1015 1015 1015 1015 1015 
1015 1015 1015 1015 1015 1015 1015 1015 1015 
1015 1015 1015 1015 1015 1015 1015 1015 1015 
1015 1015 1015 1015 1015 1015 1015 1015 1015 
1015 1015 1015 1015 1015 1015 1015 1015 1015 
1015 1015 1015 1015 1015 1015 1015 1015 1015 
1015 1015 1015 1015 1015 1015 1015 1015 1015 
1015 1015 1015 1015 1015 1015 1015 1015 1015 
1015 1015 1015 1015 1015 1015 1015 1015 1015 
1015 1015 1015 1015 1015 1015 1015 1015 1015 
1015 1015 1015 1015 1015 1015 1015 1015 1015 
1015 1015 1015 1015 1015 1015 1015 1015 1015 
1015 1015 1015 1015 1015 1015 1015 1015 1015 
1015 1015 1015 1015 1015 1015 1015 1015 1015 
1015 1015 1015 1015 1015 1015 1015 1015 1015 
1015 1015 1015 1015 1015 1015 1015 1015 1015 
1015 1015 1015 1015 1015 1015 1015 1015 1015 
1015 1015 1015 1015 1015 1015 1015 1015 1015 
1015 1015 1015 1015 1015 1015 1015 1015 1015 
1015 1015 1015 1015 1015 1015 1015 1015 1015 
1015 1015 1015 1015 1015 1015 1015 1015 1015 
1015 1015 1015 1015 1015 1015 1015 1015 1015 
1015 1015 1015 1015 1015 1015 1015 1015 1015 
1015 1015 1015 1015 1015 1015 1015 1015 1015 
1015 1015 1015 1015 1015 1015 1015 1015 1015 
1015 1015 1015 1015 1015 1015 1015 1015 1015 
1015 1015 1015 1015 1015 1015 1015 1015 1015 
1015 1015 1015 1015 1015 1015 1015 1015 1015 
1015 1015 1015 1015 1015 1015 1015 1015 1015 
1015 1015 1015 1015 1015 1015 1015 1015 1015 
1015 1015 1015 1015 1015 1015 1015 1015 1015 
1015 1015 1015 1015 1015 1015 1015 1015 1015 
1015 1015 1015 1015 1015 1015 1015 1015 1015 
1015 1015 1015 1015 1015 1015 1015 1015 1015 
1015 1015 1015 1015 1015 1015 1015 1015 1015 
1015 1015 1015 1015 1015 1015 1015 1015 1015 
1015 1015 1015 1015 1015 1015 1015 1015 1015 
1015 1015 1015 1015 1015 1015 1015 1015 1015 
1015 1015 1015 1015 1015 1015 1015 1015 1015 
1015 1015 1015 1015 1015 1015 1015 1015 1015 
1015 1015 1015 1015 1015 1015 1015 1015 1015 
1015 1015 1015 1015 1015 1015 1015 1015 1015 
1015 1015 1015 1015 1015 1015 1015 1015 1015 
1015 1015 1015 1015 1015 1015 1015 1015 1015 
1015 1015 1015 1015 1015 1015 1015 1015 1015 
1015 1015 1015 1015 1015 1015 1015 1015 1015 
1015 1015 1015 1015 1015 1015 1015 1015 1015 
1015 1015 1015 1015 1015 1015 1015 1015 1015 
1015 1015 1015 1015 1015 1015 1015 1015 1015 
1015 1015 1015 1015 1015 1015 1015 1015 1015 
1015 1015 1015 1015 1015 1015 1015 1015 1015 
1015 1015 1015 1015 1015 1015 1015 1015 1015 
1015 1015 1015 1015 1015 1015 1015 1015 1015 
1015 1015 1015 1015 1015 1015 1015 1015 1015 
1015 1015 1015 1015 1015 1015 1015 1015 1015 
1015 1015 1015 1015 1015 1015 1015 1015 1015 
1015 1015 1015 1015 1015 1015 1015 1015 1015 
1015 1015 1015 1015 1015 1015 1015 1015 1015 
1015 1015 1015 1015 1015 1015 1015 1015 1015 
1015 1015 1015 1015 1015 1015 1015 1015 1015 
1015 1015 1015 1015 1015 1015 1015 1015 1015 
1015 1015 1015 1015 1015 1015 1015 1015 1015 
1015 1015 1015 1015 1015 1015 1015 1015 1015 
1015 1015 1015 1015 1015 1015 1015 1015 1015 
1015 1015 1015 1015 1015 1015 1015 1015 1015 
1015 1015 1015 1015 1015 1015 1015 1015 1015 
1015 1015 1015 1015 1015 1015 1015 1015 1015 
1015 1015 1015 1015 1015 1015 1015 1015 1015 
1015 1015 1015 1015 1015 1015 1015 1015 1015 
1015 1015 1015 1015 1015 1015 1015 1015 1015 
1015 1015 1015 1015 1015 1015 1015 1015 1015 
1015 1015 1015 1015 1015 1015 1015 1015 1015 
1015 1015 1015 1015 1015 1015 1015 1015 1015 
1015 1015 1015 1015 1015 1015 1015 1015 1015 
1015 1015 1015 1015 1015 1015 1015 1015 1015 
1015 1015 1015 1015 1015 1015 1015 1015 1015 
1015 1015 1015 1015 1015 1015 1015 1015 1015 
1015 1015 1015 1015 1015 1015 1015 1015 1015 
1015 1015 1015 1015 1015 1015 1015 1015 1015 
1015 1015 1015 1015 1015 1015 1015 1015 1015 
1015 1015 1015 1015 1015 1015 1015 1015 1015 
1015 1015 1015 1015 1015 1015 1015 1015 1015 
1015 1015 1015 1015 1015 1015 1015 1015 1015 
1015 1015 1015 1015 1015 1015 1015 1015 1015 
1015 1015 1015 1015 1015 1015 1015 1015 1015 
1015 1015 1015 1015 1015 1015 1015 1015 1015 
1015 1015 1015 1015 1015 1015 1015 1015 1015 
1015 1015 1015 1015 1015 1015 1015 1015 1015 
1015 1015 1015 1015 1015 1015 1015 1015 1015 
1015 1015 1015 1015 1015 1015 1015 1015 1015 
1015 1015 1015 1015 1015 1015 1015 1015 1015 
1015 1015 1015 1015 1015 1015 1015 1015 1015 
1015 1015 1015 1015 1015 1015 1015 1015 1015 
1015 1015 1015 1015 1015 1015 1015 1015 1015 
1015 1015 1015 1015 1015 1015 1015 1015 1015 
1015 1015 1015 1015 1015 1015 1015 1015 1015 
1015 1015 1015 1015 1015 1015 1015 1015 1015 
1015 1015 1015 1015 1015 1015 1015 1015 1015 
1015 1015 1015 1015 1015 1015 1015 1015 1015 
1015 1015 1015 1015 1015 1015 1015 1015 1015 
1015 1015 1015 1015 1015 1015 1015 1015 1015 
1015 1015 1015 1015 1015 1015 1015 1015 1015 
1015 1015 1015 1015 1015 1015 1015 1015 1015 
1015 1015 1015 1015 1015 1015 1015 1015 1015 
1015 1015 1015 1015 1015 1015 1015 1015 1015 
1015 1015 1015 1015 1015 1015 1015 1015 1015 
1015 1015 1015 1015 1015 1015 1015 1015 1015 
1015 1015 1015 1015 1015 1015 1015 1015 1015 
1015 1015 1015 1015 1015 1015 1015 1015 1015 
1015 1015 1015 1015 1015 1015 1015 1015 1015 
1015 1015 1015 1015 1015 1015 1015 1015 1015 
1015 1015 1015 1015 1015 1015 1015 1015 1015 
1015 1015 1015 1015 1015 1015 1015 1015 1015 
1015 1015 1015 1015 1015 1015 1015 1015 1015 
1015 1015 1015 1015 1015 1015 1015 1015 1015 
1015 1015 1015 1015 1015 1015 1015 1015 1015 
1015 1015 1015 1015 1015 1015 1015 1015 1015 
1015 1015 1015 1015 1015 1015 1015 1015 1015 
1015 1015 1015 1015 1015 1015 1015 1015 1015 
1015 1015 1015 1015 1015 1015 1015 1015 1015 
1015 1015 1015 1015 1015 1015 1015 1015 1015 
1015 1015 1015 1015 1015 1015 1015 1015 1015 
1015 1015 1015 1015 1015 1015 1015 1015 1015 
1015 1015 1015 1015 1015 1015 1015 1015 1015 
1015 1015 1015 1015 1015 1015 1015 1015 1015 
1015 1015 1015 1015 1015 1015 1015 1015 1015 
1015 1015 1015 1015 1015 1015 1015 1015 1015 