# vtk DataFile Version 4.2
vtk output
ASCII
DATASET POLYDATA
POINTS 4290 float
-25.3495 13.494 -30.2518 -25.1457 13.9258 -30.632 -25.6769 13.4088 -30.5861 
-24.9168 13.5787 -30.512 -25.0641 13.241 -30.6238 -25.5295 14.2602 -30.9726 
-25.5511 14.8348 -31.733 -25.939 14.4403 -31.3652 -24.922 14.5002 -31.6401 
-22.3365 14.5363 -31.3577 -22.1677 14.7563 -31.8106 -22.4983 14.4036 -31.623 
-22.0708 14.5405 -31.4207 -28.2893 13.5042 -31.3121 -28.5514 13.74 -31.6809 
-28.5287 13.3493 -31.4522 -28.1444 13.4448 -31.7014 -26.3124 13.5654 -30.9983 
-26.4052 14.1424 -31.6143 -26.858 13.4575 -31.6036 -24.2321 13.4755 -30.9565 
-24.3157 13.9541 -31.3725 -23.4952 13.3524 -31.2511 -23.3698 13.6836 -31.5137 
-22.1954 14.2886 -31.4653 -22.9242 13.2489 -31.6276 -28.2702 13.2214 -31.3853 
-27.4417 12.8324 -31.7275 -27.7814 12.298 -31.5698 -27.1213 12.6708 -31.1795 
-26.3465 12.6019 -31.0616 -25.2651 12.7805 -31.4177 -25.8446 12.3848 -31.4223 
-24.161 13.0926 -31.4114 -23.3707 13.1518 -31.5201 -27.1608 12.035 -31.664 
-26.1297 12.0894 -31.7276 -15.3441 18.5808 -32.2821 -15.5642 18.7545 -32.6427 
-15.5948 18.5514 -32.373 -15.1421 18.5901 -32.6554 -16.4136 17.5051 -32.3053 
-16.4689 17.89 -32.5399 -16.5809 17.5167 -32.7578 -15.3373 18.3508 -32.6571 
-16.1976 17.6237 -32.542 -16.2736 17.2678 -32.6619 -19.3469 15.4441 -32.2973 
-19.432 15.6621 -32.6484 -19.5343 15.3285 -32.5319 -18.8787 15.477 -32.7502 
-26.1281 14.6777 -31.9375 -25.9582 14.8156 -32.4709 -26.5845 14.1881 -32.4075 
-25.307 14.8524 -32.2929 -24.9686 14.5167 -32.5989 -22.0864 14.8317 -32.529 
-22.6411 14.4846 -32.2409 -21.1398 14.8371 -32.5522 -21.6036 14.344 -31.8002 
-20.5732 14.2685 -32.2538 -20.1761 14.7659 -32.659 -19.2475 15.0661 -32.5288 
-19.8037 14.2512 -32.7472 -31.1072 13.4609 -32.1642 -31.3039 13.8343 -32.7674 
-31.6163 13.4188 -32.6198 -30.1508 13.3771 -32.0196 -30.3949 13.9249 -32.5484 
-29.1392 13.3486 -31.8185 -29.2188 13.9194 -32.4133 -28.3262 13.8379 -32.3135 
-27.8679 13.3565 -32.6974 -27.0141 13.4098 -32.3538 -24.4246 14.1897 -32.5173 
-23.3805 14.0237 -32.4342 -22.4316 13.7972 -31.8338 -21.3651 13.398 -32.092 
-20.8077 13.5873 -32.3864 -20.4784 13.9188 -32.8316 -31.2829 12.9913 -32.3849 
-30.8466 12.4113 -32.758 -30.6174 12.7288 -32.1063 -29.6438 12.5853 -32.0274 
-28.3329 12.7471 -31.8893 -27.4223 13.0697 -32.5858 -25.455 12.3249 -31.9114 
-24.9354 12.4926 -32.426 -24.4079 12.7945 -32.4744 -23.425 12.9877 -32.3921 
-22.3204 12.7682 -32.1222 -22.7083 12.5017 -32.8456 -21.7282 12.7572 -32.6883 
-21.1919 13.1412 -32.434 -30.0399 12.0859 -32.5993 -29.0576 12.009 -32.5836 
-28.0454 11.9609 -32.4012 -27.179 11.8451 -32.6524 -26.3202 11.8946 -32.5335 
-25.4132 12.1241 -32.5837 -21.9871 12.1171 -32.7342 -14.3139 19.4789 -33.315 
-14.2762 19.7543 -33.7237 -14.5486 19.3802 -33.5406 -13.8046 19.3886 -33.733 
-15.9836 18.273 -32.8385 -16.013 18.8117 -33.5473 -16.6053 18.1571 -33.3094 
-15.2129 18.8178 -33.3736 -14.854 18.2532 -33.5071 -14.2557 19.0925 -33.554 
-16.6592 17.3954 -33.5092 -15.3271 17.8654 -33.4489 -15.7945 17.3078 -33.4629 
-18.3076 16.3568 -33.0814 -18.0498 16.7746 -33.6951 -18.5979 16.5429 -33.4357 
-17.5079 16.2142 -33.1609 -17.3796 16.7224 -33.5006 -16.3008 16.997 -33.3883 
-16.9575 16.4535 -33.4312 -19.1026 16.0192 -33.5498 -19.726 15.461 -33.2302 
-18.1318 15.7087 -32.9966 -17.807 15.7067 -33.5076 -17.1277 16.1057 -33.7719 
-26.3325 14.3575 -33.0881 -25.6349 14.5605 -33.0054 -22.3986 14.1961 -32.8512 
-21.3854 14.4731 -32.8859 -20.8005 14.4625 -33.3127 -20.325 14.9905 -33.5299 
-19.5629 14.7749 -32.9227 -18.9069 14.6328 -33.2273 -18.3158 15.0483 -33.6279 
-31.2895 13.872 -33.7122 -31.7278 13.346 -33.4947 -30.4012 14.0421 -33.4475 
-29.3523 14.0553 -33.4675 -28.2978 13.8839 -33.4042 -27.6473 13.5179 -33.6513 
-26.2908 14.002 -33.8437 -26.8989 13.6308 -33.223 -25.031 14.148 -33.5068 
-24.0886 13.8824 -33.3425 -23.1459 13.4564 -33.0336 -23.8618 13.3529 -33.6942 
-22.256 13.3872 -33.0171 -21.3866 13.5943 -32.7667 -20.6212 13.705 -33.5318 
-20.2546 13.4512 -33.2199 -19.8504 13.5926 -33.2922 -19.2769 14.0213 -33.614 
-31.4557 12.873 -33.0913 -31.0624 12.3197 -33.5483 -27.3893 13.2632 -33.3475 
-24.84 12.4587 -33.2113 -24.3873 12.754 -33.7093 -22.4651 12.822 -33.4545 
-22.6635 12.2843 -33.7299 -21.4421 12.28 -33.0528 -21.6124 12.8119 -33.6314 
-20.2905 13.2473 -33.7496 -21.1016 12.4972 -33.6481 -30.3328 11.9671 -33.6188 
-29.3363 11.8606 -33.5046 -28.343 11.8654 -33.4991 -27.506 11.8741 -33.369 
-26.6037 12.03 -33.5881 -25.6013 12.1587 -33.3984 -22.2194 11.9584 -33.5503 
-21.4333 12.0211 -33.5496 -14.07 19.815 -34.6308 -14.6409 19.4656 -34.1737 
-13.2806 19.5146 -34.1086 -13.5655 19.8203 -34.2358 -13.0762 19.6052 -34.6522 
-16.4525 18.4334 -34.0523 -16.0334 18.6931 -34.4474 -15.1966 19.0133 -34.5716 
-14.6084 18.8022 -33.9168 -13.9657 18.7498 -34.3324 -13.3464 19.2141 -34.5683 
-16.3683 18.1354 -34.8714 -16.7258 17.6308 -34.2706 -15.267 17.3872 -34.0327 
-14.8671 17.5848 -34.3456 -14.3059 18.04 -34.6821 -18.1246 16.1906 -33.935 
-17.8911 16.5759 -34.353 -17.4516 16.9732 -34.5924 -16.6252 16.6898 -33.9145 
-15.8817 16.5561 -34.3187 -15.2736 16.9772 -34.7278 -19.197 15.9428 -34.6529 
-19.8583 15.6512 -34.311 -18.5818 15.8287 -34.5459 -18.128 15.4788 -34.2742 
-17.4371 16.0721 -34.7661 -16.3722 16.0803 -34.6161 -20.3751 15.1301 -34.4269 
-20.81 14.4451 -34.2507 -18.7132 14.5125 -34.4269 -18.3156 15.0668 -34.6369 
-31.313 13.8712 -34.7465 -31.7587 13.4976 -34.3427 -30.3881 14.0055 -34.4714 
-29.3157 14.0012 -34.5081 -28.2977 13.9721 -34.5487 -27.1695 13.5438 -33.8472 
-27.2573 13.8578 -34.4437 -26.1643 13.98 -34.7653 -25.2968 14.0103 -34.5865 
-24.2869 13.8791 -34.4252 -23.7334 13.48 -34.6255 -20.9707 13.2443 -34.0844 
-21.2846 13.9232 -34.5149 -21.738 13.2408 -34.7729 -19.7925 13.3928 -34.1761 
-19.3861 13.868 -34.8488 -31.5029 12.6266 -33.8801 -31.6685 12.8023 -34.6085 
-26.3629 12.683 -34.9545 -25.9517 12.4653 -34.1268 -26.7216 12.3969 -34.3989 
-25.2155 12.7531 -34.5681 -25.1713 12.5458 -33.8686 -24.3234 12.4423 -34.2585 
-24.535 12.5091 -34.5296 -24.0231 12.7677 -34.4838 -22.2125 12.8151 -34.3141 
-22.5736 12.476 -34.3266 -20.3797 13.0364 -34.3615 -20.8854 12.5534 -34.378 
-31.0179 12.1448 -34.4133 -30.3582 11.8968 -34.5093 -29.6587 12.0175 -34.5643 
-28.6141 12.066 -34.3941 -27.5204 12.1261 -34.2933 -24.3287 12.319 -34.5175 
-22.3925 12.097 -34.3455 -21.6759 12.0797 -34.4223 -14.124 19.1881 -34.9387 
-13.7176 19.5179 -35.5734 -13.2856 19.8502 -35.4573 -12.7839 19.4922 -35.3995 
-15.0264 18.814 -35.7627 -15.7545 18.3866 -35.4685 -14.4484 18.922 -35.6071 
-14.0238 18.4887 -35.3402 -13.1179 19.1896 -35.6228 -16.5324 17.9528 -35.779 
-16.8195 17.2842 -35.6262 -14.7621 17.5305 -35.5099 -14.1453 17.9797 -35.752 
-19.3015 16.259 -35.169 -19.2144 16.8524 -35.715 -19.8642 16.5529 -35.5438 
-18.2174 16.3794 -35.0687 -18.2752 16.7356 -35.5741 -17.4041 16.9614 -35.4689 
-15.7076 16.4683 -35.3771 -15.2198 16.9606 -35.5184 -20.3748 15.5281 -35.0108 
-20.4004 16.1028 -35.6564 -20.828 15.4745 -35.6217 -18.6782 15.5935 -35.3276 
-18.3133 15.4391 -34.8886 -18.1691 16.0934 -35.5919 -17.4671 16.063 -35.6065 
-16.5745 16.0776 -35.4681 -21.3431 14.4783 -35.02 -21.5192 14.9124 -35.8351 
-21.8685 14.1159 -35.7333 -18.9347 14.5551 -35.5098 -31.4385 14.1021 -35.5682 
-31.7601 13.3685 -35.5525 -30.6567 14.167 -35.3498 -29.4387 14.0881 -35.4953 
-28.3129 13.9572 -35.5503 -27.3327 13.9462 -35.5665 -26.3296 13.9486 -35.5798 
-25.3139 13.9916 -35.5573 -24.4858 14.0163 -35.3671 -23.3057 13.3492 -35.1343 
-23.5231 13.9359 -35.6174 -22.3227 13.611 -35.224 -22.5768 13.758 -35.5801 
-20.3264 13.7342 -35.6807 -20.2844 13.1959 -34.949 -20.8445 13.2632 -35.5015 
-19.5102 14.1061 -35.7913 -31.5155 12.6602 -35.4055 -31.2229 12.3261 -35.1311 
-31.1571 12.2871 -35.7056 -29.0245 12.4952 -35.1136 -29.7167 12.4038 -35.4318 
-29.2029 12.8208 -35.8563 -28.3459 12.9099 -35.7042 -28.0753 12.5207 -35.0189 
-27.2903 12.8336 -35.5446 -27.2401 12.5634 -34.8778 -26.3472 12.4672 -35.2428 
-26.55 12.5916 -35.5307 -26.0959 12.5221 -35.3821 -25.5093 12.8213 -35.7036 
-24.219 12.8194 -35.3396 -24.3184 12.4328 -34.7804 -23.1369 13.0962 -35.5356 
-22.4233 13.199 -35.6608 -22.0856 12.48 -34.7664 -21.2403 12.733 -35.0452 
-21.5575 13.1579 -35.5166 -30.4907 12.0819 -35.4894 -26.3069 12.3781 -35.478 
-13.3041 19.8999 -36.7872 -13.6182 19.6072 -36.2759 -12.3359 19.3775 -36.0857 
-12.4701 19.7882 -36.2937 -12.0175 19.5285 -36.7468 -15.0675 18.1734 -36.0192 
-14.8236 18.5672 -36.6222 -14.4616 18.9131 -36.3148 -14.0625 18.5498 -36.3784 
-13.2458 19.1335 -36.6035 -12.344 19.1422 -36.6452 -19.2983 17.2861 -36.1502 
-19.3627 17.831 -36.6906 -19.95 17.379 -36.415 -18.1368 17.4244 -36.3728 
-18.3665 17.7044 -36.6879 -17.2117 17.5998 -36.1001 -17.1444 17.7982 -36.4813 
-16.137 17.8516 -36.3344 -15.5046 17.4035 -35.9973 -15.964 17.3138 -36.586 
-14.4515 18.0599 -36.6462 -20.1512 16.7709 -36.0614 -20.4903 16.9307 -36.5406 
-20.6607 16.1833 -36.3626 -18.7568 16.5376 -36.3141 -18.0658 16.3676 -35.9256 
-18.2289 17.1196 -36.5874 -17.4571 17.2931 -36.4905 -17.2138 16.532 -35.8092 
-16.1668 16.7371 -36.0793 -16.5079 17.1884 -36.5832 -20.82 15.4867 -36.4232 
-18.9936 15.2275 -36.303 -31.0629 14.5658 -36.045 -31.1367 14.7969 -36.7763 
-31.6534 14.2682 -36.2498 -30.0841 14.512 -35.996 -30.3327 14.9244 -36.6579 
-29.2166 14.3929 -36.1914 -29.3722 14.7865 -36.6474 -28.6911 14.525 -36.6818 
-23.066 14.4227 -36.1998 -23.3905 14.8562 -36.5499 -23.8406 14.1883 -36.6761 
-22.3386 14.4221 -36.0776 -22.4453 14.9866 -36.3575 -21.1851 15.0848 -36.7588 
-19.1752 14.5379 -36.1653 -19.6744 14.3281 -36.4124 -19.4246 14.7867 -36.643 
-31.7788 13.6227 -36.5074 -28.4746 14.1531 -36.283 -27.5477 14.0752 -36.402 
-26.4877 14.0087 -36.5483 -25.3463 13.7936 -36.5393 -24.3741 13.9793 -36.2168 
-22.7256 13.7064 -36.2049 -22.0576 13.539 -35.811 -22.1414 13.9438 -36.7 
-21.2798 13.6307 -35.8206 -21.2432 13.9456 -36.334 -20.4018 14.096 -36.5718 
-31.5014 12.5653 -35.9581 -31.6388 12.7648 -36.472 -29.7921 12.4663 -36.1909 
[...]
CELL_DATA 8760
SCALARS scalars float
LOOKUP_TABLE default
2021 2021 2021 2021 2021 2021 2021 2021 2021 
2021 2021 2021 2021 2021 2021 2021 2021 2021 
2021 2021 2021 2021 2021 2021 2021 2021 2021 
2021 2021 2021 2021 2021 2021 2021 2021 2021 
2021 2021 2021 2021 2021 2021 2021 2021 2021 
2021 2021 2021 2021 2021 2021 2021 2021 2021 
2021 2021 2021 2021 2021 2021 2021 2021 2021 
2021 2021 2021 2021 2021 2021 2021 2021 2021 
2021 2021 2021 2021 2021 2021 2021 2021 2021 
2021 2021 2021 2021 2021 2021 2021 2021 2021 
2021 2021 2021 2021 2021 2021 2021 2021 2021 
2021 2021 2021 2021 2021 2021 2021 2021 2021 
2021 2021 2021 2021 2021 2021 2021 2021 2021 
2021 2021 2021 2021 2021 2021 2021 2021 2021 
2021 2021 2021 2021 2021 2021 2021 2021 2021 
2021 2021 2021 2021 2021 2021 2021 2021 2021 
2021 2021 2021 2021 2021 2021 2021 2021 2021 
2021 2021 2021 2021 2021 2021 2021 2021 2021 
2021 2021 2021 2021 2021 2021 2021 2021 2021 
2021 2021 2021 2021 2021 2021 2021 2021 2021 
2021 2021 2021 2021 2021 2021 2021 2021 2021 
2021 2021 2021 2021 2021 2021 2021 2021 2021 
2021 2021 2021 2021 2021 2021 2021 2021 2021 
2021 2021 2021 2021 2021 2021 2021 2021 2021 
2021 2021 2021 2021 2021 2021 2021 2021 2021 
2021 2021 2021 2021 2021 2021 2021 2021 2021 
2021 2021 2021 2021 2021 2021 2021 2021 2021 
2021 2021 2021 2021 2021 2021 2021 2021 2021 
2021 2021 2021 2021 2021 2021 2021 2021 2021 
2021 2021 2021 2021 2021 2021 2021 2021 2021 
2021 2021 2021 2021 2021 2021 2021 2021 2021 
2021 2021 2021 2021 2021 2021 2021 2021 2021 
2021 2021 2021 2021 2021 2021 2021 2021 2021 
2021 2021 2021 2021 2021 2021 2021 2021 2021 
2021 2021 2021 2021 2021 2021 2021 2021 2021 
2021 2021 2021 2021 2021 2021 2021 2021 2021 
2021 2021 2021 2021 2021 2021 2021 2021 2021 
2021 2021 2021 2021 2021 2021 2021 2021 2021 
2021 2021 2021 2021 2021 2021 2021 2021 2021 
2021 2021 2021 2021 2021 2021 2021 2021 2021 
2021 2021 2021 2021 2021 2021 2021 2021 2021 
2021 2021 2021 2021 2021 2021 2021 2021 2021 
2021 2021 2021 2021 2021 2021 2021 2021 2021 
2021 2021 2021 2021 2021 2021 2021 2021 2021 
2021 2021 2021 2021 2021 2021 2021 2021 2021 
2021 2021 2021 2021 2021 2021 2021 2021 2021 
2021 2021 2021 2021 2021 2021 2021 2021 2021 
2021 2021 2021 2021 2021 2021 2021 2021 2021 
2021 2021 2021 2021 2021 2021 2021 2021 2021 
2021 2021 2021 2021 2021 2021 2021 2021 2021 
2021 2021 2021 2021 2021 2021 2021 2021 2021 
2021 2021 2021 2021 2021 2021 2021 2021 2021 
2021 2021 2021 2021 2021 2021 2021 2021 2021 
2021 2021 2021 2021 2021 2021 2021 2021 2021 
2021 2021 2021 2021 2021 2021 2021 2021 2021 
2021 2021 2021 2021 2021 2021 2021 2021 2021 
2021 2021 2021 2021 2021 2021 2021 2021 2021 
2021 2021 2021 2021 2021 2021 2021 2021 2021 
2021 2021 2021 2021 2021 2021 2021 2021 2021 
2021 2021 2021 2021 2021 2021 2021 2021 2021 
2021 2021 2021 2021 2021 2021 2021 2021 2021 
2021 2021 2021 2021 2021 2021 2021 2021 2021 
2021 2021 2021 2021 2021 2021 2021 2021 2021 
2021 2021 2021 2021 2021 2021 2021 2021 2021 
2021 2021 2021 2021 2021 2021 2021 2021 2021 
2021 2021 2021 2021 2021 2021 2021 2021 2021 
2021 2021 2021 2021 2021 2021 2021 2021 2021 
2021 2021 2021 2021 2021 2021 2021 2021 2021 
2021 2021 2021 2021 2021 2021 2021 2021 2021 
2021 2021 2021 2021 2021 2021 2021 2021 2021 
2021 2021 2021 2021 2021 2021 2021 2021 2021 
2021 2021 2021 2021 2021 2021 2021 2021 2021 
2021 2021 2021 2021 2021 2021 2021 2021 2021 
2021 2021 2021 2021 2021 2021 2021 2021 2021 
2021 2021 2021 2021 2021 2021 2021 2021 2021 
2021 2021 2021 2021 2021 2021 2021 2021 2021 
2021 2021 2021 2021 2021 2021 2021 2021 2021 
2021 2021 2021 2021 2021 2021 2021 2021 2021 
2021 2021 2021 2021 2021 2021 2021 2021 2021 
2021 2021 2021 2021 2021 2021 2021 2021 2021 
2021 2021 2021 2021 2021 2021 2021 2021 2021 
2021 2021 2021 2021 2021 2021 2021 2021 2021 
2021 2021 2021 2021 2021 2021 2021 2021 2021 
2021 2021 2021 2021 2021 2021 2021 2021 2021 
2021 2021 2021 2021 2021 2021 2021 2021 2021 
2021 2021 2021 2021 2021 2021 2021 2021 2021 
2021 2021 2021 2021 2021 2021 2021 2021 2021 
2021 2021 2021 2021 2021 2021 2021 2021 2021 
2021 2021 2021 2021 2021 2021 2021 2021 2021 
2021 2021 2021 2021 2021 2021 2021 2021 2021 
2021 2021 2021 2021 2021 2021 2021 2021 2021 
2021 2021 2021 2021 2021 2021 2021 2021 2021 
2021 2021 2021 2021 2021 2021 2021 2021 2021 
2021 2021 2021 2021 2021 2021 2021 2021 2021 
2021 2021 2021 2021 2021 2021 2021 2021 2021 
2021 2021 2021 2021 2021 2021 2021 2021 2021 
2021 2021 2021 2021 2021 2021 2021 2021 2021 
2021 2021 2021 2021 2021 2021 2021 2021 2021 
2021 2021 2021 2021 2021 2021 2021 2021 2021 
2021 2021 2021 2021 2021 2021 2021 2021 2021 
2021 2021 2021 2021 2021 2021 2021 2021 2021 
2021 2021 2021 2021 2021 2021 2021 2021 2021 
2021 2021 2021 2021 2021 2021 2021 2021 2021 
2021 2021 2021 2021 2021 2021 2021 2021 2021 
2021 2021 2021 2021 2021 2021 2021 2021 2021 
2021 2021 2021 2021 2021 2021 2021 2021 2021 
2021 2021 2021 2021 2021 2021 2021 2021 2021 
2021 2021 2021 2021 2021 2021 2021 2021 2021 
2021 2021 2021 2021 2021 2021 2021 2021 2021 
2021 2021 2021 2021 2021 2021 2021 2021 2021 
2021 2021 2021 2021 2021 2021 2021 2021 2021 
2021 2021 2021 2021 2021 2021 2021 2021 2021 
2021 2021 2021 2021 2021 2021 2021 2021 2021 
2021 2021 2021 2021 2021 2021 2021 2021 2021 
2021 2021 2021 2021 2021 2021 2021 2021 2021 
2021 2021 2021 2021 2021 2021 2021 2021 2021 
2021 2021 2021 2021 2021 2021 2021 2021 2021 
2021 2021 2021 2021 2021 2021 2021 2021 2021 
2021 2021 2021 2021 2021 2021 2021 2021 2021 
2021 2021 2021 2021 2021 2021 2021 2021 2021 
2021 2021 2021 2021 2021 2021 2021 2021 2021 
2021 2021 2021 2021 2021 2021 2021 2021 2021 
2021 2021 2021 2021 2021 2021 2021 2021 2021 
2021 2021 2021 2021 2021 2021 2021 2021 2021 
2021 2021 2021 2021 2021 2021 2021 2021 2021 
2021 2021 2021 2021 2021 2021 2021 2021 2021 
2021 2021 2021 2021 2021 2021 2021 2021 2021 
2021 2021 2021 2021 2021 2021 2021 2021 2021 
2021 2021 2021 2021 2021 2021 2021 2021 2021 
2021 2021 2021 2021 2021 2021 2021 2021 2021 
2021 2021 2021 2021 2021 2021 2021 2021 2021 
2021 2021 2021 2021 2021 2021 2021 2021 2021 
2021 2021 2021 2021 2021 2021 2021 2021 2021 
2021 2021 2021 2021 2021 2021 2021 2021 2021 
2021 2021 2021 2021 2021 2021 2021 2021 2021 
2021 2021 2021 2021 2021 2021 2021 2021 2021 
2021 2021 2021 2021 2021 2021 2021 2021 2021 
2021 2021 2021 2021 2021 2021 2021 2021 2021 
2021 2021 2021 2021 2021 2021 2021 2021 2021 
2021 2021 2021 2021 2021 2021 2021 2021 2021 
2021 2021 2021 2021 2021 2021 2021 2021 2021 
2021 2021 2021 2021 2021 2021 2021 2021 2021 
2021 2021 2021 2021 2021 2021 2021 2021 2021 
2021 2021 2021 2021 2021 2021 2021 2021 2021 
2021 2021 2021 2021 2021 2021 2021 2021 2021 
2021 2021 2021 2021 2021 2021 2021 2021 2021 
2021 2021 2021 2021 2021 2021 2021 2021 2021 
2021 2021 2021 2021 2021 2021 2021 2021 2021 
2021 2021 2021 2021 2021 2021 2021 2021 2021 
2021 2021 2021 2021 2021 2021 2021 2021 2021 
2021 2021 2021 2021 2021 2021 2021 2021 2021 
2021 2021 2021 2021 2021 2021 2021 2021 2021 
2021 2021 2021 2021 2021 2021 2021 2021 2021 
2021 2021 2021 2021 2021 2021 2021 2021 2021 
2021 2021 2021 2021 2021 2021 2021 2021 2021 
2021 2021 2021 2021 2021 2021 2021 2021 2021 
2021 2021 2021 2021 2021 2021 2021 2021 2021 
2021 2021 2021 2021 2021 2021 2021 2021 2021 
2021 2021 2021 2021 2021 2021 2021 2021 2021 
2021 2021 2021 2021 2021 2021 2021 2021 2021 
2021 2021 2021 2021 2021 2021 2021 2021 2021 
2021 2021 2021 2021 2021 2021 2021 2021 2021 
2021 2021 2021 2021 2021 2021 2021 2021 2021 
2021 2021 2021 2021 2021 2021 2021 2021 2021 
2021 2021 2021 2021 2021 2021 2021 2021 2021 
2021 2021 2021 2021 2021 2021 2021 2021 2021 
2021 2021 2021 2021 2021 2021 2021 2021 2021 
2021 2021 2021 2021 2021 2021 2021 2021 2021 
2021 2021 2021 2021 2021 2021 2021 2021 2021 
2021 2021 2021 2021 2021 2021 2021 2021 2021 
2021 2021 2021 2021 2021 2021 2021 2021 2021 
2021 2021 2021 2021 2021 2021 2021 2021 2021 
2021 2021 2021 2021 2021 2021 2021 2021 2021 
2021 2021 2021 2021 2021 2021 2021 2021 2021 
2021 2021 2021 2021 2021 2021 2021 2021 2021 
2021 2021 2021 2021 2021 2021 2021 2021 2021 
2021 2021 2021 2021 2021 2021 2021 2021 2021 
2021 2021 2021 2021 2021 2021 2021 2021 2021 
2021 2021 2021 2021 2021 2021 2021 2021 2021 
2021 2021 2021 2021 2021 2021 2021 2021 2021 
2021 2021 2021 2021 2021 2021 2021 2021 2021 
2021 2021 2021 2021 2021 2021 2021 2021 2021 
2021 2021 2021 2021 2021 2021 2021 2021 2021 
2021 2021 2021 2021 2021 2021 2021 2021 2021 
2021 2021 2021 2021 2021 2021 2021 2021 2021 
2021 2021 2021 2021 2021 2021 2021 2021 2021 
2021 2021 2021 2021 2021 2021 2021 2021 2021 
2021 2021 2021 2021 2021 2021 2021 2021 2021 
2021 2021 2021 2021 2021 2021 2021 2021 2021 
2021 2021 2021 2021 2021 2021 2021 2021 2021 
2021 2021 2021 2021 2021 2021 2021 2021 2021 
2021 2021 2021 2021 2021 2021 2021 2021 2021 
2021 2021 2021 2021 2021 2021 2021 2021 2021 
2021 2021 2021 2021 2021 2021 2021 2021 2021 
2021 2021 2021 2021 2021 2021 2021 2021 2021 
2021 2021 2021 2021 2021 2021 2021 2021 2021 
2021 2021 2021 2021 2021 2021 2021 2021 2021 
2021 2021 2021 2021 2021 2021 2021 2021 2021 
2021 2021 2021 2021 2021 2021 2021 2021 2021 
2021 2021 2021 2021 2021 2021 2021 2021 2021 
2021 2021 2021 2021 2021 2021 2021 2021 2021 
2021 2021 2021 2021 2021 2021 2021 2021 2021 
2021 2021 2021 2021 2021 2021 2021 2021 2021 
2021 2021 2021 2021 2021 2021 2021 2021 2021 
2021 2021 2021 2021 2021 2021 2021 2021 2021 
2021 2021 2021 2021 2021 2021 2021 2021 2021 
2021 2021 2021 2021 2021 2021 2021 2021 2021 
2021 2021 2021 2021 2021 2021 2021 2021 2021 
2021 2021 2021 2021 2021 2021 2021 2021 2021 
2021 2021 2021 2021 2021 2021 2021 2021 2021 
2021 2021 2021 2021 2021 2021 2021 2021 2021 
2021 2021 2021 2021 2021 2021 2021 2021 2021 
2021 2021 2021 2021 2021 2021 2021 2021 2021 
2021 2021 2021 2021 2021 2021 2021 2021 2021 
2021 2021 2021 2021 2021 2021 2021 2021 2021 
2021 2021 2021 2021 2021 2021 2021 2021 2021 
2021 2021 2021 2021 2021 2021 2021 2021 2021 
2021 2021 2021 2021 2021 2021 2021 2021 2021 
2021 2021 2021 2021 2021 2021 2021 2021 2021 
2021 2021 2021 2021 2021 2021 2021 2021 2021 
2021 2021 2021 2021 2021 2021 2021 2021 2021 
2021 2021 2021 2021 2021 2021 2021 2021 2021 
2021 2021 2021 2021 2021 2021 2021 2021 2021 
2021 2021 2021 2021 2021 2021 2021 2021 2021 
2021 2021 2021 2021 2021 2021 2021 2021 2021 
2021 2021 2021 2021 2021 2021 2021 2021 2021 
2021 2021 2021 2021 2021 2021 2021 2021 2021 
2021 2021 2021 2021 2021 2021 2021 2021 2021 
2021 2021 2021 2021 2021 2021 2021 2021 2021 
2021 2021 2021 2021 2021 2021 2021 2021 2021 
2021 2021 2021 2021 2021 2021 2021 2021 2021 
2021 2021 2021 2021 2021 2021 2021 2021 2021 
2021 2021 2021 2021 2021 2021 2021 2021 2021 
2021 2021 2021 2021 2021 2021 2021 2021 2021 
2021 2021 2021 2021 2021 2021 2021 2021 2021 
2021 2021 2021 2021 2021 2021 2021 2021 2021 
2021 2021 2021 2021 2021 2021 2021 2021 2021 
2021 2021 2021 2021 2021 2021 2021 2021 2021 
2021 2021 2021 2021 2021 2021 2021 2021 2021 
2021 2021 2021 2021 2021 2021 2021 2021 2021 
2021 2021 2021 2021 2021 2021 2021 2021 2021 
2021 2021 2021 2021 2021 2021 2021 2021 2021 
2021 2021 2021 2021 2021 2021 2021 2021 2021 
2021 2021 2021 2021 2021 2021 2021 2021 2021 
2021 2021 2021 2021 2021 2021 2021 2021 2021 
2021 2021 2021 2021 2021 2021 2021 2021 2021 
2021 2021 2021 2021 2021 2021 2021 2021 2021 
2021 2021 2021 2021 2021 2021 2021 2021 2021 
2021 2021 2021 2021 2021 2021 2021 2021 2021 
2021 2021 2021 2021 2021 2021 2021 2021 2021 
2021 2021 2021 2021 2021 2021 2021 2021 2021 
2021 2021 2021 2021 2021 2021 2021 2021 2021 
2021 2021 2021 2021 2021 2021 2021 2021 2021 
2021 2021 2021 2021 2021 2021 2021 2021 2021 
2021 2021 2021 2021 2021 2021 2021 2021 2021 
2021 2021 2021 2021 2021 2021 2021 2021 2021 
2021 2021 2021 2021 2021 2021 2021 2021 2021 
2021 2021 2021 2021 2021 2021 2021 2021 2021 
2021 2021 2021 2021 2021 2021 2021 2021 2021 
2021 2021 2021 2021 2021 2021 2021 2021 2021 
2021 2021 2021 2021 2021 2021 2021 2021 2021 
2021 2021 2021 2021 2021 2021 2021 2021 2021 
2021 2021 2021 2021 2021 2021 2021 2021 2021 
2021 2021 2021 2021 2021 2021 2021 2021 2021 
2021 2021 2021 2021 2021 2021 2021 2021 2021 
2021 2021 2021 2021 2021 2021 2021 2021 2021 
2021 2021 2021 2021 2021 2021 2021 2021 2021 
2021 2021 2021 2021 2021 2021 2021 2021 2021 
2021 2021 2021 2021 2021 2021 2021 2021 2021 
2021 2021 2021 2021 2021 2021 2021 2021 2021 
2021 2021 2021 2021 2021 2021 2021 2021 2021 
2021 2021 2021 2021 2021 2021 2021 2021 2021 
2021 2021 2021 2021 2021 2021 2021 2021 2021 
2021 2021 2021 2021 2021 2021 2021 2021 2021 
2021 2021 2021 2021 2021 2021 2021 2021 2021 
2021 2021 2021 2021 2021 2021 2021 2021 2021 
2021 2021 2021 2021 2021 2021 2021 2021 2021 
2021 2021 2021 2021 2021 2021 2021 2021 2021 
2021 2021 2021 2021 2021 2021 2021 2021 2021 
2021 2021 2021 2021 2021 2021 2021 2021 2021 
2021 2021 2021 2021 2021 2021 2021 2021 2021 
2021 2021 2021 2021 2021 2021 2021 2021 2021 
2021 2021 2021 2021 2021 2021 2021 2021 2021 
2021 2021 2021 2021 2021 2021 2021 2021 2021 
2021 2021 2021 2021 2021 2021 2021 2021 2021 
2021 2021 2021 2021 2021 2021 2021 2021 2021 
2021 2021 2021 2021 2021 2021 2021 2021 2021 
2021 2021 2021 2021 2021 2021 2021 2021 2021 
2021 2021 2021 2021 2021 2021 2021 2021 2021 
2021 2021 2021 2021 2021 2021 2021 2021 2021 
2021 2021 2021 2021 2021 2021 2021 2021 2021 
2021 2021 2021 2021 2021 2021 2021 2021 2021 
2021 2021 2021 2021 2021 2021 2021 2021 2021 
2021 2021 2021 2021 2021 2021 2021 2021 2021 
2021 2021 2021 2021 2021 2021 2021 2021 2021 
2021 2021 2021 2021 2021 2021 2021 2021 2021 
2021 2021 2021 2021 2021 2021 2021 2021 2021 
2021 2021 2021 2021 2021 2021 2021 2021 2021 
2021 2021 2021 2021 2021 2021 2021 2021 2021 
2021 2021 2021 2021 2021 2021 2021 2021 2021 
2021 2021 2021 2021 2021 2021 2021 2021 2021 
2021 2021 2021 2021 2021 2021 2021 2021 2021 
2021 2021 2021 2021 2021 2021 2021 2021 2021 
2021 2021 2021 2021 2021 2021 2021 2021 2021 
2021 2021 2021 2021 2021 2021 2021 2021 2021 
2021 2021 2021 2021 2021 2021 2021 2021 2021 
2021 2021 2021 2021 2021 2021 2021 2021 2021 
2021 2021 2021 2021 2021 2021 2021 2021 2021 
2021 2021 2021 2021 2021 2021 2021 2021 2021 
2021 2021 2021 2021 2021 2021 2021 2021 2021 
2021 2021 2021 2021 2021 2021 2021 2021 2021 
2021 2021 2021 2021 2021 2021 2021 2021 2021 
2021 2021 2021 2021 2021 2021 2021 2021 2021 
2021 2021 2021 2021 2021 2021 2021 2021 2021 
2021 2021 2021 2021 2021 2021 2021 2021 2021 
2021 2021 2021 2021 2021 2021 2021 2021 2021 
2021 2021 2021 2021 2021 2021 2021 2021 2021 
2021 2021 2021 2021 2021 2021 2021 2021 2021 
2021 2021 2021 2021 2021 2021 2021 2021 2021 
2021 2021 2021 2021 2021 2021 2021 2021 2021 
2021 2021 2021 2021 2021 2021 2021 2021 2021 
2021 2021 2021 2021 2021 2021 2021 2021 2021 
2021 2021 2021 2021 2021 2021 2021 2021 2021 
2021 2021 2021 2021 2021 2021 2021 2021 2021 
2021 2021 2021 2021 2021 2021 2021 2021 2021 
2021 2021 2021 2021 2021 2021 2021 2021 2021 
2021 2021 2021 2021 2021 2021 2021 2021 2021 
2021 2021 2021 2021 2021 2021 2021 2021 2021 
2021 2021 2021 2021 2021 2021 2021 2021 2021 
2021 2021 2021 2021 2021 2021 2021 2021 2021 
2021 2021 2021 2021 2021 2021 2021 2021 2021 
2021 2021 2021 2021 2021 2021 2021 2021 2021 
2021 2021 2021 2021 2021 2021 2021 2021 2021 
2021 2021 2021 2021 2021 2021 2021 2021 2021 
2021 2021 2021 2021 2021 2021 2021 2021 2021 
2021 2021 2021 2021 2021 2021 2021 2021 2021 
2021 2021 2021 2021 2021 2021 2021 2021 2021 
2021 2021 2021 2021 2021 2021 2021 2021 2021 
2021 2021 2021 2021 2021 2021 2021 2021 2021 
2021 2021 2021 2021 2021 2021 2021 2021 2021 
2021 2021 2021 2021 2021 2021 2021 2021 2021 
2021 2021 2021 2021 2021 2021 2021 2021 2021 
2021 2021 2021 2021 2021 2021 2021 2021 2021 
2021 2021 2021 2021 2021 2021 2021 2021 2021 
2021 2021 2021 2021 2021 2021 2021 2021 2021 
2021 2021 2021 2021 2021 2021 2021 2021 2021 
2021 2021 2021 2021 2021 2021 2021 2021 2021 
2021 2021 2021 2021 2021 2021 2021 2021 2021 
2021 2021 2021 2021 2021 2021 2021 2021 2021 
2021 2021 2021 2021 2021 2021 2021 2021 2021 
2021 2021 2021 2021 2021 2021 2021 2021 2021 
2021 2021 2021 2021 2021 2021 2021 2021 2021 
2021 2021 2021 2021 2021 2021 2021 2021 2021 
2021 2021 2021 2021 2021 2021 2021 2021 2021 
2021 2021 2021 2021 2021 2021 2021 2021 2021 
2021 2021 2021 2021 2021 2021 2021 2021 2021 
2021 2021 2021 2021 2021 2021 2021 2021 2021 
2021 2021 2021 2021 2021 2021 2021 2021 2021 
2021 2021 2021 2021 2021 2021 2021 2021 2021 
2021 2021 2021 2021 2021 2021 2021 2021 2021 
2021 2021 2021 2021 2021 2021 2021 2021 2021 
2021 2021 2021 2021 2021 2021 2021 2021 2021 
2021 2021 2021 2021 2021 2021 2021 2021 2021 
2021 2021 2021 2021 2021 2021 2021 2021 2021 
2021 2021 2021 2021 2021 2021 2021 2021 2021 
2021 2021 2021 2021 2021 2021 2021 2021 2021 
2021 2021 2021 2021 2021 2021 2021 2021 2021 
2021 2021 2021 2021 2021 2021 2021 2021 2021 
2021 2021 2021 2021 2021 2021 2021 2021 2021 
2021 2021 2021 2021 2021 2021 2021 2021 2021 
2021 2021 2021 2021 2021 2021 2021 2021 2021 
2021 2021 2021 2021 2021 2021 2021 2021 2021 
2021 2021 2021 2021 2021 2021 2021 2021 2021 
2021 2021 2021 2021 2021 2021 2021 2021 2021 
2021 2021 2021 2021 2021 2021 2021 2021 2021 
2021 2021 2021 2021 2021 2021 2021 2021 2021 
2021 2021 2021 2021 2021 2021 2021 2021 2021 
2021 2021 2021 2021 2021 2021 2021 2021 2021 
2021 2021 2021 2021 2021 2021 2021 2021 2021 
2021 2021 2021 2021 2021 2021 2021 2021 2021 
2021 2021 2021 2021 2021 2021 2021 2021 2021 
2021 2021 2021 2021 2021 2021 2021 2021 2021 
2021 2021 2021 2021 2021 2021 2021 2021 2021 
2021 2021 2021 2021 2021 2021 2021 2021 2021 
2021 2021 2021 2021 2021 2021 2021 2021 2021 
2021 2021 2021 2021 2021 2021 2021 2021 2021 
2021 2021 2021 2021 2021 2021 2021 2021 2021 
2021 2021 2021 2021 2021 2021 2021 2021 2021 
2021 2021 2021 2021 2021 2021 2021 2021 2021 
2021 2021 2021 2021 2021 2021 2021 2021 2021 
2021 2021 2021 2021 2021 2021 2021 2021 2021 
2021 2021 2021 2021 2021 2021 2021 2021 2021 
2021 2021 2021 2021 2021 2021 2021 2021 2021 
2021 2021 2021 2021 2021 2021 2021 2021 2021 
2021 2021 2021 2021 2021 2021 2021 2021 2021 
2021 2021 2021 2021 2021 2021 2021 2021 2021 
2021 2021 2021 2021 2021 2021 2021 2021 2021 
2021 2021 2021 2021 2021 2021 2021 2021 2021 
2021 2021 2021 2021 2021 2021 2021 2021 2021 
2021 2021 2021 2021 2021 2021 2021 2021 2021 
2021 2021 2021 2021 2021 2021 2021 2021 2021 
2021 2021 2021 2021 2021 2021 2021 2021 2021 
2021 2021 2021 2021 2021 2021 2021 2021 2021 
2021 2021 2021 2021 2021 2021 2021 2021 2021 
2021 2021 2021 2021 2021 2021 2021 2021 2021 
2021 2021 2021 2021 2021 2021 2021 2021 2021 
2021 2021 2021 2021 2021 2021 2021 2021 2021 
2021 2021 2021 2021 2021 2021 2021 2021 2021 
2021 2021 2021 2021 2021 2021 2021 2021 2021 
2021 2021 2021 2021 2021 2021 2021 2021 2021 
2021 2021 2021 2021 2021 2021 2021 2021 2021 
2021 2021 2021 2021 2021 2021 2021 2021 2021 
2021 2021 2021 2021 2021 2021 2021 2021 2021 
2021 2021 2021 2021 2021 2021 2021 2021 2021 
2021 2021 2021 2021 2021 2021 2021 2021 2021 
2021 2021 2021 2021 2021 2021 2021 2021 2021 
2021 2021 2021 2021 2021 2021 2021 2021 2021 
2021 2021 2021 2021 2021 2021 2021 2021 2021 
2021 2021 2021 2021 2021 2021 2021 2021 2021 
2021 2021 2021 2021 2021 2021 2021 2021 2021 
2021 2021 2021 2021 2021 2021 2021 2021 2021 
2021 2021 2021 2021 2021 2021 2021 2021 2021 
2021 2021 2021 2021 2021 2021 2021 2021 2021 
2021 2021 2021 2021 2021 2021 2021 2021 2021 
2021 2021 2021 2021 2021 2021 2021 2021 2021 
2021 2021 2021 2021 2021 2021 2021 2021 2021 
2021 2021 2021 2021 2021 2021 2021 2021 2021 
2021 2021 2021 2021 2021 2021 2021 2021 2021 
2021 2021 2021 2021 2021 2021 2021 2021 2021 
2021 2021 2021 2021 2021 2021 2021 2021 2021 
2021 2021 2021 2021 2021 2021 2021 2021 2021 
2021 2021 2021 2021 2021 2021 2021 2021 2021 
2021 2021 2021 2021 2021 2021 2021 2021 2021 