# vtk DataFile Version 4.2
vtk output
ASCII
DATASET POLYDATA
POINTS 1242 float
-9.58468 -34.5743 -0.0759018 -9.35724 -34.2992 -0.317894 -9.13467 -34.7009 -0.280994 
-10.16 -34.5756 -0.0218536 -9.87729 -34.1884 -0.258554 -10.6312 -34.626 -0.0859817 
-10.4679 -34.2266 -0.248941 -10.8611 -34.4383 -0.296494 -9.38147 -34.9596 -0.114459 
-9.18497 -35.16 -0.324756 -9.84544 -35.0088 -0.0338196 -10.4299 -35.0189 -0.0686508 
-10.8871 -34.9062 -0.260348 -9.59088 -35.3725 -0.262093 -10.1775 -35.4221 -0.247472 
-10.6856 -35.3223 -0.299442 -7.78891 -32.1436 -0.677701 -7.53825 -31.8472 -0.902802 
-7.31196 -32.2525 -0.85703 -8.31794 -32.2165 -0.682608 -8.01001 -31.8057 -0.871504 
-8.46185 -31.9777 -0.911151 -7.59088 -32.7338 -0.629398 -7.16334 -32.7157 -0.816202 
-8.21794 -32.6858 -0.573216 -8.70701 -32.3394 -0.834114 -8.7316 -32.7372 -0.705569 
-9.00264 -32.6604 -0.942302 -7.17751 -33.2406 -0.679289 -6.96358 -32.9754 -0.866684 
-6.75218 -33.3791 -0.914108 -7.6791 -33.3795 -0.579689 -8.18611 -33.2961 -0.571889 
-8.84372 -33.338 -0.660297 -9.16431 -33.1326 -0.91675 -7.05535 -33.8859 -0.661414 
-6.67483 -34.0368 -0.87626 -7.58137 -33.8919 -0.589142 -8.18318 -33.8959 -0.583681 
-8.71377 -33.8052 -0.592447 -9.38698 -33.5358 -0.871683 -9.4128 -33.9006 -0.599785 
-10.193 -33.8894 -0.590067 -9.87952 -33.6193 -0.92596 -10.8258 -33.9963 -0.586629 
-10.4889 -33.5923 -0.92032 -11.2507 -34.0265 -0.746791 -11.049 -33.632 -0.91273 
-11.4409 -33.8335 -0.951274 -7.05996 -34.4848 -0.654149 -6.69166 -34.629 -0.873207 
-7.57841 -34.4883 -0.586803 -8.18792 -34.496 -0.590524 -8.83 -34.3362 -0.521983 
-11.1834 -34.5489 -0.580074 -11.542 -34.3204 -0.895775 -7.09377 -35.0976 -0.638681 
-6.70213 -35.2557 -0.851509 -7.61855 -35.0949 -0.568748 -8.21853 -35.1201 -0.584637 
-8.80946 -35.0541 -0.518115 -11.1364 -35.2777 -0.577588 -11.5315 -34.933 -0.884811 
-7.08408 -35.7273 -0.62011 -6.67512 -35.886 -0.838449 -7.61826 -35.7119 -0.54976 
-8.22741 -35.7285 -0.571101 -8.81577 -35.723 -0.590231 -9.3656 -35.6913 -0.518207 
-10.0134 -35.8124 -0.488795 -10.6908 -35.7546 -0.510791 -11.214 -35.8103 -0.69126 
-11.5349 -35.545 -0.8929 -6.98371 -36.2027 -0.696007 -6.67509 -36.3383 -0.946353 
-7.45358 -36.2339 -0.631979 -8.06365 -36.2425 -0.639015 -8.6757 -36.2407 -0.673169 
-9.2584 -36.2309 -0.684164 -9.83621 -36.2348 -0.682965 -10.4447 -36.2429 -0.675655 
-11.0174 -36.2247 -0.722964 -11.4824 -36.1015 -0.896516 -7.09019 -36.5264 -0.99689 
-7.70938 -36.5251 -0.858907 -8.30927 -36.62 -0.927818 -9.0083 -36.6162 -0.883314 
-9.60021 -36.6139 -0.895683 -10.1898 -36.619 -0.895679 -10.7871 -36.612 -0.892136 
-11.2765 -36.5048 -0.930556 -9.60939 -30.3459 -1.29641 -9.38852 -30.0845 -1.6999 
-9.14652 -30.4634 -1.48486 -10.1562 -30.3394 -1.22979 -10.016 -30.0505 -1.55874 
-10.7087 -30.4214 -1.27703 -10.552 -30.0985 -1.53799 -10.9438 -30.2484 -1.56583 
-9.39133 -30.9351 -1.2467 -8.98207 -30.9081 -1.44759 -9.97202 -30.8404 -1.15304 
-10.57 -30.8584 -1.14663 -11.2477 -30.5023 -1.51715 -11.2647 -30.8706 -1.21984 
-11.977 -30.9665 -1.22143 -11.8122 -30.6585 -1.53385 -12.4249 -31.0075 -1.29735 
-12.2829 -30.7332 -1.46025 -12.5945 -30.8704 -1.60633 -7.12503 -31.4577 -1.31879 
-6.98634 -31.1829 -1.56085 -6.82153 -31.5098 -1.56718 -7.64136 -31.5423 -1.16742 
-7.43332 -31.1785 -1.47287 -8.37045 -31.5828 -1.19119 -8.04333 -31.2016 -1.48537 
-8.976 -31.4527 -1.27444 -8.60303 -31.1364 -1.50349 -9.48146 -31.5672 -1.20714 
-9.96683 -31.4691 -1.1812 -10.568 -31.4661 -1.16688 -11.1889 -31.4795 -1.15592 
-11.8155 -31.4946 -1.14659 -12.3583 -31.4779 -1.22309 -12.7435 -31.3125 -1.55567 
-7.1054 -31.8887 -1.1793 -6.78323 -32.0675 -1.57317 -8.88427 -32.1251 -1.09477 
-9.40522 -32.1054 -1.21746 -9.98706 -32.0925 -1.2175 -10.5982 -32.0883 -1.20606 
-11.2165 -32.1007 -1.18632 -11.8197 -32.1209 -1.16855 -12.3457 -32.1054 -1.22937 
-12.7441 -31.9571 -1.44777 -6.89366 -32.6377 -1.11913 -6.63379 -32.6482 -1.54158 
-9.41992 -32.79 -1.15244 -10.0088 -32.7046 -1.23532 -10.6277 -32.6949 -1.2218 
-11.2397 -32.7052 -1.20245 -11.8359 -32.7253 -1.19032 -12.3576 -32.721 -1.25254 
-12.7469 -32.5791 -1.45336 -6.52263 -33.1698 -1.27116 -6.42878 -33.0134 -1.51214 
-6.1856 -33.4152 -1.5224 -9.57138 -33.3303 -1.0833 -10.0229 -33.2448 -1.15723 
-10.6243 -33.2123 -1.14729 -11.2732 -33.3274 -1.13253 -11.8439 -33.3249 -1.19079 
-12.3533 -33.3149 -1.26378 -12.7354 -33.18 -1.46272 -6.40382 -33.7466 -1.18883 
-6.09487 -34.0765 -1.46835 -11.8402 -33.9731 -1.12393 -12.3411 -33.9063 -1.27102 
-12.7258 -33.7663 -1.4683 -6.39627 -34.3375 -1.17995 -6.0979 -34.6804 -1.48268 
-11.9104 -34.6616 -1.11578 -12.3328 -34.5048 -1.2809 -12.7197 -34.3432 -1.47703 
-6.40294 -34.9395 -1.17921 -6.09739 -35.2948 -1.56777 -11.9094 -35.2662 -1.12034 
-12.3277 -35.1003 -1.29269 -12.7107 -34.9255 -1.49124 -6.38476 -35.5666 -1.1509 
-6.16846 -35.8321 -1.46737 -11.9054 -35.8691 -1.11145 -12.3307 -35.6952 -1.2937 
-12.7103 -35.5195 -1.50361 -6.37055 -36.1438 -1.18676 -6.19152 -36.2587 -1.67026 
-11.8108 -36.4995 -1.10466 -12.338 -36.3086 -1.2802 -12.7219 -36.1254 -1.50162 
-6.57599 -36.5315 -1.43874 -6.98652 -36.6337 -1.45558 -7.57043 -36.7155 -1.34636 
-8.23586 -37.0068 -1.1947 -7.85412 -37.1122 -1.57604 -8.82415 -36.9986 -1.0865 
-9.4292 -36.9933 -1.09865 -10.0167 -36.9918 -1.10935 -10.6159 -36.9934 -1.09995 
-11.2949 -36.9261 -1.09542 -11.9055 -37.0408 -1.15794 -12.3387 -36.9236 -1.25663 
-12.7389 -36.7509 -1.48157 -8.19655 -37.3777 -1.31918 -8.03064 -37.5133 -1.62438 
-8.64156 -37.4189 -1.24396 -9.23535 -37.4221 -1.26307 -9.84242 -37.4118 -1.28488 
-10.4384 -37.4123 -1.27584 -11.0353 -37.4139 -1.26794 -11.6483 -37.4268 -1.25849 
-12.2192 -37.4338 -1.30069 -12.6879 -37.3278 -1.47451 -8.39125 -37.6861 -1.53628 
-8.89902 -37.7116 -1.47483 -9.48936 -37.8038 -1.54851 -10.1984 -37.7942 -1.48883 
-10.7872 -37.7982 -1.49734 -11.384 -37.7899 -1.60201 -11.9755 -37.7252 -1.5779 
-12.5515 -37.6983 -1.63519 -8.3331 -30.4319 -1.89985 -8.13762 -30.1045 -2.13787 
-7.84649 -30.3943 -2.06114 -8.87059 -30.2824 -1.75565 -8.732 -29.9963 -2.03568 
-9.30186 -29.8796 -2.09269 -9.84758 -29.896 -2.00776 -10.4335 -29.8925 -1.97676 
-11.2939 -30.334 -1.82796 -11.0086 -30.0235 -1.97076 -11.4763 -30.219 -2.12919 
-7.1688 -30.8847 -1.8114 -6.86886 -30.7042 -2.24512 -6.71473 -31.0702 -1.97117 
-7.77773 -30.8025 -1.79052 -7.39026 -30.5475 -2.1869 -8.31207 -30.8808 -1.71366 
-8.72987 -30.6812 -1.67313 -11.7759 -30.4969 -2.01137 -12.412 -30.6591 -2.00147 
-12.8304 -30.9171 -2.03362 -6.62111 -31.6356 -2.00607 -13.0005 -31.2404 -1.97843 
-13.0283 -31.6988 -1.81179 -13.2007 -31.3608 -2.25039 -6.60602 -32.2181 -1.95011 
-13.0337 -32.2971 -1.76874 -13.2274 -31.9281 -2.1815 -6.37156 -32.7867 -1.80426 
-6.44409 -32.4099 -2.10018 -6.12944 -32.684 -2.09683 -13.0175 -32.9039 -1.77529 
-13.2127 -32.5449 -2.18353 -5.34829 -33.3783 -1.89733 -5.13972 -32.9764 -2.18345 
-4.94579 -33.3212 -2.16573 -5.88219 -33.2025 -1.8221 -5.59591 -32.9386 -2.09205 
-13.0159 -33.4939 -1.77733 -13.2073 -33.1465 -2.19238 -5.23314 -33.9194 -1.84099 
-4.89588 -33.9 -2.17703 -5.71921 -33.7752 -1.6842 -13.1261 -34.0922 -1.77628 
-13.3345 -33.7109 -2.21231 -5.23557 -34.4959 -1.90209 -4.95853 -34.4449 -2.3072 
-5.69018 -34.3808 -1.67505 -13.097 -34.6781 -1.68988 -13.6547 -34.1375 -2.19816 
-13.5478 -34.5443 -1.89684 -13.9368 -34.5048 -2.16169 -5.32488 -34.846 -2.18265 
-5.64919 -35.093 -2.18441 -5.70365 -34.9435 -1.81519 -13.0981 -35.2697 -1.7018 
-13.5326 -35.0912 -1.85424 -13.9288 -34.9402 -2.07038 -5.86005 -35.291 -1.98581 
-6.02737 -35.6599 -2.05836 -13.1042 -35.8757 -1.71168 -13.5341 -35.6994 -1.87193 
-13.9159 -35.5305 -2.07644 -6.14177 -36.2594 -2.27363 -13.1207 -36.4949 -1.70635 
-13.5409 -36.3112 -1.87758 -13.9093 -36.1423 -2.0957 -6.46046 -36.5715 -2.08021 
-7.01074 -36.6913 -1.90822 -7.49737 -36.8554 -1.83333 -7.34659 -36.899 -2.31264 
-13.109 -37.1045 -1.69744 -13.5432 -36.9198 -1.87688 -13.9281 -36.7448 -2.09493 
-7.64652 -37.0945 -2.05479 -7.89306 -37.4522 -2.15306 -12.992 -37.5428 -1.73029 
-13.4348 -37.4475 -1.90728 -13.9029 -37.3116 -2.0862 -8.19511 -37.725 -1.96112 
-8.76863 -37.9146 -1.93771 -9.42752 -38.2053 -1.79722 -9.04153 -38.3173 -2.17028 
-10.0364 -38.1936 -1.67829 -10.6338 -38.205 -1.68951 -11.1439 -38.1747 -1.80309 
-11.5323 -38.0802 -2.0157 -11.8758 -37.9085 -2.01817 -12.423 -37.8809 -2.01548 
-13.0882 -37.8168 -2.0239 -13.6857 -37.7061 -2.1218 -9.39429 -38.5659 -1.90825 
-9.24252 -38.6976 -2.22151 -9.93245 -38.7011 -1.81153 -10.4967 -38.628 -1.75934 
-11.0069 -38.7494 -1.88732 -11.4799 -38.5087 -2.11031 -9.59906 -38.8891 -2.11405 
-10.0415 -39.0858 -2.03149 -10.3422 -39.3495 -2.24742 -10.5293 -39.1362 -1.89575 
-10.9708 -39.2573 -2.01687 -11.317 -38.9933 -2.12244 -10.7759 -39.4979 -2.19788 
-8.28061 -29.1944 -2.47514 -8.26978 -28.8849 -2.85591 -7.87894 -29.2062 -2.74503 
-8.97554 -29.1491 -2.4563 -8.77512 -28.8324 -2.74674 -9.58736 -29.1715 -2.4575 
-9.38648 -28.8519 -2.74265 -10.1435 -29.2516 -2.50995 -9.85885 -28.9459 -2.67633 
-10.2667 -29.111 -2.88039 -7.74283 -29.5519 -2.49772 -7.6292 -29.5255 -2.7754 
-7.47215 -29.8935 -2.71694 -8.17537 -29.7341 -2.29194 -8.7929 -29.597 -2.28983 
-9.42174 -29.591 -2.29865 -10.0284 -29.5966 -2.29293 -10.6766 -29.3634 -2.79154 
-10.6956 -29.6154 -2.37178 -11.3954 -29.8058 -2.3787 -11.241 -29.4745 -2.7634 
-11.8211 -29.8381 -2.54119 -11.682 -29.5487 -2.68497 -11.9713 -29.6903 -2.84125 
-7.67749 -30.0851 -2.35041 -7.35289 -30.2939 -2.61827 -11.8246 -30.2191 -2.39417 
-12.1589 -30.095 -2.80293 -6.47741 -30.8606 -2.38935 -6.52691 -30.6844 -2.80912 
-6.25757 -30.984 -2.69312 -7.05255 -30.5127 -2.69244 -12.3102 -30.4772 -2.52815 
-13.0846 -30.9752 -2.34607 -12.9644 -30.596 -2.7159 -13.3301 -30.9507 -2.69452 
-6.39382 -31.2898 -2.38512 -6.17125 -31.4692 -2.76881 -13.4034 -31.4534 -2.61814 
-6.33403 -32.0432 -2.34716 -5.98824 -32.1872 -2.84072 -13.3827 -32.0642 -2.61231 
-5.35 -32.6489 -2.42931 -5.31075 -32.5389 -2.74304 -4.99401 -32.7933 -2.54477 
-5.86577 -32.5191 -2.38956 -5.65041 -32.4583 -2.66066 -13.3663 -32.6833 -2.63547 
[...]
CELL_DATA 2480
SCALARS scalars float
LOOKUP_TABLE default
18 18 18 18 18 18 18 18 18 
18 18 18 18 18 18 18 18 18 
18 18 18 18 18 18 18 18 18 
18 18 18 18 18 18 18 18 18 
18 18 18 18 18 18 18 18 18 
18 18 18 18 18 18 18 18 18 
18 18 18 18 18 18 18 18 18 
18 18 18 18 18 18 18 18 18 
18 18 18 18 18 18 18 18 18 
18 18 18 18 18 18 18 18 18 
18 18 18 18 18 18 18 18 18 
18 18 18 18 18 18 18 18 18 
18 18 18 18 18 18 18 18 18 
18 18 18 18 18 18 18 18 18 
18 18 18 18 18 18 18 18 18 
18 18 18 18 18 18 18 18 18 
18 18 18 18 18 18 18 18 18 
18 18 18 18 18 18 18 18 18 
18 18 18 18 18 18 18 18 18 
18 18 18 18 18 18 18 18 18 
18 18 18 18 18 18 18 18 18 
18 18 18 18 18 18 18 18 18 
18 18 18 18 18 18 18 18 18 
18 18 18 18 18 18 18 18 18 
18 18 18 18 18 18 18 18 18 
18 18 18 18 18 18 18 18 18 
18 18 18 18 18 18 18 18 18 
18 18 18 18 18 18 18 18 18 
18 18 18 18 18 18 18 18 18 
18 18 18 18 18 18 18 18 18 
18 18 18 18 18 18 18 18 18 
18 18 18 18 18 18 18 18 18 
18 18 18 18 18 18 18 18 18 
18 18 18 18 18 18 18 18 18 
18 18 18 18 18 18 18 18 18 
18 18 18 18 18 18 18 18 18 
18 18 18 18 18 18 18 18 18 
18 18 18 18 18 18 18 18 18 
18 18 18 18 18 18 18 18 18 
18 18 18 18 18 18 18 18 18 
18 18 18 18 18 18 18 18 18 
18 18 18 18 18 18 18 18 18 
18 18 18 18 18 18 18 18 18 
18 18 18 18 18 18 18 18 18 
18 18 18 18 18 18 18 18 18 
18 18 18 18 18 18 18 18 18 
18 18 18 18 18 18 18 18 18 
18 18 18 18 18 18 18 18 18 
18 18 18 18 18 18 18 18 18 
18 18 18 18 18 18 18 18 18 
18 18 18 18 18 18 18 18 18 
18 18 18 18 18 18 18 18 18 
18 18 18 18 18 18 18 18 18 
18 18 18 18 18 18 18 18 18 
18 18 18 18 18 18 18 18 18 
18 18 18 18 18 18 18 18 18 
18 18 18 18 18 18 18 18 18 
18 18 18 18 18 18 18 18 18 
18 18 18 18 18 18 18 18 18 
18 18 18 18 18 18 18 18 18 
18 18 18 18 18 18 18 18 18 
18 18 18 18 18 18 18 18 18 
18 18 18 18 18 18 18 18 18 
18 18 18 18 18 18 18 18 18 
18 18 18 18 18 18 18 18 18 
18 18 18 18 18 18 18 18 18 
18 18 18 18 18 18 18 18 18 
18 18 18 18 18 18 18 18 18 
18 18 18 18 18 18 18 18 18 
18 18 18 18 18 18 18 18 18 
18 18 18 18 18 18 18 18 18 
18 18 18 18 18 18 18 18 18 
18 18 18 18 18 18 18 18 18 
18 18 18 18 18 18 18 18 18 
18 18 18 18 18 18 18 18 18 
18 18 18 18 18 18 18 18 18 
18 18 18 18 18 18 18 18 18 
18 18 18 18 18 18 18 18 18 
18 18 18 18 18 18 18 18 18 
18 18 18 18 18 18 18 18 18 
18 18 18 18 18 18 18 18 18 
18 18 18 18 18 18 18 18 18 
18 18 18 18 18 18 18 18 18 
18 18 18 18 18 18 18 18 18 
18 18 18 18 18 18 18 18 18 
18 18 18 18 18 18 18 18 18 
18 18 18 18 18 18 18 18 18 
18 18 18 18 18 18 18 18 18 
18 18 18 18 18 18 18 18 18 
18 18 18 18 18 18 18 18 18 
18 18 18 18 18 18 18 18 18 
18 18 18 18 18 18 18 18 18 
18 18 18 18 18 18 18 18 18 
18 18 18 18 18 18 18 18 18 
18 18 18 18 18 18 18 18 18 
18 18 18 18 18 18 18 18 18 
18 18 18 18 18 18 18 18 18 
18 18 18 18 18 18 18 18 18 
18 18 18 18 18 18 18 18 18 
18 18 18 18 18 18 18 18 18 
18 18 18 18 18 18 18 18 18 
18 18 18 18 18 18 18 18 18 
18 18 18 18 18 18 18 18 18 
18 18 18 18 18 18 18 18 18 
18 18 18 18 18 18 18 18 18 
18 18 18 18 18 18 18 18 18 
18 18 18 18 18 18 18 18 18 
18 18 18 18 18 18 18 18 18 
18 18 18 18 18 18 18 18 18 
18 18 18 18 18 18 18 18 18 
18 18 18 18 18 18 18 18 18 
18 18 18 18 18 18 18 18 18 
18 18 18 18 18 18 18 18 18 
18 18 18 18 18 18 18 18 18 
18 18 18 18 18 18 18 18 18 
18 18 18 18 18 18 18 18 18 
18 18 18 18 18 18 18 18 18 
18 18 18 18 18 18 18 18 18 
18 18 18 18 18 18 18 18 18 
18 18 18 18 18 18 18 18 18 
18 18 18 18 18 18 18 18 18 
18 18 18 18 18 18 18 18 18 
18 18 18 18 18 18 18 18 18 
18 18 18 18 18 18 18 18 18 
18 18 18 18 18 18 18 18 18 
18 18 18 18 18 18 18 18 18 
18 18 18 18 18 18 18 18 18 
18 18 18 18 18 18 18 18 18 
18 18 18 18 18 18 18 18 18 
18 18 18 18 18 18 18 18 18 
18 18 18 18 18 18 18 18 18 
18 18 18 18 18 18 18 18 18 
18 18 18 18 18 18 18 18 18 
18 18 18 18 18 18 18 18 18 
18 18 18 18 18 18 18 18 18 
18 18 18 18 18 18 18 18 18 
18 18 18 18 18 18 18 18 18 
18 18 18 18 18 18 18 18 18 
18 18 18 18 18 18 18 18 18 
18 18 18 18 18 18 18 18 18 
18 18 18 18 18 18 18 18 18 
18 18 18 18 18 18 18 18 18 
18 18 18 18 18 18 18 18 18 
18 18 18 18 18 18 18 18 18 
18 18 18 18 18 18 18 18 18 
18 18 18 18 18 18 18 18 18 
18 18 18 18 18 18 18 18 18 
18 18 18 18 18 18 18 18 18 
18 18 18 18 18 18 18 18 18 
18 18 18 18 18 18 18 18 18 
18 18 18 18 18 18 18 18 18 
18 18 18 18 18 18 18 18 18 
18 18 18 18 18 18 18 18 18 
18 18 18 18 18 18 18 18 18 
18 18 18 18 18 18 18 18 18 
18 18 18 18 18 18 18 18 18 
18 18 18 18 18 18 18 18 18 
18 18 18 18 18 18 18 18 18 
18 18 18 18 18 18 18 18 18 
18 18 18 18 18 18 18 18 18 
18 18 18 18 18 18 18 18 18 
18 18 18 18 18 18 18 18 18 
18 18 18 18 18 18 18 18 18 
18 18 18 18 18 18 18 18 18 
18 18 18 18 18 18 18 18 18 
18 18 18 18 18 18 18 18 18 
18 18 18 18 18 18 18 18 18 
18 18 18 18 18 18 18 18 18 
18 18 18 18 18 18 18 18 18 
18 18 18 18 18 18 18 18 18 
18 18 18 18 18 18 18 18 18 
18 18 18 18 18 18 18 18 18 
18 18 18 18 18 18 18 18 18 
18 18 18 18 18 18 18 18 18 
18 18 18 18 18 18 18 18 18 
18 18 18 18 18 18 18 18 18 
18 18 18 18 18 18 18 18 18 
18 18 18 18 18 18 18 18 18 
18 18 18 18 18 18 18 18 18 
18 18 18 18 18 18 18 18 18 
18 18 18 18 18 18 18 18 18 
18 18 18 18 18 18 18 18 18 
18 18 18 18 18 18 18 18 18 
18 18 18 18 18 18 18 18 18 
18 18 18 18 18 18 18 18 18 
18 18 18 18 18 18 18 18 18 
18 18 18 18 18 18 18 18 18 
18 18 18 18 18 18 18 18 18 
18 18 18 18 18 18 18 18 18 
18 18 18 18 18 18 18 18 18 
18 18 18 18 18 18 18 18 18 
18 18 18 18 18 18 18 18 18 
18 18 18 18 18 18 18 18 18 
18 18 18 18 18 18 18 18 18 
18 18 18 18 18 18 18 18 18 
18 18 18 18 18 18 18 18 18 
18 18 18 18 18 18 18 18 18 
18 18 18 18 18 18 18 18 18 
18 18 18 18 18 18 18 18 18 
18 18 18 18 18 18 18 18 18 
18 18 18 18 18 18 18 18 18 
18 18 18 18 18 18 18 18 18 
18 18 18 18 18 18 18 18 18 
18 18 18 18 18 18 18 18 18 
18 18 18 18 18 18 18 18 18 
18 18 18 18 18 18 18 18 18 
18 18 18 18 18 18 18 18 18 
18 18 18 18 18 18 18 18 18 
18 18 18 18 18 18 18 18 18 
18 18 18 18 18 18 18 18 18 
18 18 18 18 18 18 18 18 18 
18 18 18 18 18 18 18 18 18 
18 18 18 18 18 18 18 18 18 
18 18 18 18 18 18 18 18 18 
18 18 18 18 18 18 18 18 18 
18 18 18 18 18 18 18 18 18 
18 18 18 18 18 18 18 18 18 
18 18 18 18 18 18 18 18 18 
18 18 18 18 18 18 18 18 18 
18 18 18 18 18 18 18 18 18 
18 18 18 18 18 18 18 18 18 
18 18 18 18 18 18 18 18 18 
18 18 18 18 18 18 18 18 18 
18 18 18 18 18 18 18 18 18 
18 18 18 18 18 18 18 18 18 
18 18 18 18 18 18 18 18 18 
18 18 18 18 18 18 18 18 18 
18 18 18 18 18 18 18 18 18 
18 18 18 18 18 18 18 18 18 
18 18 18 18 18 18 18 18 18 
18 18 18 18 18 18 18 18 18 
18 18 18 18 18 18 18 18 18 
18 18 18 18 18 18 18 18 18 
18 18 18 18 18 18 18 18 18 
18 18 18 18 18 18 18 18 18 
18 18 18 18 18 18 18 18 18 
18 18 18 18 18 18 18 18 18 
18 18 18 18 18 18 18 18 18 
18 18 18 18 18 18 18 18 18 
18 18 18 18 18 18 18 18 18 
18 18 18 18 18 18 18 18 18 
18 18 18 18 18 18 18 18 18 
18 18 18 18 18 18 18 18 18 
18 18 18 18 18 18 18 18 18 
18 18 18 18 18 18 18 18 18 
18 18 18 18 18 18 18 18 18 
18 18 18 18 18 18 18 18 18 
18 18 18 18 18 18 18 18 18 
18 18 18 18 18 18 18 18 18 
18 18 18 18 18 18 18 18 18 
18 18 18 18 18 18 18 18 18 
18 18 18 18 18 18 18 18 18 
18 18 18 18 18 18 18 18 18 
18 18 18 18 18 18 18 18 18 
18 18 18 18 18 18 18 18 18 
18 18 18 18 18 18 18 18 18 
18 18 18 18 18 18 18 18 18 
18 18 18 18 18 18 18 18 18 
18 18 18 18 18 18 18 18 18 
18 18 18 18 18 18 18 18 18 
18 18 18 18 18 18 18 18 18 
18 18 18 18 18 18 18 18 18 
18 18 18 18 18 18 18 18 18 
18 18 18 18 18 18 18 18 18 
18 18 18 18 18 18 18 18 18 
18 18 18 18 18 18 18 18 18 
18 18 18 18 18 18 18 18 18 
18 18 18 18 18 18 18 18 18 
18 18 18 18 18 18 18 18 18 
18 18 18 18 18 18 18 18 18 
18 18 18 18 18 18 18 18 18 
18 18 18 18 18 18 18 18 18 
18 18 18 18 18 18 18 18 18 
18 18 18 18 18 18 18 18 18 
18 18 18 18 18 18 18 18 18 
18 18 18 18 18 
