# vtk DataFile Version 4.2
vtk output
ASCII
DATASET POLYDATA
POINTS 1534 float
-7.16074 -23.1389 5.31595 -7.03555 -22.8722 4.93363 -6.79283 -23.1963 5.12992 
-7.77227 -23.1372 5.37308 -7.569 -22.8283 5.03656 -8.41542 -23.1549 5.38369 
-8.20949 -22.8357 5.06263 -8.8676 -23.2071 5.30434 -8.7055 -22.9116 5.13543 
-9.00172 -23.0627 4.99622 -7.0352 -23.6637 5.37347 -6.7326 -23.6681 5.06188 
-7.57946 -23.6662 5.46968 -8.21608 -23.6796 5.47552 -8.77198 -23.6808 5.37674 
-9.08513 -23.5205 5.05099 -7.06707 -24.295 5.37316 -6.76376 -24.3049 5.05779 
-7.59209 -24.306 5.46743 -8.10208 -24.2127 5.4666 -8.63881 -24.3532 5.34819 
-9.03301 -24.205 4.99325 -7.06357 -24.9267 5.39116 -6.76805 -24.931 5.06293 
-7.58817 -24.9562 5.47323 -8.22528 -24.8676 5.39461 -8.66191 -24.9127 5.20212 
-8.88954 -24.6949 5.04819 -6.98886 -25.3843 5.3134 -6.80158 -25.4411 4.93526 
-7.425 -25.4727 5.39577 -8.0163 -25.4636 5.33035 -8.50246 -25.3479 5.1528 
-7.18825 -25.7057 5.06166 -7.77426 -25.763 5.06355 -8.34328 -25.7069 4.97584 
-7.02693 -22.7613 4.59024 -6.69876 -23.1152 4.61805 -7.42676 -22.6818 4.59626 
-8.04845 -22.6645 4.5995 -8.69625 -22.7585 4.66508 -9.11049 -23.1276 4.61206 
-6.58791 -23.8225 4.60158 -9.2 -23.7871 4.52619 -6.6071 -24.4591 4.60172 
-9.11895 -24.312 4.53964 -6.61058 -25.0649 4.59947 -8.8346 -25.1379 4.88961 
-9.03841 -24.7575 4.54935 -6.67178 -25.4462 4.57006 -8.72412 -25.5333 4.82928 
-9.12022 -25.4424 4.33564 -6.94924 -25.7756 4.49976 -7.63239 -25.9093 4.62563 
-8.25254 -25.9142 4.60774 -8.74721 -25.827 4.5178 -8.96015 -22.0206 4.11129 
-8.78366 -21.6806 3.70663 -8.48394 -21.9674 3.94558 -9.44663 -22.004 4.07878 
-9.30305 -21.7268 3.91215 -9.60972 -21.867 3.79259 -7.05171 -22.6011 4.22147 
-6.98068 -22.3518 3.78239 -6.69929 -22.5824 3.9145 -7.75145 -22.4695 4.20353 
-7.42269 -22.2131 3.79092 -8.41111 -22.3663 4.21768 -8.02008 -22.1427 3.9003 
-8.97134 -22.6 4.30822 -9.36935 -22.4705 4.14993 -9.75726 -22.3158 3.83145 
-6.51224 -22.9483 4.14173 -6.39927 -22.8316 3.73407 -6.23459 -23.225 3.92275 
-9.35887 -23.1661 4.23158 -9.73543 -22.935 3.94812 -6.38515 -23.5013 4.21525 
-6.08849 -23.7553 3.85579 -9.36454 -23.7558 4.10814 -9.6758 -23.5013 3.92089 
-6.38655 -24.1272 4.19865 -6.08835 -24.4531 3.89876 -9.16155 -24.286 4.07512 
-9.49603 -23.9552 3.69523 -6.39619 -24.7542 4.20105 -6.10235 -25.0767 3.89912 
-9.13668 -24.8891 3.81113 -6.46642 -25.3703 4.21029 -6.19098 -25.5697 3.87522 
-9.49193 -25.2532 3.8717 -9.59548 -25.4673 4.14763 -9.92874 -25.5468 4.07368 
-9.89718 -25.3651 3.95768 -10.1552 -25.4684 3.79989 -6.54926 -25.8589 4.03943 
-7.02545 -26.2029 4.20159 -6.64575 -26.3309 3.83905 -7.59102 -26.2015 4.32006 
-8.22773 -26.2165 4.31047 -8.75672 -26.2128 4.22346 -9.13237 -26.1265 3.99548 
-9.60332 -25.8123 3.9171 -10.0766 -25.6749 3.79628 -6.98016 -26.5853 4.101 
-6.82474 -26.7252 3.80318 -7.43498 -26.6318 4.17234 -8.069 -26.6534 4.15382 
-8.65443 -26.6585 4.07968 -9.00179 -26.5909 3.91386 -7.18015 -26.9051 3.884 
-7.76898 -26.9722 3.86958 -8.40265 -26.9809 3.82745 -8.85147 -26.9017 3.76491 
-7.77541 -21.9018 3.56287 -7.65621 -21.6741 3.30091 -7.36633 -21.8621 3.33547 
-8.24959 -21.8427 3.69636 -8.14147 -21.5903 3.35794 -8.70276 -21.4666 3.29725 
-9.28781 -21.5687 3.45043 -9.75374 -21.8871 3.41837 -7.0251 -22.1234 3.35382 
-6.69451 -22.4362 3.38748 -10.0074 -22.2688 3.42803 -10.0525 -22.7184 3.59556 
-10.214 -22.4107 3.16262 -6.38911 -22.7871 3.17139 -6.08794 -23.2065 3.48917 
-10.0346 -23.2767 3.64848 -10.3416 -23.0359 3.18581 -5.82083 -23.6422 3.53035 
-5.77875 -23.4278 3.12949 -5.61735 -23.8227 3.31605 -9.91468 -23.6982 3.61629 
-10.2122 -23.6518 3.26385 -5.77598 -24.1367 3.61264 -5.54924 -24.2871 3.24768 
-9.19546 -24.3806 3.45555 -9.52743 -24.1436 3.25906 -9.92198 -23.9829 3.27656 
-5.77651 -24.7614 3.61778 -5.54973 -24.912 3.24346 -9.20785 -24.7518 3.24194 
-5.83377 -25.4684 3.63037 -5.54772 -25.5511 3.2691 -9.39174 -25.0515 3.39924 
-9.88867 -25.2126 3.44301 -10.2398 -25.4843 3.20998 -5.76942 -25.9938 3.49718 
-5.60143 -26.0692 3.13775 -6.17897 -26.0279 3.67055 -9.39412 -26.2219 3.58359 
-9.69143 -26.1041 3.42595 -10.0231 -25.9085 3.3928 -5.97189 -26.3113 3.26355 
-6.36621 -26.3877 3.39168 -6.67916 -26.6662 3.2652 -9.13492 -26.6401 3.48366 
-9.53102 -26.4094 3.10211 -7.05831 -26.9522 3.35407 -7.59115 -27.061 3.34786 
-8.21728 -27.0705 3.31552 -8.75683 -26.9795 3.31878 -8.29923 -20.8007 2.90707 
-8.16841 -20.468 2.52404 -7.82395 -20.7652 2.76559 -8.98944 -20.7322 2.93766 
-8.80791 -20.4299 2.63368 -9.60518 -20.7489 2.95212 -9.43738 -20.424 2.65604 
-10.054 -20.8009 2.88268 -9.9163 -20.501 2.74249 -10.2184 -20.6666 2.58606 
-7.65692 -21.3163 3.00894 -7.55757 -20.9768 2.73786 -7.26466 -21.2646 2.70094 
-8.2856 -21.2691 3.0957 -8.81305 -21.1794 3.0944 -9.47449 -21.3102 3.10411 
-9.96759 -21.2846 2.95375 -10.27 -21.1237 2.62337 -7.0952 -21.7417 2.9606 
-6.93539 -21.5486 2.60284 -6.78581 -21.9745 2.75934 -9.99121 -21.873 3.11375 
-10.2555 -21.8287 2.70564 -6.57871 -22.4114 2.7493 -10.394 -22.5 2.65533 
-6.36703 -22.6988 2.66363 -6.08861 -23.0219 2.77831 -10.5729 -22.9227 2.78188 
-10.5967 -23.2068 2.89133 -10.7539 -23.156 2.52496 -5.76662 -23.3674 2.53087 
-5.55276 -23.7762 2.86763 -10.4749 -23.5868 2.89644 -10.6922 -23.476 2.6398 
-5.46751 -24.2945 2.7174 -9.4659 -24.4922 3.05824 -9.92226 -24.373 2.96376 
-10.3269 -24.2211 2.74801 -5.4635 -24.9164 2.72276 -9.53242 -24.8823 3.09218 
-9.93709 -24.8725 3.00256 -10.2615 -24.9055 2.75017 -5.46822 -25.542 2.74824 
-10.3526 -25.4377 2.5819 -5.56499 -26.0447 2.56219 -9.93939 -26.1837 3.07645 
-10.237 -25.9429 2.72779 -5.87387 -26.3561 2.73223 -6.31154 -26.5081 2.89378 
-6.69493 -26.7148 2.55251 -9.12518 -26.7385 2.85916 -9.51006 -26.5095 2.51232 
-9.94872 -26.3121 2.64364 -7.06666 -26.9354 2.72552 -7.57696 -27.0473 2.7295 
-8.18072 -27.0491 2.69079 -8.71328 -26.9588 2.69954 -7.5427 -20.7612 2.49521 
-7.73897 -20.4775 2.02701 -7.2823 -20.7443 2.12585 -8.30463 -20.3685 2.03871 
-8.71071 -20.351 2.21754 -9.34137 -20.3014 2.0496 -9.95975 -20.433 2.2925 
-10.271 -20.75 2.11155 -7.08207 -21.1175 2.36307 -6.98124 -21 1.91158 
-6.80467 -21.4574 2.22321 -10.3424 -21.291 2.08765 -6.62493 -21.9335 2.13769 
-10.3903 -21.8835 2.05976 -6.44795 -22.3978 2.34 -6.41585 -22.2352 1.88525 
-6.23512 -22.6443 2.22932 -10.4654 -22.3874 2.12108 -6.01328 -22.9904 2.11055 
-10.6157 -22.7773 2.33035 -10.829 -22.9733 2.00465 -5.78043 -23.3541 1.9147 
-5.54906 -23.7548 2.25874 -10.6392 -23.9121 2.46794 -10.856 -23.5381 2.14193 
-5.47043 -24.2706 2.09762 -10.5638 -24.377 2.28137 -10.7861 -24.1092 2.00935 
-5.47494 -24.8872 2.10696 -10.3972 -24.8962 2.24121 -10.5977 -24.5539 1.87197 
-5.48242 -25.5146 2.12367 -10.3322 -25.5293 2.07561 -5.59184 -26.0434 1.95201 
-10.2361 -26.0294 2.08007 -5.89167 -26.3386 2.11885 -6.31653 -26.5083 2.27677 
-6.70958 -26.712 1.93315 -9.10953 -26.7181 2.24036 -9.50142 -26.4954 1.92096 
-9.93703 -26.3305 2.07493 -7.08876 -26.9237 2.10097 -7.59587 -27.0281 2.12541 
-8.19466 -27.0278 2.0783 -8.72012 -26.925 2.07778 -9.51888 -20.1284 1.6464 
-9.24565 -19.9484 1.34195 -9.16947 -20.155 1.59164 -9.7284 -19.9568 1.38936 
-7.68379 -20.4681 1.37475 -7.28056 -20.6623 1.66634 -8.12399 -20.3854 1.61177 
-8.69745 -20.2898 1.56696 -9.95511 -20.3312 1.71554 -10.3113 -20.7372 1.58229 
-6.97451 -20.9591 1.34783 -6.76573 -21.3701 1.66192 -10.4471 -21.2682 1.57197 
-6.6266 -21.8739 1.41741 -10.5555 -21.6662 1.5846 -10.5916 -22.1121 1.75232 
-10.7709 -21.7979 1.34306 -6.46406 -22.2923 1.44185 -6.24034 -22.5851 1.71383 
-10.6555 -22.5577 1.91519 -10.9032 -22.4268 1.46864 -6.10358 -22.9985 1.58096 
-11.0017 -23.1003 1.59293 -5.9171 -23.3768 1.32396 -5.56824 -23.7404 1.62866 
-10.9987 -23.6976 1.59728 -5.48725 -24.2598 1.47433 -10.8928 -24.2135 1.55295 
-5.48274 -24.8811 1.49729 -10.4395 -24.9865 1.66858 -10.6923 -24.59 1.47809 
-5.42723 -25.5685 1.52248 -10.4043 -25.5091 1.55681 -5.54291 -26.1763 1.53005 
-10.319 -26.0185 1.57352 -5.87912 -26.4278 1.59608 -6.32683 -26.5439 1.70558 
-6.61584 -26.7576 1.4431 -9.14581 -26.7065 1.67238 -9.54607 -26.5496 1.48828 
-9.98004 -26.3631 1.56678 -7.02807 -26.9249 1.42763 -7.60067 -27.0053 1.52803 
-8.19874 -27.0186 1.49817 -8.83055 -26.9357 1.44837 -10.0655 -19.6685 1.10417 
-9.8612 -19.3229 0.776033 -9.69218 -19.4548 0.946838 -10.3154 -19.4713 0.739096 
-8.89088 -20.0666 1.25058 -8.85916 -19.7946 0.90266 -8.57016 -20.0568 0.863676 
-9.38684 -19.6496 1.02214 -10.2074 -20.201 1.32957 -10.5702 -19.7694 0.935477 
-10.5814 -20.1223 1.09618 -10.8219 -20.0684 0.793671 -7.68594 -20.4812 0.75163 
-7.2778 -20.6678 1.06498 -8.19305 -20.3306 0.964009 -10.5811 -20.7585 1.20532 
-10.8631 -20.5294 0.817772 -6.96695 -20.9681 0.726068 -6.77022 -21.3581 1.03993 
-10.6556 -21.3462 1.29728 -10.8452 -21.2357 0.907828 -6.68855 -21.7853 0.792957 
-10.9604 -21.897 0.843036 -6.42503 -22.7018 1.26595 -6.63439 -22.3296 0.905717 
-11.247 -22.2744 0.887553 -11.2221 -22.6751 1.16957 -11.5223 -22.4784 0.829266 
-6.32712 -23.1053 1.20634 -6.6213 -23.0154 0.777498 -11.2259 -23.2499 1.21092 
-11.5331 -22.912 0.910442 -5.9482 -23.5402 0.902646 -5.60499 -23.7972 0.9912 
-6.3399 -23.403 0.916223 -11.2082 -23.8479 1.2036 -11.5282 -23.5201 0.912085 
-5.48892 -24.3422 0.98394 -11.1058 -24.4388 1.20002 -11.5231 -24.1317 0.917958 
-5.41039 -24.8898 0.923547 -10.738 -24.9891 1.28759 -11.2015 -24.9517 1.10894 
-11.532 -24.7318 0.934433 -5.23126 -25.4326 1.12281 -5.18694 -25.2013 0.70507 
-5.02736 -25.6147 0.943767 -10.6183 -25.5802 1.28194 -11.0231 -25.5136 1.09826 
-11.5369 -25.4269 0.821494 -5.23207 -26.0448 1.24635 -4.93206 -26.1068 0.880907 
-10.5783 -26.191 1.20846 -11.0051 -26.1383 0.889238 -11.2732 -25.8321 0.81259 
-5.14106 -26.579 1.0979 -4.95391 -26.6633 0.728407 -5.6099 -26.6317 1.23272 
-6.20451 -26.728 1.2527 -9.35435 -26.7518 1.2885 -9.9433 -26.6575 1.20288 
-10.473 -26.7335 1.06218 -10.7887 -26.5828 0.929768 -5.3552 -26.9297 0.849083 
-5.94963 -26.954 0.830914 -6.58309 -26.9347 0.923094 -7.11356 -26.9895 0.814774 
[...]
CELL_DATA 3064
SCALARS scalars float
LOOKUP_TABLE default
13 13 13 13 13 13 13 13 13 
13 13 13 13 13 13 13 13 13 
13 13 13 13 13 13 13 13 13 
13 13 13 13 13 13 13 13 13 
13 13 13 13 13 13 13 13 13 
13 13 13 13 13 13 13 13 13 
13 13 13 13 13 13 13 13 13 
13 13 13 13 13 13 13 13 13 
13 13 13 13 13 13 13 13 13 
13 13 13 13 13 13 13 13 13 
13 13 13 13 13 13 13 13 13 
13 13 13 13 13 13 13 13 13 
13 13 13 13 13 13 13 13 13 
13 13 13 13 13 13 13 13 13 
13 13 13 13 13 13 13 13 13 
13 13 13 13 13 13 13 13 13 
13 13 13 13 13 13 13 13 13 
13 13 13 13 13 13 13 13 13 
13 13 13 13 13 13 13 13 13 
13 13 13 13 13 13 13 13 13 
13 13 13 13 13 13 13 13 13 
13 13 13 13 13 13 13 13 13 
13 13 13 13 13 13 13 13 13 
13 13 13 13 13 13 13 13 13 
13 13 13 13 13 13 13 13 13 
13 13 13 13 13 13 13 13 13 
13 13 13 13 13 13 13 13 13 
13 13 13 13 13 13 13 13 13 
13 13 13 13 13 13 13 13 13 
13 13 13 13 13 13 13 13 13 
13 13 13 13 13 13 13 13 13 
13 13 13 13 13 13 13 13 13 
13 13 13 13 13 13 13 13 13 
13 13 13 13 13 13 13 13 13 
13 13 13 13 13 13 13 13 13 
13 13 13 13 13 13 13 13 13 
13 13 13 13 13 13 13 13 13 
13 13 13 13 13 13 13 13 13 
13 13 13 13 13 13 13 13 13 
13 13 13 13 13 13 13 13 13 
13 13 13 13 13 13 13 13 13 
13 13 13 13 13 13 13 13 13 
13 13 13 13 13 13 13 13 13 
13 13 13 13 13 13 13 13 13 
13 13 13 13 13 13 13 13 13 
13 13 13 13 13 13 13 13 13 
13 13 13 13 13 13 13 13 13 
13 13 13 13 13 13 13 13 13 
13 13 13 13 13 13 13 13 13 
13 13 13 13 13 13 13 13 13 
13 13 13 13 13 13 13 13 13 
13 13 13 13 13 13 13 13 13 
13 13 13 13 13 13 13 13 13 
13 13 13 13 13 13 13 13 13 
13 13 13 13 13 13 13 13 13 
13 13 13 13 13 13 13 13 13 
13 13 13 13 13 13 13 13 13 
13 13 13 13 13 13 13 13 13 
13 13 13 13 13 13 13 13 13 
13 13 13 13 13 13 13 13 13 
13 13 13 13 13 13 13 13 13 
13 13 13 13 13 13 13 13 13 
13 13 13 13 13 13 13 13 13 
13 13 13 13 13 13 13 13 13 
13 13 13 13 13 13 13 13 13 
13 13 13 13 13 13 13 13 13 
13 13 13 13 13 13 13 13 13 
13 13 13 13 13 13 13 13 13 
13 13 13 13 13 13 13 13 13 
13 13 13 13 13 13 13 13 13 
13 13 13 13 13 13 13 13 13 
13 13 13 13 13 13 13 13 13 
13 13 13 13 13 13 13 13 13 
13 13 13 13 13 13 13 13 13 
13 13 13 13 13 13 13 13 13 
13 13 13 13 13 13 13 13 13 
13 13 13 13 13 13 13 13 13 
13 13 13 13 13 13 13 13 13 
13 13 13 13 13 13 13 13 13 
13 13 13 13 13 13 13 13 13 
13 13 13 13 13 13 13 13 13 
13 13 13 13 13 13 13 13 13 
13 13 13 13 13 13 13 13 13 
13 13 13 13 13 13 13 13 13 
13 13 13 13 13 13 13 13 13 
13 13 13 13 13 13 13 13 13 
13 13 13 13 13 13 13 13 13 
13 13 13 13 13 13 13 13 13 
13 13 13 13 13 13 13 13 13 
13 13 13 13 13 13 13 13 13 
13 13 13 13 13 13 13 13 13 
13 13 13 13 13 13 13 13 13 
13 13 13 13 13 13 13 13 13 
13 13 13 13 13 13 13 13 13 
13 13 13 13 13 13 13 13 13 
13 13 13 13 13 13 13 13 13 
13 13 13 13 13 13 13 13 13 
13 13 13 13 13 13 13 13 13 
13 13 13 13 13 13 13 13 13 
13 13 13 13 13 13 13 13 13 
13 13 13 13 13 13 13 13 13 
13 13 13 13 13 13 13 13 13 
13 13 13 13 13 13 13 13 13 
13 13 13 13 13 13 13 13 13 
13 13 13 13 13 13 13 13 13 
13 13 13 13 13 13 13 13 13 
13 13 13 13 13 13 13 13 13 
13 13 13 13 13 13 13 13 13 
13 13 13 13 13 13 13 13 13 
13 13 13 13 13 13 13 13 13 
13 13 13 13 13 13 13 13 13 
13 13 13 13 13 13 13 13 13 
13 13 13 13 13 13 13 13 13 
13 13 13 13 13 13 13 13 13 
13 13 13 13 13 13 13 13 13 
13 13 13 13 13 13 13 13 13 
13 13 13 13 13 13 13 13 13 
13 13 13 13 13 13 13 13 13 
13 13 13 13 13 13 13 13 13 
13 13 13 13 13 13 13 13 13 
13 13 13 13 13 13 13 13 13 
13 13 13 13 13 13 13 13 13 
13 13 13 13 13 13 13 13 13 
13 13 13 13 13 13 13 13 13 
13 13 13 13 13 13 13 13 13 
13 13 13 13 13 13 13 13 13 
13 13 13 13 13 13 13 13 13 
13 13 13 13 13 13 13 13 13 
13 13 13 13 13 13 13 13 13 
13 13 13 13 13 13 13 13 13 
13 13 13 13 13 13 13 13 13 
13 13 13 13 13 13 13 13 13 
13 13 13 13 13 13 13 13 13 
13 13 13 13 13 13 13 13 13 
13 13 13 13 13 13 13 13 13 
13 13 13 13 13 13 13 13 13 
13 13 13 13 13 13 13 13 13 
13 13 13 13 13 13 13 13 13 
13 13 13 13 13 13 13 13 13 
13 13 13 13 13 13 13 13 13 
13 13 13 13 13 13 13 13 13 
13 13 13 13 13 13 13 13 13 
13 13 13 13 13 13 13 13 13 
13 13 13 13 13 13 13 13 13 
13 13 13 13 13 13 13 13 13 
13 13 13 13 13 13 13 13 13 
13 13 13 13 13 13 13 13 13 
13 13 13 13 13 13 13 13 13 
13 13 13 13 13 13 13 13 13 
13 13 13 13 13 13 13 13 13 
13 13 13 13 13 13 13 13 13 
13 13 13 13 13 13 13 13 13 
13 13 13 13 13 13 13 13 13 
13 13 13 13 13 13 13 13 13 
13 13 13 13 13 13 13 13 13 
13 13 13 13 13 13 13 13 13 
13 13 13 13 13 13 13 13 13 
13 13 13 13 13 13 13 13 13 
13 13 13 13 13 13 13 13 13 
13 13 13 13 13 13 13 13 13 
13 13 13 13 13 13 13 13 13 
13 13 13 13 13 13 13 13 13 
13 13 13 13 13 13 13 13 13 
13 13 13 13 13 13 13 13 13 
13 13 13 13 13 13 13 13 13 
13 13 13 13 13 13 13 13 13 
13 13 13 13 13 13 13 13 13 
13 13 13 13 13 13 13 13 13 
13 13 13 13 13 13 13 13 13 
13 13 13 13 13 13 13 13 13 
13 13 13 13 13 13 13 13 13 
13 13 13 13 13 13 13 13 13 
13 13 13 13 13 13 13 13 13 
13 13 13 13 13 13 13 13 13 
13 13 13 13 13 13 13 13 13 
13 13 13 13 13 13 13 13 13 
13 13 13 13 13 13 13 13 13 
13 13 13 13 13 13 13 13 13 
13 13 13 13 13 13 13 13 13 
13 13 13 13 13 13 13 13 13 
13 13 13 13 13 13 13 13 13 
13 13 13 13 13 13 13 13 13 
13 13 13 13 13 13 13 13 13 
13 13 13 13 13 13 13 13 13 
13 13 13 13 13 13 13 13 13 
13 13 13 13 13 13 13 13 13 
13 13 13 13 13 13 13 13 13 
13 13 13 13 13 13 13 13 13 
13 13 13 13 13 13 13 13 13 
13 13 13 13 13 13 13 13 13 
13 13 13 13 13 13 13 13 13 
13 13 13 13 13 13 13 13 13 
13 13 13 13 13 13 13 13 13 
13 13 13 13 13 13 13 13 13 
13 13 13 13 13 13 13 13 13 
13 13 13 13 13 13 13 13 13 
13 13 13 13 13 13 13 13 13 
13 13 13 13 13 13 13 13 13 
13 13 13 13 13 13 13 13 13 
13 13 13 13 13 13 13 13 13 
13 13 13 13 13 13 13 13 13 
13 13 13 13 13 13 13 13 13 
13 13 13 13 13 13 13 13 13 
13 13 13 13 13 13 13 13 13 
13 13 13 13 13 13 13 13 13 
13 13 13 13 13 13 13 13 13 
13 13 13 13 13 13 13 13 13 
13 13 13 13 13 13 13 13 13 
13 13 13 13 13 13 13 13 13 
13 13 13 13 13 13 13 13 13 
13 13 13 13 13 13 13 13 13 
13 13 13 13 13 13 13 13 13 
13 13 13 13 13 13 13 13 13 
13 13 13 13 13 13 13 13 13 
13 13 13 13 13 13 13 13 13 
13 13 13 13 13 13 13 13 13 
13 13 13 13 13 13 13 13 13 
13 13 13 13 13 13 13 13 13 
13 13 13 13 13 13 13 13 13 
13 13 13 13 13 13 13 13 13 
13 13 13 13 13 13 13 13 13 
13 13 13 13 13 13 13 13 13 
13 13 13 13 13 13 13 13 13 
13 13 13 13 13 13 13 13 13 
13 13 13 13 13 13 13 13 13 
13 13 13 13 13 13 13 13 13 
13 13 13 13 13 13 13 13 13 
13 13 13 13 13 13 13 13 13 
13 13 13 13 13 13 13 13 13 
13 13 13 13 13 13 13 13 13 
13 13 13 13 13 13 13 13 13 
13 13 13 13 13 13 13 13 13 
13 13 13 13 13 13 13 13 13 
13 13 13 13 13 13 13 13 13 
13 13 13 13 13 13 13 13 13 
13 13 13 13 13 13 13 13 13 
13 13 13 13 13 13 13 13 13 
13 13 13 13 13 13 13 13 13 
13 13 13 13 13 13 13 13 13 
13 13 13 13 13 13 13 13 13 
13 13 13 13 13 13 13 13 13 
13 13 13 13 13 13 13 13 13 
13 13 13 13 13 13 13 13 13 
13 13 13 13 13 13 13 13 13 
13 13 13 13 13 13 13 13 13 
13 13 13 13 13 13 13 13 13 
13 13 13 13 13 13 13 13 13 
13 13 13 13 13 13 13 13 13 
13 13 13 13 13 13 13 13 13 
13 13 13 13 13 13 13 13 13 
13 13 13 13 13 13 13 13 13 
13 13 13 13 13 13 13 13 13 
13 13 13 13 13 13 13 13 13 
13 13 13 13 13 13 13 13 13 
13 13 13 13 13 13 13 13 13 
13 13 13 13 13 13 13 13 13 
13 13 13 13 13 13 13 13 13 
13 13 13 13 13 13 13 13 13 
13 13 13 13 13 13 13 13 13 
13 13 13 13 13 13 13 13 13 
13 13 13 13 13 13 13 13 13 
13 13 13 13 13 13 13 13 13 
13 13 13 13 13 13 13 13 13 
13 13 13 13 13 13 13 13 13 
13 13 13 13 13 13 13 13 13 
13 13 13 13 13 13 13 13 13 
13 13 13 13 13 13 13 13 13 
13 13 13 13 13 13 13 13 13 
13 13 13 13 13 13 13 13 13 
13 13 13 13 13 13 13 13 13 
13 13 13 13 13 13 13 13 13 
13 13 13 13 13 13 13 13 13 
13 13 13 13 13 13 13 13 13 
13 13 13 13 13 13 13 13 13 
13 13 13 13 13 13 13 13 13 
13 13 13 13 13 13 13 13 13 
13 13 13 13 13 13 13 13 13 
13 13 13 13 13 13 13 13 13 
13 13 13 13 13 13 13 13 13 
13 13 13 13 13 13 13 13 13 
13 13 13 13 13 13 13 13 13 
13 13 13 13 13 13 13 13 13 
13 13 13 13 13 13 13 13 13 
13 13 13 13 13 13 13 13 13 
13 13 13 13 13 13 13 13 13 
13 13 13 13 13 13 13 13 13 
13 13 13 13 13 13 13 13 13 
13 13 13 13 13 13 13 13 13 
13 13 13 13 13 13 13 13 13 
13 13 13 13 13 13 13 13 13 
13 13 13 13 13 13 13 13 13 
13 13 13 13 13 13 13 13 13 
13 13 13 13 13 13 13 13 13 
13 13 13 13 13 13 13 13 13 
13 13 13 13 13 13 13 13 13 
13 13 13 13 13 13 13 13 13 
13 13 13 13 13 13 13 13 13 
13 13 13 13 13 13 13 13 13 
13 13 13 13 13 13 13 13 13 
13 13 13 13 13 13 13 13 13 
13 13 13 13 13 13 13 13 13 
13 13 13 13 13 13 13 13 13 
13 13 13 13 13 13 13 13 13 
13 13 13 13 13 13 13 13 13 
13 13 13 13 13 13 13 13 13 
13 13 13 13 13 13 13 13 13 
13 13 13 13 13 13 13 13 13 
13 13 13 13 13 13 13 13 13 
13 13 13 13 13 13 13 13 13 
13 13 13 13 13 13 13 13 13 
13 13 13 13 13 13 13 13 13 
13 13 13 13 13 13 13 13 13 
13 13 13 13 13 13 13 13 13 
13 13 13 13 13 13 13 13 13 
13 13 13 13 13 13 13 13 13 
13 13 13 13 13 13 13 13 13 
13 13 13 13 13 13 13 13 13 
13 13 13 13 13 13 13 13 13 
13 13 13 13 13 13 13 13 13 
13 13 13 13 13 13 13 13 13 
13 13 13 13 13 13 13 13 13 
13 13 13 13 13 13 13 13 13 
13 13 13 13 13 13 13 13 13 
13 13 13 13 13 13 13 13 13 
13 13 13 13 13 13 13 13 13 
13 13 13 13 13 13 13 13 13 
13 13 13 13 13 13 13 13 13 
13 13 13 13 13 13 13 13 13 
13 13 13 13 13 13 13 13 13 
13 13 13 13 13 13 13 13 13 
13 13 13 13 13 13 13 13 13 
13 13 13 13 13 13 13 13 13 
13 13 13 13 13 13 13 13 13 
13 13 13 13 13 13 13 13 13 
13 13 13 13 13 13 13 13 13 
13 13 13 13 13 13 13 13 13 
13 13 13 13 13 13 13 13 13 
13 13 13 13 13 13 13 13 13 
13 13 13 13 13 13 13 13 13 
13 13 13 13 13 13 13 13 13 
13 13 13 13 
