# vtk DataFile Version 4.2
vtk output
ASCII
DATASET POLYDATA
POINTS 1534 float
11.9448 2.39788 22.8227 11.7361 2.84258 22.1855 11.3315 2.30242 22.5128 
12.9641 2.40052 22.9177 12.6253 2.9155 22.3569 14.036 2.37072 22.9351 
13.6928 2.90288 22.4 14.7896 2.28361 22.8026 14.5195 2.77604 22.5212 
15.013 2.52419 22.289 11.7354 1.52333 22.9186 11.2309 1.51614 22.3994 
12.6425 1.51892 23.0787 13.7036 1.49634 23.0882 14.63 1.49413 22.9233 
15.1519 1.76109 22.3803 11.7882 0.471105 22.9181 11.2826 0.454758 22.3926 
12.6633 0.452519 23.075 13.5133 0.607944 23.0734 14.4078 0.373518 22.8758 
15.0647 0.620379 22.284 11.7821 -0.581727 22.9481 11.2895 -0.588701 22.4012 
12.6565 -0.631005 23.0846 13.7184 -0.483662 22.9533 14.446 -0.558964 22.6323 
14.8254 -0.196171 22.3757 11.6574 -1.34425 22.8185 11.3451 -1.43884 22.1884 
12.3843 -1.49186 22.9556 13.3698 -1.4769 22.8463 14.18 -1.28436 22.5502 
11.9895 -1.88013 22.3989 12.9661 -1.97579 22.4018 13.9145 -1.88248 22.2553 
11.7217 3.0274 21.6132 11.1746 2.43773 21.6597 12.3881 3.1596 21.6231 
13.4242 3.18825 21.6282 14.5039 3.03125 21.7372 15.1941 2.41589 21.6487 
10.9895 1.25893 21.6323 15.343 1.31666 21.5055 11.0212 0.197792 21.6326 
15.2077 0.441943 21.528 11.0268 -0.811747 21.6288 14.7335 -0.934421 22.1114 
15.0732 -0.300553 21.5442 11.1286 -1.44732 21.5798 14.5492 -1.59345 22.0109 
15.2092 -1.44211 21.188 11.5908 -1.99653 21.4625 12.7294 -2.21953 21.672 
13.763 -2.22801 21.6419 14.5874 -2.08295 21.4918 14.9438 4.26101 20.8141 
14.6496 4.82775 20.1398 14.1501 4.34984 20.5382 15.7546 4.28852 20.7597 
15.5154 4.75052 20.4821 16.0264 4.51673 20.2827 11.7629 3.29438 20.9986 
11.6444 3.70991 20.2668 11.1754 3.32559 20.4871 12.9292 3.51334 20.9684 
12.3812 3.94092 20.2809 14.0286 3.68506 20.9917 13.3769 4.05789 20.4629 
14.9623 3.29539 21.1424 15.6256 3.51099 20.8784 16.2721 3.76872 20.3474 
10.8636 2.71584 20.8659 10.6752 2.91038 20.1866 10.4006 2.25478 20.5011 
15.6079 2.3517 21.0144 16.2355 2.73661 20.5418 10.6516 1.79429 20.9885 
10.1569 1.37114 20.3896 15.6171 1.36878 20.8087 16.1358 1.7928 20.4965 
10.6536 0.751171 20.9609 10.1563 0.208028 20.4612 15.2785 0.485244 20.7538 
15.8359 1.03637 20.1205 10.6694 -0.293961 20.9649 10.1794 -0.831255 20.4618 
15.2367 -0.519933 20.3138 10.7862 -1.32072 20.9802 10.3269 -1.65292 20.4219 
15.8286 -1.12694 20.4146 16.0012 -1.48376 20.8744 16.5566 -1.6165 20.751 
16.504 -1.31359 20.5577 16.9339 -1.48587 20.2946 10.924 -2.13505 20.6954 
11.7175 -2.7087 20.9655 11.0845 -2.9218 20.3614 12.6602 -2.70655 21.1627 
13.7214 -2.73184 21.1464 14.603 -2.72595 21.0012 15.229 -2.58218 20.6211 
16.014 -2.05882 20.4902 16.8029 -1.82995 20.2886 11.6418 -3.3459 20.7979 
11.3826 -3.57913 20.3016 12.3999 -3.42359 20.9166 13.4566 -3.46 20.8854 
14.4323 -3.46861 20.7616 15.0111 -3.35622 20.4851 11.9749 -3.87908 20.4361 
12.9563 -3.99115 20.4118 14.0124 -4.00586 20.3413 14.7604 -3.8741 20.2369 
12.9691 4.45958 19.9006 12.7704 4.839 19.4641 12.2872 4.52582 19.5218 
13.7594 4.5579 20.1229 13.5792 4.97851 19.5589 14.5147 5.18449 19.4575 
15.4898 5.01398 19.7126 16.2662 4.48314 19.6589 11.7184 4.09052 19.5525 
11.1673 3.56927 19.6088 16.6888 3.84685 19.6749 16.7639 3.09749 19.9541 
17.0329 3.61028 19.2325 10.658 2.98455 19.2488 10.156 2.28569 19.7785 
16.7338 2.16697 20.0423 17.2455 2.56823 19.2711 9.71066 1.55969 19.8473 
9.64045 1.91713 19.1792 9.37135 1.25895 19.4902 16.5337 1.46466 19.9887 
17.0295 1.54182 19.4012 9.63573 0.735568 19.9845 9.2576 0.485011 19.3763 
15.3347 0.327545 19.7211 15.888 0.722382 19.3935 16.5457 0.99007 19.4225 
9.63634 -0.305592 19.993 9.25815 -0.556485 19.3692 15.3551 -0.29109 19.3651 
9.73147 -1.48389 20.014 9.25453 -1.62174 19.412 15.6615 -0.790743 19.6272 
16.4897 -1.0594 19.6999 17.0746 -1.5124 19.3114 9.62393 -2.35954 19.792 
9.34377 -2.48521 19.193 10.3066 -2.4167 20.0808 15.665 -2.74132 19.9345 
16.1605 -2.54521 19.6716 16.7135 -2.21922 19.6162 9.96115 -2.88885 19.4025 
10.6184 -3.01644 19.6159 11.1398 -3.48063 19.405 15.2328 -3.43822 19.768 
15.8929 -3.05395 19.1319 11.7716 -3.95744 19.5529 12.6596 -4.13911 19.5424 
13.7031 -4.15517 19.4882 14.6024 -4.00374 19.4934 13.8423 6.29453 18.8074 
13.6242 6.84896 18.1691 13.0501 6.35376 18.5718 14.9927 6.40834 18.8581 
14.6901 6.91222 18.3515 16.0189 6.38023 18.8819 15.7393 6.92173 18.3885 
16.7669 6.29329 18.766 16.5375 6.79322 18.5324 17.0409 6.51706 18.2715 
12.7716 5.43541 18.9775 12.606 6.00126 18.5257 12.1177 5.52176 18.4643 
13.8194 5.51379 19.1218 14.6986 5.66312 19.1194 15.8009 5.44475 19.1353 
16.6227 5.48718 18.8845 17.1266 5.75529 18.3337 11.8352 4.72668 18.8971 
11.5688 5.04848 18.3009 11.3193 4.3387 18.5618 16.6619 4.50648 19.1511 
17.1022 4.58028 18.4708 10.974 3.61068 18.5452 17.3328 3.46136 18.3869 
10.621 3.13185 18.4025 10.1569 2.59337 18.5938 17.6308 2.75685 18.5978 
17.6704 2.28332 18.7802 17.9323 2.36796 18.1695 9.62 2.01772 18.1815 
9.26353 1.33641 18.7429 17.4671 1.6501 18.7887 17.8292 1.83459 18.3609 
9.12115 0.472619 18.4925 15.7852 0.141384 19.0588 16.5458 0.339969 18.9012 
17.2202 0.592928 18.5414 9.1142 -0.563726 18.5014 15.8959 -0.508791 19.1154 
16.5703 -0.492519 18.9658 17.1108 -0.547737 18.545 9.1218 -1.60655 18.5439 
17.2624 -1.43469 18.2646 9.28278 -2.4443 18.2338 16.5736 -2.67798 19.089 
17.0696 -2.27665 18.5077 9.79752 -2.96357 18.517 10.527 -3.21696 18.7861 
11.1657 -3.56175 18.2172 15.2163 -3.60231 18.7272 15.8577 -3.22071 18.149 
16.5889 -2.89199 18.3676 11.7853 -3.92955 18.5053 12.6357 -4.11617 18.5118 
13.642 -4.11945 18.447 14.5296 -3.96924 18.4613 12.5812 6.36062 18.1213 
12.9083 6.83331 17.3409 12.1471 6.38882 17.5058 13.8511 7.01483 17.3601 
14.528 7.04378 17.658 15.579 7.12619 17.3778 16.6097 6.90657 17.7824 
17.1282 6.37815 17.4807 11.8133 5.76694 17.9013 11.6451 5.96286 17.1488 
11.3508 5.20054 17.6683 17.247 5.47642 17.4408 11.051 4.40724 17.5258 
17.3265 4.48884 17.3943 10.7559 3.6334 17.8631 10.7023 3.90446 17.1052 
10.401 3.2227 17.6787 17.4516 3.64904 17.4965 10.0311 2.64587 17.4809 
17.7019 2.99915 17.8452 18.0573 2.6724 17.3023 9.64274 2.03991 17.1545 
9.2571 1.37216 17.7281 17.7408 1.10773 18.0745 18.102 1.73106 17.531 
9.12576 0.512504 17.4595 17.6148 0.332922 17.7636 17.9852 0.779137 17.3101 
9.133 -0.515216 17.4751 17.3369 -0.532331 17.6967 17.671 0.0380389 17.0812 
9.1452 -1.56075 17.503 17.2281 -1.58735 17.4208 9.32727 -2.44221 17.2168 
17.0678 -2.42089 17.4282 9.82694 -2.93431 17.4947 10.535 -3.21739 17.7578 
11.1899 -3.55707 17.1849 15.1899 -3.56831 17.6959 15.843 -3.19719 17.1634 
16.5692 -2.92262 17.4198 11.8218 -3.91008 17.4644 12.667 -4.08416 17.5049 
13.6649 -4.08398 17.4262 14.5407 -3.91282 17.4251 15.8748 7.41436 16.7058 
15.4194 7.71457 16.1985 15.2924 7.37024 16.6146 16.224 7.7004 16.2773 
12.816 6.84909 16.2538 12.144 6.52558 16.74 13.5498 6.98678 16.6486 
14.5056 7.14585 16.5737 16.6018 7.0762 16.8208 17.1952 6.39945 16.5985 
11.6337 6.03097 16.2092 11.2857 5.34612 16.7328 17.4212 5.51427 16.5813 
11.0534 4.50659 16.3254 17.6018 4.85097 16.6023 17.6618 4.10773 16.8818 
17.9606 4.63134 16.1996 10.7824 3.80921 16.3662 10.4095 3.3214 16.8196 
17.7682 3.36508 17.1532 18.1808 3.58311 16.4089 10.1813 2.63247 16.5982 
18.3449 2.46069 16.616 9.87026 2.00203 16.1699 9.2888 1.39618 16.6779 
18.3395 1.46513 16.6232 9.15352 0.530517 16.4207 18.1629 0.605339 16.5494 
9.14574 -0.504958 16.459 17.407 -0.682885 16.7423 17.8285 -0.0220685 16.4247 
9.05294 -1.65057 16.501 17.3481 -1.55376 16.5561 9.24549 -2.66369 16.5136 
17.2057 -2.40271 16.5839 9.80575 -3.08293 16.6235 10.5519 -3.27666 16.8058 
11.0334 -3.63305 16.3682 15.2501 -3.54895 16.7492 15.9172 -3.28757 16.4422 
16.6406 -2.97694 16.5728 11.7204 -3.91192 16.3422 12.6747 -4.04625 16.5093 
13.6715 -4.0686 16.4593 14.7245 -3.93082 16.376 16.7858 8.18062 15.8018 
16.4453 8.75678 15.255 16.1636 8.53706 15.5397 17.2023 8.50925 15.1932 
14.828 7.51766 16.0463 14.7751 7.97106 15.4665 14.2933 7.53415 15.4016 
15.6546 8.21255 15.6654 17.0222 7.29305 16.1774 17.6269 8.01229 15.5204 
17.6454 7.42419 15.7883 18.0461 7.5139 15.284 12.8193 6.82728 15.2153 
12.1392 6.51632 15.7377 13.6647 7.07804 15.569 17.6446 6.36373 15.9702 
18.1146 6.74557 15.3241 11.6208 6.01596 15.173 11.2929 5.36607 15.6962 
17.7687 5.3842 16.1234 18.0845 5.56836 15.4742 11.1565 4.65421 15.2846 
18.2761 4.46609 15.3662 10.7171 3.1268 16.073 11.066 3.74695 15.4725 
18.7537 3.83697 15.4403 18.7121 3.16922 15.9103 19.2124 3.49689 15.343 
10.5537 2.45434 15.9737 11.0439 2.60409 15.2588 18.7182 2.21123 15.9792 
19.2302 2.77413 15.4783 9.92184 1.7296 15.4677 9.34974 1.3015 15.6155 
10.5747 1.95819 15.4902 18.6885 1.21444 15.967 19.2218 1.76066 15.481 
9.15605 0.393264 15.6034 18.5176 0.22975 15.9611 19.2131 0.741325 15.4908 
9.02491 -0.519376 15.5028 17.9044 -0.687196 16.1072 18.6767 -0.625196 15.8092 
19.2277 -0.25874 15.5183 8.72621 -1.42398 15.835 8.65226 -1.03845 15.1388 
8.38622 -1.72749 15.5367 17.7046 -1.67238 16.0978 18.3793 -1.56157 15.7915 
19.2354 -1.41734 15.33 8.72735 -2.44429 16.0409 8.22714 -2.54763 15.4319 
17.6376 -2.6903 15.9754 18.3489 -2.60268 15.4432 18.7959 -2.09257 15.3153 
8.57537 -3.3346 15.7935 8.26325 -3.47507 15.1778 9.35681 -3.42271 16.018 
10.3478 -3.58352 16.051 15.5975 -3.62457 16.1093 16.5791 -3.46756 15.9664 
17.4618 -3.59456 15.7316 17.988 -3.34345 15.5108 8.93201 -3.91927 15.3787 
9.9227 -3.96008 15.3482 10.9785 -3.92808 15.5015 11.8626 -4.01962 15.3208 
12.7067 -4.03828 15.4849 13.6962 -4.04356 15.4932 14.6813 -4.03698 15.4565 
15.7873 -3.94902 15.4636 16.9636 -3.97261 15.332 17.7151 -3.85634 15.2655 
14.9847 8.53315 14.9197 14.7794 8.80367 14.1114 14.3391 8.20619 14.6288 
15.7417 8.6519 15.1882 15.7677 8.92328 14.5078 16.7116 8.86418 14.6527 
17.2689 8.53247 14.2571 14.0149 7.59715 14.4713 17.7974 8.00561 14.7948 
18.1418 7.3341 14.5089 12.8421 6.84668 14.2175 12.1399 6.51448 14.7154 
13.5425 7.09927 14.438 18.2205 6.45794 14.4733 11.6233 6.0414 14.1545 
11.2727 5.34908 14.6508 18.1835 5.44171 14.5029 11.1531 4.47814 14.4268 
[...]
CELL_DATA 3064
SCALARS scalars float
LOOKUP_TABLE default
13 13 13 13 13 13 13 13 13 
13 13 13 13 13 13 13 13 13 
13 13 13 13 13 13 13 13 13 
13 13 13 13 13 13 13 13 13 
13 13 13 13 13 13 13 13 13 
13 13 13 13 13 13 13 13 13 
13 13 13 13 13 13 13 13 13 
13 13 13 13 13 13 13 13 13 
13 13 13 13 13 13 13 13 13 
13 13 13 13 13 13 13 13 13 
13 13 13 13 13 13 13 13 13 
13 13 13 13 13 13 13 13 13 
13 13 13 13 13 13 13 13 13 
13 13 13 13 13 13 13 13 13 
13 13 13 13 13 13 13 13 13 
13 13 13 13 13 13 13 13 13 
13 13 13 13 13 13 13 13 13 
13 13 13 13 13 13 13 13 13 
13 13 13 13 13 13 13 13 13 
13 13 13 13 13 13 13 13 13 
13 13 13 13 13 13 13 13 13 
13 13 13 13 13 13 13 13 13 
13 13 13 13 13 13 13 13 13 
13 13 13 13 13 13 13 13 13 
13 13 13 13 13 13 13 13 13 
13 13 13 13 13 13 13 13 13 
13 13 13 13 13 13 13 13 13 
13 13 13 13 13 13 13 13 13 
13 13 13 13 13 13 13 13 13 
13 13 13 13 13 13 13 13 13 
13 13 13 13 13 13 13 13 13 
13 13 13 13 13 13 13 13 13 
13 13 13 13 13 13 13 13 13 
13 13 13 13 13 13 13 13 13 
13 13 13 13 13 13 13 13 13 
13 13 13 13 13 13 13 13 13 
13 13 13 13 13 13 13 13 13 
13 13 13 13 13 13 13 13 13 
13 13 13 13 13 13 13 13 13 
13 13 13 13 13 13 13 13 13 
13 13 13 13 13 13 13 13 13 
13 13 13 13 13 13 13 13 13 
13 13 13 13 13 13 13 13 13 
13 13 13 13 13 13 13 13 13 
13 13 13 13 13 13 13 13 13 
13 13 13 13 13 13 13 13 13 
13 13 13 13 13 13 13 13 13 
13 13 13 13 13 13 13 13 13 
13 13 13 13 13 13 13 13 13 
13 13 13 13 13 13 13 13 13 
13 13 13 13 13 13 13 13 13 
13 13 13 13 13 13 13 13 13 
13 13 13 13 13 13 13 13 13 
13 13 13 13 13 13 13 13 13 
13 13 13 13 13 13 13 13 13 
13 13 13 13 13 13 13 13 13 
13 13 13 13 13 13 13 13 13 
13 13 13 13 13 13 13 13 13 
13 13 13 13 13 13 13 13 13 
13 13 13 13 13 13 13 13 13 
13 13 13 13 13 13 13 13 13 
13 13 13 13 13 13 13 13 13 
13 13 13 13 13 13 13 13 13 
13 13 13 13 13 13 13 13 13 
13 13 13 13 13 13 13 13 13 
13 13 13 13 13 13 13 13 13 
13 13 13 13 13 13 13 13 13 
13 13 13 13 13 13 13 13 13 
13 13 13 13 13 13 13 13 13 
13 13 13 13 13 13 13 13 13 
13 13 13 13 13 13 13 13 13 
13 13 13 13 13 13 13 13 13 
13 13 13 13 13 13 13 13 13 
13 13 13 13 13 13 13 13 13 
13 13 13 13 13 13 13 13 13 
13 13 13 13 13 13 13 13 13 
13 13 13 13 13 13 13 13 13 
13 13 13 13 13 13 13 13 13 
13 13 13 13 13 13 13 13 13 
13 13 13 13 13 13 13 13 13 
13 13 13 13 13 13 13 13 13 
13 13 13 13 13 13 13 13 13 
13 13 13 13 13 13 13 13 13 
13 13 13 13 13 13 13 13 13 
13 13 13 13 13 13 13 13 13 
13 13 13 13 13 13 13 13 13 
13 13 13 13 13 13 13 13 13 
13 13 13 13 13 13 13 13 13 
13 13 13 13 13 13 13 13 13 
13 13 13 13 13 13 13 13 13 
13 13 13 13 13 13 13 13 13 
13 13 13 13 13 13 13 13 13 
13 13 13 13 13 13 13 13 13 
13 13 13 13 13 13 13 13 13 
13 13 13 13 13 13 13 13 13 
13 13 13 13 13 13 13 13 13 
13 13 13 13 13 13 13 13 13 
13 13 13 13 13 13 13 13 13 
13 13 13 13 13 13 13 13 13 
13 13 13 13 13 13 13 13 13 
13 13 13 13 13 13 13 13 13 
13 13 13 13 13 13 13 13 13 
13 13 13 13 13 13 13 13 13 
13 13 13 13 13 13 13 13 13 
13 13 13 13 13 13 13 13 13 
13 13 13 13 13 13 13 13 13 
13 13 13 13 13 13 13 13 13 
13 13 13 13 13 13 13 13 13 
13 13 13 13 13 13 13 13 13 
13 13 13 13 13 13 13 13 13 
13 13 13 13 13 13 13 13 13 
13 13 13 13 13 13 13 13 13 
13 13 13 13 13 13 13 13 13 
13 13 13 13 13 13 13 13 13 
13 13 13 13 13 13 13 13 13 
13 13 13 13 13 13 13 13 13 
13 13 13 13 13 13 13 13 13 
13 13 13 13 13 13 13 13 13 
13 13 13 13 13 13 13 13 13 
13 13 13 13 13 13 13 13 13 
13 13 13 13 13 13 13 13 13 
13 13 13 13 13 13 13 13 13 
13 13 13 13 13 13 13 13 13 
13 13 13 13 13 13 13 13 13 
13 13 13 13 13 13 13 13 13 
13 13 13 13 13 13 13 13 13 
13 13 13 13 13 13 13 13 13 
13 13 13 13 13 13 13 13 13 
13 13 13 13 13 13 13 13 13 
13 13 13 13 13 13 13 13 13 
13 13 13 13 13 13 13 13 13 
13 13 13 13 13 13 13 13 13 
13 13 13 13 13 13 13 13 13 
13 13 13 13 13 13 13 13 13 
13 13 13 13 13 13 13 13 13 
13 13 13 13 13 13 13 13 13 
13 13 13 13 13 13 13 13 13 
13 13 13 13 13 13 13 13 13 
13 13 13 13 13 13 13 13 13 
13 13 13 13 13 13 13 13 13 
13 13 13 13 13 13 13 13 13 
13 13 13 13 13 13 13 13 13 
13 13 13 13 13 13 13 13 13 
13 13 13 13 13 13 13 13 13 
13 13 13 13 13 13 13 13 13 
13 13 13 13 13 13 13 13 13 
13 13 13 13 13 13 13 13 13 
13 13 13 13 13 13 13 13 13 
13 13 13 13 13 13 13 13 13 
13 13 13 13 13 13 13 13 13 
13 13 13 13 13 13 13 13 13 
13 13 13 13 13 13 13 13 13 
13 13 13 13 13 13 13 13 13 
13 13 13 13 13 13 13 13 13 
13 13 13 13 13 13 13 13 13 
13 13 13 13 13 13 13 13 13 
13 13 13 13 13 13 13 13 13 
13 13 13 13 13 13 13 13 13 
13 13 13 13 13 13 13 13 13 
13 13 13 13 13 13 13 13 13 
13 13 13 13 13 13 13 13 13 
13 13 13 13 13 13 13 13 13 
13 13 13 13 13 13 13 13 13 
13 13 13 13 13 13 13 13 13 
13 13 13 13 13 13 13 13 13 
13 13 13 13 13 13 13 13 13 
13 13 13 13 13 13 13 13 13 
13 13 13 13 13 13 13 13 13 
13 13 13 13 13 13 13 13 13 
13 13 13 13 13 13 13 13 13 
13 13 13 13 13 13 13 13 13 
13 13 13 13 13 13 13 13 13 
13 13 13 13 13 13 13 13 13 
13 13 13 13 13 13 13 13 13 
13 13 13 13 13 13 13 13 13 
13 13 13 13 13 13 13 13 13 
13 13 13 13 13 13 13 13 13 
13 13 13 13 13 13 13 13 13 
13 13 13 13 13 13 13 13 13 
13 13 13 13 13 13 13 13 13 
13 13 13 13 13 13 13 13 13 
13 13 13 13 13 13 13 13 13 
13 13 13 13 13 13 13 13 13 
13 13 13 13 13 13 13 13 13 
13 13 13 13 13 13 13 13 13 
13 13 13 13 13 13 13 13 13 
13 13 13 13 13 13 13 13 13 
13 13 13 13 13 13 13 13 13 
13 13 13 13 13 13 13 13 13 
13 13 13 13 13 13 13 13 13 
13 13 13 13 13 13 13 13 13 
13 13 13 13 13 13 13 13 13 
13 13 13 13 13 13 13 13 13 
13 13 13 13 13 13 13 13 13 
13 13 13 13 13 13 13 13 13 
13 13 13 13 13 13 13 13 13 
13 13 13 13 13 13 13 13 13 
13 13 13 13 13 13 13 13 13 
13 13 13 13 13 13 13 13 13 
13 13 13 13 13 13 13 13 13 
13 13 13 13 13 13 13 13 13 
13 13 13 13 13 13 13 13 13 
13 13 13 13 13 13 13 13 13 
13 13 13 13 13 13 13 13 13 
13 13 13 13 13 13 13 13 13 
13 13 13 13 13 13 13 13 13 
13 13 13 13 13 13 13 13 13 
13 13 13 13 13 13 13 13 13 
13 13 13 13 13 13 13 13 13 
13 13 13 13 13 13 13 13 13 
13 13 13 13 13 13 13 13 13 
13 13 13 13 13 13 13 13 13 
13 13 13 13 13 13 13 13 13 
13 13 13 13 13 13 13 13 13 
13 13 13 13 13 13 13 13 13 
13 13 13 13 13 13 13 13 13 
13 13 13 13 13 13 13 13 13 
13 13 13 13 13 13 13 13 13 
13 13 13 13 13 13 13 13 13 
13 13 13 13 13 13 13 13 13 
13 13 13 13 13 13 13 13 13 
13 13 13 13 13 13 13 13 13 
13 13 13 13 13 13 13 13 13 
13 13 13 13 13 13 13 13 13 
13 13 13 13 13 13 13 13 13 
13 13 13 13 13 13 13 13 13 
13 13 13 13 13 13 13 13 13 
13 13 13 13 13 13 13 13 13 
13 13 13 13 13 13 13 13 13 
13 13 13 13 13 13 13 13 13 
13 13 13 13 13 13 13 13 13 
13 13 13 13 13 13 13 13 13 
13 13 13 13 13 13 13 13 13 
13 13 13 13 13 13 13 13 13 
13 13 13 13 13 13 13 13 13 
13 13 13 13 13 13 13 13 13 
13 13 13 13 13 13 13 13 13 
13 13 13 13 13 13 13 13 13 
13 13 13 13 13 13 13 13 13 
13 13 13 13 13 13 13 13 13 
13 13 13 13 13 13 13 13 13 
13 13 13 13 13 13 13 13 13 
13 13 13 13 13 13 13 13 13 
13 13 13 13 13 13 13 13 13 
13 13 13 13 13 13 13 13 13 
13 13 13 13 13 13 13 13 13 
13 13 13 13 13 13 13 13 13 
13 13 13 13 13 13 13 13 13 
13 13 13 13 13 13 13 13 13 
13 13 13 13 13 13 13 13 13 
13 13 13 13 13 13 13 13 13 
13 13 13 13 13 13 13 13 13 
13 13 13 13 13 13 13 13 13 
13 13 13 13 13 13 13 13 13 
13 13 13 13 13 13 13 13 13 
13 13 13 13 13 13 13 13 13 
13 13 13 13 13 13 13 13 13 
13 13 13 13 13 13 13 13 13 
13 13 13 13 13 13 13 13 13 
13 13 13 13 13 13 13 13 13 
13 13 13 13 13 13 13 13 13 
13 13 13 13 13 13 13 13 13 
13 13 13 13 13 13 13 13 13 
13 13 13 13 13 13 13 13 13 
13 13 13 13 13 13 13 13 13 
13 13 13 13 13 13 13 13 13 
13 13 13 13 13 13 13 13 13 
13 13 13 13 13 13 13 13 13 
13 13 13 13 13 13 13 13 13 
13 13 13 13 13 13 13 13 13 
13 13 13 13 13 13 13 13 13 
13 13 13 13 13 13 13 13 13 
13 13 13 13 13 13 13 13 13 
13 13 13 13 13 13 13 13 13 
13 13 13 13 13 13 13 13 13 
13 13 13 13 13 13 13 13 13 
13 13 13 13 13 13 13 13 13 
13 13 13 13 13 13 13 13 13 
13 13 13 13 13 13 13 13 13 
13 13 13 13 13 13 13 13 13 
13 13 13 13 13 13 13 13 13 
13 13 13 13 13 13 13 13 13 
13 13 13 13 13 13 13 13 13 
13 13 13 13 13 13 13 13 13 
13 13 13 13 13 13 13 13 13 
13 13 13 13 13 13 13 13 13 
13 13 13 13 13 13 13 13 13 
13 13 13 13 13 13 13 13 13 
13 13 13 13 13 13 13 13 13 
13 13 13 13 13 13 13 13 13 
13 13 13 13 13 13 13 13 13 
13 13 13 13 13 13 13 13 13 
13 13 13 13 13 13 13 13 13 
13 13 13 13 13 13 13 13 13 
13 13 13 13 13 13 13 13 13 
13 13 13 13 13 13 13 13 13 
13 13 13 13 13 13 13 13 13 
13 13 13 13 13 13 13 13 13 
13 13 13 13 13 13 13 13 13 
13 13 13 13 13 13 13 13 13 
13 13 13 13 13 13 13 13 13 
13 13 13 13 13 13 13 13 13 
13 13 13 13 13 13 13 13 13 
13 13 13 13 13 13 13 13 13 
13 13 13 13 13 13 13 13 13 
13 13 13 13 13 13 13 13 13 
13 13 13 13 13 13 13 13 13 
13 13 13 13 13 13 13 13 13 
13 13 13 13 13 13 13 13 13 
13 13 13 13 13 13 13 13 13 
13 13 13 13 13 13 13 13 13 
13 13 13 13 13 13 13 13 13 
13 13 13 13 13 13 13 13 13 
13 13 13 13 13 13 13 13 13 
13 13 13 13 13 13 13 13 13 
13 13 13 13 13 13 13 13 13 
13 13 13 13 13 13 13 13 13 
13 13 13 13 13 13 13 13 13 
13 13 13 13 13 13 13 13 13 
13 13 13 13 13 13 13 13 13 
13 13 13 13 13 13 13 13 13 
13 13 13 13 13 13 13 13 13 
13 13 13 13 13 13 13 13 13 
13 13 13 13 13 13 13 13 13 
13 13 13 13 13 13 13 13 13 
13 13 13 13 13 13 13 13 13 
13 13 13 13 13 13 13 13 13 
13 13 13 13 13 13 13 13 13 
13 13 13 13 13 13 13 13 13 
13 13 13 13 13 13 13 13 13 
13 13 13 13 13 13 13 13 13 
13 13 13 13 13 13 13 13 13 
13 13 13 13 13 13 13 13 13 
13 13 13 13 13 13 13 13 13 
13 13 13 13 13 13 13 13 13 
13 13 13 13 13 13 13 13 13 
13 13 13 13 13 13 13 13 13 
13 13 13 13 13 13 13 13 13 
13 13 13 13 13 13 13 13 13 
13 13 13 13 13 13 13 13 13 
13 13 13 13 
