# vtk DataFile Version 4.2
vtk output
ASCII
DATASET POLYDATA
POINTS 1242 float
-15.9774 13.8352 -16.6621 -15.5983 13.432 -16.2036 -15.2272 13.4936 -16.8729 
-16.9364 13.925 -16.6646 -16.4652 13.5307 -16.0191 -17.7216 13.818 -16.7487 
-17.4495 13.5464 -16.0829 -18.1048 13.467 -16.436 -15.6385 13.771 -17.3043 
-15.3109 13.4206 -17.6381 -16.4118 13.9052 -17.3864 -17.3859 13.8469 -17.4034 
-18.1479 13.5272 -17.2158 -15.9873 13.5249 -17.9925 -16.965 13.549 -18.0754 
-17.8118 13.4622 -17.9093 -12.9853 12.833 -12.6101 -12.5675 12.4579 -12.116 
-12.1902 12.5343 -12.7915 -13.8669 12.8246 -12.7318 -13.3538 12.5099 -12.0471 
-14.1068 12.4436 -12.3339 -12.655 12.9136 -13.5938 -11.9423 12.6024 -13.5634 
-13.7001 13.007 -13.514 -14.5153 12.5719 -12.9369 -14.5561 12.7861 -13.5999 
-15.0078 12.3915 -13.472 -11.9658 12.8306 -14.4383 -11.6093 12.5184 -13.9962 
-11.2567 12.4394 -14.6688 -12.8017 12.9964 -14.6699 -13.6468 13.0092 -14.5311 
-14.7428 12.8615 -14.6013 -15.277 12.434 -14.259 -11.7619 12.8605 -15.5137 
-11.1275 12.5026 -15.765 -12.6386 12.9807 -15.5238 -13.6416 12.9895 -15.5309 
-14.526 12.9747 -15.38 -15.648 12.509 -14.9313 -15.691 12.9622 -15.5391 
-16.9914 12.978 -15.5208 -16.4688 12.4183 -15.0706 -18.0459 12.9835 -15.6993 
-17.4845 12.4275 -15.0258 -18.754 12.7163 -15.7499 -18.418 12.4399 -15.0922 
-19.0711 12.3755 -15.4282 -11.7693 12.8726 -16.5118 -11.1553 12.5076 -16.752 
-12.6334 12.9846 -16.5179 -13.6493 12.9781 -16.531 -14.7195 13.0921 -16.2649 
-18.6418 12.9942 -16.6205 -19.2394 12.4679 -16.2398 -11.8254 12.8983 -17.5332 
-11.1725 12.5438 -17.7966 -12.7001 13.0147 -17.5289 -13.7 12.9879 -17.5712 
-14.685 13.0985 -17.4615 -18.563 12.9984 -17.8351 -19.2215 12.4862 -17.2607 
-11.809 12.9293 -18.5827 -11.1272 12.5656 -18.8471 -12.6993 13.0463 -18.5572 
-13.7146 13.0105 -18.5852 -14.6952 12.9783 -18.5763 -15.6116 13.0981 -18.5236 
-16.6912 13.1469 -18.7258 -17.8203 13.1099 -18.6298 -18.6922 12.8089 -18.7229 
-19.227 12.4727 -18.2809 -11.6415 12.8028 -19.375 -11.1269 12.3857 -19.6009 
-12.4246 12.9094 -19.4271 -13.4414 12.8974 -19.4418 -14.4614 12.8402 -19.4391 
-15.4326 12.8216 -19.423 -16.3956 12.8233 -19.4297 -17.4098 12.8353 -19.4435 
-18.3643 12.7562 -19.4135 -19.1392 12.4667 -19.2082 -11.8187 12.3013 -19.9145 
-12.8507 12.531 -19.9125 -13.8505 12.4159 -20.0711 -15.0155 12.4898 -20.065 
-16.002 12.4689 -20.0614 -16.9848 12.4687 -20.0702 -17.9802 12.4743 -20.0589 
-18.7958 12.4101 -19.8803 -16.0199 11.801 -9.61476 -15.6517 11.1286 -9.1791 
-15.2483 11.4871 -9.81042 -16.9313 11.9118 -9.60417 -16.6976 11.3636 -9.12266 
-17.8521 11.8328 -9.7411 -17.5909 11.398 -9.20289 -18.2439 11.3514 -9.45284 
-15.6562 11.884 -10.5967 -14.9741 11.5493 -10.5514 -16.6241 12.0398 -10.4391 
-17.6208 12.0502 -10.4694 -18.7503 11.4324 -9.87612 -18.7786 11.9279 -10.4901 
-19.9656 11.925 -10.6502 -19.6911 11.4043 -10.1368 -20.7121 11.7982 -10.7186 
-20.4756 11.5268 -10.2614 -20.9948 11.2832 -10.4903 -11.8788 11.7648 -11.4667 
-11.6477 11.3614 -11.0086 -11.3728 11.351 -11.5533 -12.7394 12.0169 -11.608 
-12.3927 11.5079 -11.0015 -13.9545 11.9769 -11.6757 -13.4093 11.4868 -11.0403 
-14.9638 11.8379 -11.4592 -14.3422 11.4563 -10.9319 -15.8062 11.9499 -11.6502 
-16.6152 11.9929 -11.487 -17.6171 12.0165 -11.4822 -18.652 12.0345 -11.5048 
-19.6963 12.0498 -11.5302 -20.6009 11.922 -11.5026 -21.2428 11.3676 -11.2271 
-11.846 11.9973 -12.185 -11.3088 11.341 -12.4829 -14.8107 12.1374 -12.5798 
-15.6789 11.9327 -12.5472 -16.6486 11.9324 -12.5259 -17.6673 11.9512 -12.5192 
-18.6977 11.9838 -12.5401 -19.7031 12.0132 -12.5741 -20.5797 11.9116 -12.5484 
-21.2437 11.5474 -12.3014 -11.4927 12.0977 -13.4333 -11.0595 11.3937 -13.4507 
-15.7031 12.0411 -13.6882 -16.6845 11.9027 -13.5461 -17.716 11.9249 -13.5303 
-18.736 11.9569 -13.5476 -19.7297 11.9769 -13.5814 -20.5993 11.8729 -13.5744 
-21.2481 11.5381 -13.3382 -10.8741 11.8444 -14.3199 -10.7176 11.4429 -14.0593 
-10.3121 11.4259 -14.7287 -15.9553 12.1562 -14.5888 -16.7078 12.0328 -14.4465 
-17.7103 12.0491 -14.3926 -18.7917 12.0734 -14.5847 -19.7428 11.9761 -14.5808 
-20.5917 11.8542 -14.5642 -21.2286 11.5225 -14.3397 -10.6758 11.9817 -15.2813 
-10.1607 11.516 -15.8309 -19.7364 12.0875 -15.6611 -20.5712 11.8421 -15.55 
-21.2124 11.5132 -15.3169 -10.663 11.9965 -16.2661 -10.1654 11.4921 -16.8375 
-19.8531 12.1011 -16.8086 -20.5572 11.8257 -16.5474 -21.2019 11.4986 -16.2783 
-10.6739 11.9978 -17.2694 -10.1643 11.3503 -17.8614 -19.8512 12.0935 -17.8163 
-20.5483 11.806 -17.54 -21.1866 11.475 -17.2489 -10.6433 12.045 -18.3145 
-10.2825 11.5176 -18.757 -19.8442 12.1083 -18.8212 -20.5531 11.8044 -18.5314 
-21.1858 11.4543 -18.2389 -10.6193 11.9852 -19.2765 -10.3207 11.1794 -19.468 
-19.6863 12.1197 -19.8717 -20.565 11.8268 -19.5539 -21.2047 11.4577 -19.2486 
-10.9615 11.5651 -19.9229 -11.6456 11.5369 -20.0934 -12.6188 11.7187 -20.2299 
-13.7278 11.9711 -20.7157 -13.0914 11.3357 -20.8912 -14.7084 12.1512 -20.7023 
-15.7168 12.1307 -20.6936 -16.696 12.1126 -20.6915 -17.6946 12.128 -20.6945 
-18.8264 12.1353 -20.5826 -19.8438 12.0308 -20.774 -20.5658 11.8661 -20.5788 
-21.2329 11.4911 -20.2912 -13.6621 11.7637 -21.3339 -13.3854 11.2551 -21.5598 
-14.4038 11.8889 -21.4027 -15.3934 11.8568 -21.4084 -16.4052 11.8201 -21.3913 
-17.3985 11.8349 -21.3925 -18.3934 11.8479 -21.3954 -19.4151 11.8633 -21.4172 
-20.3666 11.7927 -21.4291 -21.1475 11.5029 -21.2526 -13.9864 11.4018 -21.8479 
-14.8327 11.504 -21.8906 -15.8165 11.3809 -22.0445 -16.9982 11.4801 -22.0288 
-17.9795 11.4656 -22.0359 -18.9742 11.2909 -22.0221 -19.9601 11.3308 -21.9146 
-20.9201 11.2351 -21.8701 -13.8924 10.7958 -9.75751 -13.5667 10.3992 -9.21173 
-13.0814 10.5272 -9.69475 -14.7884 11.036 -9.50869 -14.5574 10.5693 -9.0318 
-15.5072 10.474 -8.83752 -16.4168 10.6153 -8.86502 -17.3934 10.6667 -8.85953 
-18.8272 10.9144 -9.59569 -18.3517 10.6765 -9.07809 -19.131 10.4122 -9.40419 
-11.9518 10.9438 -10.5117 -11.4518 10.221 -10.2108 -11.1949 10.6777 -10.8206 
-12.9667 10.9783 -10.3749 -12.3209 10.3178 -9.94982 -13.8573 11.1062 -10.5057 
-14.5537 11.1735 -10.1733 -19.6303 10.6085 -9.8674 -20.6905 10.6247 -10.138 
-21.3877 10.5709 -10.5681 -11.0386 10.6196 -11.763 -21.671 10.6628 -11.1072 
-21.7173 10.9406 -11.8711 -22.0045 10.2095 -11.3078 -11.0132 10.7128 -12.7338 
-21.726 11.0123 -12.8683 -22.0488 10.3243 -12.2534 -10.6222 10.956 -13.6814 
-10.7432 10.4628 -13.0534 -10.2186 10.4685 -13.51 -21.6987 11.0014 -13.8795 
-22.024 10.3209 -13.2814 -8.91648 10.8013 -14.6668 -8.56892 10.3246 -13.997 
-8.24555 10.3542 -14.5716 -9.80642 10.9265 -14.3742 -9.32929 10.4767 -13.9342 
-21.6957 10.998 -14.8629 -22.0148 10.3062 -14.2841 -8.72434 10.8953 -15.5686 
-8.16212 10.3354 -15.5362 -9.53459 11.1564 -15.3286 -21.8792 10.9997 -15.8601 
-22.2266 10.2729 -15.2247 -8.72812 10.7935 -16.5295 -8.26624 10.1184 -16.4445 
-9.48595 11.1717 -16.3379 -21.8305 11.1437 -16.8366 -22.76 10.2963 -15.9359 
-22.5818 10.7986 -16.6138 -23.23 10.357 -16.5481 -8.8767 10.3258 -17.1131 
-9.4171 10.3228 -17.5249 -9.5081 10.9381 -17.2758 -21.8321 11.1239 -17.8226 
-22.5563 10.8696 -17.5253 -23.2166 10.5092 -17.2739 -9.76854 10.6537 -17.855 
-10.0472 10.5327 -18.4699 -21.8419 11.1074 -18.8327 -22.5585 10.8401 -18.539 
-23.1948 10.4991 -18.2577 -10.2375 10.1738 -19.4691 -21.8692 11.1163 -19.8647 
-22.5695 10.8307 -19.5587 -23.1835 10.467 -19.2773 -10.7686 10.4961 -19.9895 
-11.6858 10.7825 -20.1894 -12.4968 10.9071 -20.463 -12.2453 10.1083 -20.5357 
-21.8495 11.1311 -20.8806 -22.5732 10.8319 -20.5731 -23.2145 10.4683 -20.2814 
-12.7452 10.5379 -20.8615 -13.1559 10.374 -21.4579 -21.6543 11.0764 -21.6111 
-22.3922 10.7812 -21.4524 -23.1723 10.4828 -21.2261 -13.6593 10.6938 -21.9126 
-14.615 10.7326 -22.2288 -15.7131 10.9664 -22.7137 -15.0696 10.3448 -22.9001 
-16.728 11.1644 -22.6945 -17.7236 11.1454 -22.7137 -18.5738 10.9559 -22.6635 
-19.221 10.6014 -22.506 -19.7936 10.5971 -22.2202 -20.7057 10.6013 -22.1744 
-21.8144 10.587 -22.0678 -22.8102 10.4236 -21.8835 -15.6575 10.7814 -23.3147 
-15.4044 10.2594 -23.5342 -16.5545 10.9424 -23.5403 -17.495 11.0291 -23.4186 
-18.3452 10.8156 -23.6213 -19.1335 10.4437 -23.2203 -15.9986 10.4383 -23.8535 
-16.7359 10.5757 -24.1815 -17.2368 10.2157 -24.6211 -17.5489 10.8017 -24.2656 
-18.2847 10.5997 -24.4677 -18.8617 10.4236 -24.0278 -17.9596 10.2981 -24.8686 
-13.8052 9.83705 -7.69504 -13.7872 9.20244 -7.17921 -13.1357 9.38741 -7.71451 
-14.9635 9.86816 -7.61976 -14.6295 9.38418 -7.09193 -15.9832 9.86589 -7.65745 
-15.6484 9.39072 -7.12463 -16.91 9.77823 -7.79116 -16.4357 9.50105 -7.2815 
-17.1153 9.16078 -7.55698 -12.9088 9.79965 -8.29059 -12.7193 9.33691 -8.24663 
-12.4574 9.43441 -8.85991 -13.6297 10.1424 -8.59449 -14.659 10.1457 -8.36622 
-15.707 10.1307 -8.35646 -16.7181 10.14 -8.36612 -17.7983 9.30867 -7.97776 
-17.8301 10.0083 -8.3977 -18.9964 9.99644 -8.71534 -18.739 9.35532 -8.16318 
-19.7057 9.72542 -8.76949 -19.474 9.48585 -8.28706 -19.956 9.22526 -8.52306 
-12.7997 10.0452 -9.1793 -12.2585 9.59892 -9.52711 -19.7115 9.97046 -9.40437 
-20.2686 9.28905 -9.19779 -10.7992 9.98082 -10.4712 -10.8816 9.28118 -10.1775 
-10.4326 9.47463 -10.6768 -11.7578 9.47543 -9.89161 -20.5206 9.74695 -9.83482 
-21.8112 10.0501 -10.6651 -21.6108 9.43375 -10.033 -22.2202 9.46923 -10.6244 
-10.6597 9.98791 -11.1866 -10.2885 9.34853 -11.4854 -22.3423 9.59649 -11.4623 
-10.5598 10.0512 -12.4422 -9.98316 9.22875 -12.6821 -22.3074 9.60622 -12.4802 
-8.91942 9.91472 -13.4512 -8.85392 9.39184 -13.268 -8.32598 9.72244 -13.6919 
-9.7791 9.98074 -13.2352 -9.42009 9.529 -13.1338 -22.2798 9.56762 -13.5121 
-8.1452 9.61321 -14.4525 -22.3604 9.55491 -14.4673 -8.16236 9.55382 -15.5084 
-22.5982 9.58553 -15.1323 -22.6636 9.9178 -15.5265 -23.0616 9.5311 -15.5088 
-8.31234 9.42755 -16.3107 -23.7159 9.92242 -16.8881 -23.5115 9.7294 -16.1259 
-23.9871 9.17435 -16.321 -8.58723 9.68077 -16.8505 -9.31514 9.60921 -17.1681 
-9.7395 10.0516 -17.7416 -10.0221 9.33192 -17.5667 -23.705 10.0014 -17.805 
-24.1659 9.26034 -17.256 -10.0982 9.43201 -18.5648 -23.6669 9.98151 -18.8097 
[...]
CELL_DATA 2480
SCALARS scalars float
LOOKUP_TABLE default
18 18 18 18 18 18 18 18 18 
18 18 18 18 18 18 18 18 18 
18 18 18 18 18 18 18 18 18 
18 18 18 18 18 18 18 18 18 
18 18 18 18 18 18 18 18 18 
18 18 18 18 18 18 18 18 18 
18 18 18 18 18 18 18 18 18 
18 18 18 18 18 18 18 18 18 
18 18 18 18 18 18 18 18 18 
18 18 18 18 18 18 18 18 18 
18 18 18 18 18 18 18 18 18 
18 18 18 18 18 18 18 18 18 
18 18 18 18 18 18 18 18 18 
18 18 18 18 18 18 18 18 18 
18 18 18 18 18 18 18 18 18 
18 18 18 18 18 18 18 18 18 
18 18 18 18 18 18 18 18 18 
18 18 18 18 18 18 18 18 18 
18 18 18 18 18 18 18 18 18 
18 18 18 18 18 18 18 18 18 
18 18 18 18 18 18 18 18 18 
18 18 18 18 18 18 18 18 18 
18 18 18 18 18 18 18 18 18 
18 18 18 18 18 18 18 18 18 
18 18 18 18 18 18 18 18 18 
18 18 18 18 18 18 18 18 18 
18 18 18 18 18 18 18 18 18 
18 18 18 18 18 18 18 18 18 
18 18 18 18 18 18 18 18 18 
18 18 18 18 18 18 18 18 18 
18 18 18 18 18 18 18 18 18 
18 18 18 18 18 18 18 18 18 
18 18 18 18 18 18 18 18 18 
18 18 18 18 18 18 18 18 18 
18 18 18 18 18 18 18 18 18 
18 18 18 18 18 18 18 18 18 
18 18 18 18 18 18 18 18 18 
18 18 18 18 18 18 18 18 18 
18 18 18 18 18 18 18 18 18 
18 18 18 18 18 18 18 18 18 
18 18 18 18 18 18 18 18 18 
18 18 18 18 18 18 18 18 18 
18 18 18 18 18 18 18 18 18 
18 18 18 18 18 18 18 18 18 
18 18 18 18 18 18 18 18 18 
18 18 18 18 18 18 18 18 18 
18 18 18 18 18 18 18 18 18 
18 18 18 18 18 18 18 18 18 
18 18 18 18 18 18 18 18 18 
18 18 18 18 18 18 18 18 18 
18 18 18 18 18 18 18 18 18 
18 18 18 18 18 18 18 18 18 
18 18 18 18 18 18 18 18 18 
18 18 18 18 18 18 18 18 18 
18 18 18 18 18 18 18 18 18 
18 18 18 18 18 18 18 18 18 
18 18 18 18 18 18 18 18 18 
18 18 18 18 18 18 18 18 18 
18 18 18 18 18 18 18 18 18 
18 18 18 18 18 18 18 18 18 
18 18 18 18 18 18 18 18 18 
18 18 18 18 18 18 18 18 18 
18 18 18 18 18 18 18 18 18 
18 18 18 18 18 18 18 18 18 
18 18 18 18 18 18 18 18 18 
18 18 18 18 18 18 18 18 18 
18 18 18 18 18 18 18 18 18 
18 18 18 18 18 18 18 18 18 
18 18 18 18 18 18 18 18 18 
18 18 18 18 18 18 18 18 18 
18 18 18 18 18 18 18 18 18 
18 18 18 18 18 18 18 18 18 
18 18 18 18 18 18 18 18 18 
18 18 18 18 18 18 18 18 18 
18 18 18 18 18 18 18 18 18 
18 18 18 18 18 18 18 18 18 
18 18 18 18 18 18 18 18 18 
18 18 18 18 18 18 18 18 18 
18 18 18 18 18 18 18 18 18 
18 18 18 18 18 18 18 18 18 
18 18 18 18 18 18 18 18 18 
18 18 18 18 18 18 18 18 18 
18 18 18 18 18 18 18 18 18 
18 18 18 18 18 18 18 18 18 
18 18 18 18 18 18 18 18 18 
18 18 18 18 18 18 18 18 18 
18 18 18 18 18 18 18 18 18 
18 18 18 18 18 18 18 18 18 
18 18 18 18 18 18 18 18 18 
18 18 18 18 18 18 18 18 18 
18 18 18 18 18 18 18 18 18 
18 18 18 18 18 18 18 18 18 
18 18 18 18 18 18 18 18 18 
18 18 18 18 18 18 18 18 18 
18 18 18 18 18 18 18 18 18 
18 18 18 18 18 18 18 18 18 
18 18 18 18 18 18 18 18 18 
18 18 18 18 18 18 18 18 18 
18 18 18 18 18 18 18 18 18 
18 18 18 18 18 18 18 18 18 
18 18 18 18 18 18 18 18 18 
18 18 18 18 18 18 18 18 18 
18 18 18 18 18 18 18 18 18 
18 18 18 18 18 18 18 18 18 
18 18 18 18 18 18 18 18 18 
18 18 18 18 18 18 18 18 18 
18 18 18 18 18 18 18 18 18 
18 18 18 18 18 18 18 18 18 
18 18 18 18 18 18 18 18 18 
18 18 18 18 18 18 18 18 18 
18 18 18 18 18 18 18 18 18 
18 18 18 18 18 18 18 18 18 
18 18 18 18 18 18 18 18 18 
18 18 18 18 18 18 18 18 18 
18 18 18 18 18 18 18 18 18 
18 18 18 18 18 18 18 18 18 
18 18 18 18 18 18 18 18 18 
18 18 18 18 18 18 18 18 18 
18 18 18 18 18 18 18 18 18 
18 18 18 18 18 18 18 18 18 
18 18 18 18 18 18 18 18 18 
18 18 18 18 18 18 18 18 18 
18 18 18 18 18 18 18 18 18 
18 18 18 18 18 18 18 18 18 
18 18 18 18 18 18 18 18 18 
18 18 18 18 18 18 18 18 18 
18 18 18 18 18 18 18 18 18 
18 18 18 18 18 18 18 18 18 
18 18 18 18 18 18 18 18 18 
18 18 18 18 18 18 18 18 18 
18 18 18 18 18 18 18 18 18 
18 18 18 18 18 18 18 18 18 
18 18 18 18 18 18 18 18 18 
18 18 18 18 18 18 18 18 18 
18 18 18 18 18 18 18 18 18 
18 18 18 18 18 18 18 18 18 
18 18 18 18 18 18 18 18 18 
18 18 18 18 18 18 18 18 18 
18 18 18 18 18 18 18 18 18 
18 18 18 18 18 18 18 18 18 
18 18 18 18 18 18 18 18 18 
18 18 18 18 18 18 18 18 18 
18 18 18 18 18 18 18 18 18 
18 18 18 18 18 18 18 18 18 
18 18 18 18 18 18 18 18 18 
18 18 18 18 18 18 18 18 18 
18 18 18 18 18 18 18 18 18 
18 18 18 18 18 18 18 18 18 
18 18 18 18 18 18 18 18 18 
18 18 18 18 18 18 18 18 18 
18 18 18 18 18 18 18 18 18 
18 18 18 18 18 18 18 18 18 
18 18 18 18 18 18 18 18 18 
18 18 18 18 18 18 18 18 18 
18 18 18 18 18 18 18 18 18 
18 18 18 18 18 18 18 18 18 
18 18 18 18 18 18 18 18 18 
18 18 18 18 18 18 18 18 18 
18 18 18 18 18 18 18 18 18 
18 18 18 18 18 18 18 18 18 
18 18 18 18 18 18 18 18 18 
18 18 18 18 18 18 18 18 18 
18 18 18 18 18 18 18 18 18 
18 18 18 18 18 18 18 18 18 
18 18 18 18 18 18 18 18 18 
18 18 18 18 18 18 18 18 18 
18 18 18 18 18 18 18 18 18 
18 18 18 18 18 18 18 18 18 
18 18 18 18 18 18 18 18 18 
18 18 18 18 18 18 18 18 18 
18 18 18 18 18 18 18 18 18 
18 18 18 18 18 18 18 18 18 
18 18 18 18 18 18 18 18 18 
18 18 18 18 18 18 18 18 18 
18 18 18 18 18 18 18 18 18 
18 18 18 18 18 18 18 18 18 
18 18 18 18 18 18 18 18 18 
18 18 18 18 18 18 18 18 18 
18 18 18 18 18 18 18 18 18 
18 18 18 18 18 18 18 18 18 
18 18 18 18 18 18 18 18 18 
18 18 18 18 18 18 18 18 18 
18 18 18 18 18 18 18 18 18 
18 18 18 18 18 18 18 18 18 
18 18 18 18 18 18 18 18 18 
18 18 18 18 18 18 18 18 18 
18 18 18 18 18 18 18 18 18 
18 18 18 18 18 18 18 18 18 
18 18 18 18 18 18 18 18 18 
18 18 18 18 18 18 18 18 18 
18 18 18 18 18 18 18 18 18 
18 18 18 18 18 18 18 18 18 
18 18 18 18 18 18 18 18 18 
18 18 18 18 18 18 18 18 18 
18 18 18 18 18 18 18 18 18 
18 18 18 18 18 18 18 18 18 
18 18 18 18 18 18 18 18 18 
18 18 18 18 18 18 18 18 18 
18 18 18 18 18 18 18 18 18 
18 18 18 18 18 18 18 18 18 
18 18 18 18 18 18 18 18 18 
18 18 18 18 18 18 18 18 18 
18 18 18 18 18 18 18 18 18 
18 18 18 18 18 18 18 18 18 
18 18 18 18 18 18 18 18 18 
18 18 18 18 18 18 18 18 18 
18 18 18 18 18 18 18 18 18 
18 18 18 18 18 18 18 18 18 
18 18 18 18 18 18 18 18 18 
18 18 18 18 18 18 18 18 18 
18 18 18 18 18 18 18 18 18 
18 18 18 18 18 18 18 18 18 
18 18 18 18 18 18 18 18 18 
18 18 18 18 18 18 18 18 18 
18 18 18 18 18 18 18 18 18 
18 18 18 18 18 18 18 18 18 
18 18 18 18 18 18 18 18 18 
18 18 18 18 18 18 18 18 18 
18 18 18 18 18 18 18 18 18 
18 18 18 18 18 18 18 18 18 
18 18 18 18 18 18 18 18 18 
18 18 18 18 18 18 18 18 18 
18 18 18 18 18 18 18 18 18 
18 18 18 18 18 18 18 18 18 
18 18 18 18 18 18 18 18 18 
18 18 18 18 18 18 18 18 18 
18 18 18 18 18 18 18 18 18 
18 18 18 18 18 18 18 18 18 
18 18 18 18 18 18 18 18 18 
18 18 18 18 18 18 18 18 18 
18 18 18 18 18 18 18 18 18 
18 18 18 18 18 18 18 18 18 
18 18 18 18 18 18 18 18 18 
18 18 18 18 18 18 18 18 18 
18 18 18 18 18 18 18 18 18 
18 18 18 18 18 18 18 18 18 
18 18 18 18 18 18 18 18 18 
18 18 18 18 18 18 18 18 18 
18 18 18 18 18 18 18 18 18 
18 18 18 18 18 18 18 18 18 
18 18 18 18 18 18 18 18 18 
18 18 18 18 18 18 18 18 18 
18 18 18 18 18 18 18 18 18 
18 18 18 18 18 18 18 18 18 
18 18 18 18 18 18 18 18 18 
18 18 18 18 18 18 18 18 18 
18 18 18 18 18 18 18 18 18 
18 18 18 18 18 18 18 18 18 
18 18 18 18 18 18 18 18 18 
18 18 18 18 18 18 18 18 18 
18 18 18 18 18 18 18 18 18 
18 18 18 18 18 18 18 18 18 
18 18 18 18 18 18 18 18 18 
18 18 18 18 18 18 18 18 18 
18 18 18 18 18 18 18 18 18 
18 18 18 18 18 18 18 18 18 
18 18 18 18 18 18 18 18 18 
18 18 18 18 18 18 18 18 18 
18 18 18 18 18 18 18 18 18 
18 18 18 18 18 18 18 18 18 
18 18 18 18 18 18 18 18 18 
18 18 18 18 18 18 18 18 18 
18 18 18 18 18 18 18 18 18 
18 18 18 18 18 18 18 18 18 
18 18 18 18 18 18 18 18 18 
18 18 18 18 18 18 18 18 18 
18 18 18 18 18 18 18 18 18 
18 18 18 18 18 18 18 18 18 
18 18 18 18 18 18 18 18 18 
18 18 18 18 18 18 18 18 18 
18 18 18 18 18 18 18 18 18 
18 18 18 18 18 18 18 18 18 
18 18 18 18 18 18 18 18 18 
18 18 18 18 18 18 18 18 18 
18 18 18 18 18 18 18 18 18 
18 18 18 18 18 
