# vtk DataFile Version 4.2
vtk output
ASCII
DATASET POLYDATA
POINTS 1242 float
15.9774 -16.6621 13.8352 15.5983 -16.2036 13.432 15.2272 -16.8729 13.4936 
16.9364 -16.6646 13.925 16.4652 -16.0191 13.5307 17.7216 -16.7487 13.818 
17.4495 -16.0829 13.5464 18.1048 -16.436 13.467 15.6385 -17.3043 13.771 
15.3109 -17.6381 13.4206 16.4118 -17.3864 13.9052 17.3859 -17.4034 13.8469 
18.1479 -17.2158 13.5272 15.9873 -17.9925 13.5249 16.965 -18.0754 13.549 
17.8118 -17.9093 13.4622 12.9853 -12.6101 12.833 12.5675 -12.116 12.4579 
12.1902 -12.7915 12.5343 13.8669 -12.7318 12.8246 13.3538 -12.0471 12.5099 
14.1068 -12.3339 12.4436 12.655 -13.5938 12.9136 11.9423 -13.5634 12.6024 
13.7001 -13.514 13.007 14.5153 -12.9369 12.5719 14.5561 -13.5999 12.7861 
15.0078 -13.472 12.3915 11.9658 -14.4383 12.8306 11.6093 -13.9962 12.5184 
11.2567 -14.6688 12.4394 12.8017 -14.6699 12.9964 13.6468 -14.5311 13.0092 
14.7428 -14.6013 12.8615 15.277 -14.259 12.434 11.7619 -15.5137 12.8605 
11.1275 -15.765 12.5026 12.6386 -15.5238 12.9807 13.6416 -15.5309 12.9895 
14.526 -15.38 12.9747 15.648 -14.9313 12.509 15.691 -15.5391 12.9622 
16.9914 -15.5208 12.978 16.4688 -15.0706 12.4183 18.0459 -15.6993 12.9835 
17.4845 -15.0258 12.4275 18.754 -15.7499 12.7163 18.418 -15.0922 12.4399 
19.0711 -15.4282 12.3755 11.7693 -16.5118 12.8726 11.1553 -16.752 12.5076 
12.6334 -16.5179 12.9846 13.6493 -16.531 12.9781 14.7195 -16.2649 13.0921 
18.6418 -16.6205 12.9942 19.2394 -16.2398 12.4679 11.8254 -17.5332 12.8983 
11.1725 -17.7966 12.5438 12.7001 -17.5289 13.0147 13.7 -17.5712 12.9879 
14.685 -17.4615 13.0985 18.563 -17.8351 12.9984 19.2215 -17.2607 12.4862 
11.809 -18.5827 12.9293 11.1272 -18.8471 12.5656 12.6993 -18.5572 13.0463 
13.7146 -18.5852 13.0105 14.6952 -18.5763 12.9783 15.6116 -18.5236 13.0981 
16.6912 -18.7258 13.1469 17.8203 -18.6298 13.1099 18.6922 -18.7229 12.8089 
19.227 -18.2809 12.4727 11.6415 -19.375 12.8028 11.1269 -19.6009 12.3857 
12.4246 -19.4271 12.9094 13.4414 -19.4418 12.8974 14.4614 -19.4391 12.8402 
15.4326 -19.423 12.8216 16.3956 -19.4297 12.8233 17.4098 -19.4435 12.8353 
18.3643 -19.4135 12.7562 19.1392 -19.2082 12.4667 11.8187 -19.9145 12.3013 
12.8507 -19.9125 12.531 13.8505 -20.0711 12.4159 15.0155 -20.065 12.4898 
16.002 -20.0614 12.4689 16.9848 -20.0702 12.4687 17.9802 -20.0589 12.4743 
18.7958 -19.8803 12.4101 16.0199 -9.61476 11.801 15.6517 -9.1791 11.1286 
15.2483 -9.81042 11.4871 16.9313 -9.60417 11.9118 16.6976 -9.12266 11.3636 
17.8521 -9.7411 11.8328 17.5909 -9.20289 11.398 18.2439 -9.45284 11.3514 
15.6562 -10.5967 11.884 14.9741 -10.5514 11.5493 16.6241 -10.4391 12.0398 
17.6208 -10.4694 12.0502 18.7503 -9.87612 11.4324 18.7786 -10.4901 11.9279 
19.9656 -10.6502 11.925 19.6911 -10.1368 11.4043 20.7121 -10.7186 11.7982 
20.4756 -10.2614 11.5268 20.9948 -10.4903 11.2832 11.8788 -11.4667 11.7648 
11.6477 -11.0086 11.3614 11.3728 -11.5533 11.351 12.7394 -11.608 12.0169 
12.3927 -11.0015 11.5079 13.9545 -11.6757 11.9769 13.4093 -11.0403 11.4868 
14.9638 -11.4592 11.8379 14.3422 -10.9319 11.4563 15.8062 -11.6502 11.9499 
16.6152 -11.487 11.9929 17.6171 -11.4822 12.0165 18.652 -11.5048 12.0345 
19.6963 -11.5302 12.0498 20.6009 -11.5026 11.922 21.2428 -11.2271 11.3676 
11.846 -12.185 11.9973 11.3088 -12.4829 11.341 14.8107 -12.5798 12.1374 
15.6789 -12.5472 11.9327 16.6486 -12.5259 11.9324 17.6673 -12.5192 11.9512 
18.6977 -12.5401 11.9838 19.7031 -12.5741 12.0132 20.5797 -12.5484 11.9116 
21.2437 -12.3014 11.5474 11.4927 -13.4333 12.0977 11.0595 -13.4507 11.3937 
15.7031 -13.6882 12.0411 16.6845 -13.5461 11.9027 17.716 -13.5303 11.9249 
18.736 -13.5476 11.9569 19.7297 -13.5814 11.9769 20.5993 -13.5744 11.8729 
21.2481 -13.3382 11.5381 10.8741 -14.3199 11.8444 10.7176 -14.0593 11.4429 
10.3121 -14.7287 11.4259 15.9553 -14.5888 12.1562 16.7078 -14.4465 12.0328 
17.7103 -14.3926 12.0491 18.7917 -14.5847 12.0734 19.7428 -14.5808 11.9761 
20.5917 -14.5642 11.8542 21.2286 -14.3397 11.5225 10.6758 -15.2813 11.9817 
10.1607 -15.8309 11.516 19.7364 -15.6611 12.0875 20.5712 -15.55 11.8421 
21.2124 -15.3169 11.5132 10.663 -16.2661 11.9965 10.1654 -16.8375 11.4921 
19.8531 -16.8086 12.1011 20.5572 -16.5474 11.8257 21.2019 -16.2783 11.4986 
10.6739 -17.2694 11.9978 10.1643 -17.8614 11.3503 19.8512 -17.8163 12.0935 
20.5483 -17.54 11.806 21.1866 -17.2489 11.475 10.6433 -18.3145 12.045 
10.2825 -18.757 11.5176 19.8442 -18.8212 12.1083 20.5531 -18.5314 11.8044 
21.1858 -18.2389 11.4543 10.6193 -19.2765 11.9852 10.3207 -19.468 11.1794 
19.6863 -19.8717 12.1197 20.565 -19.5539 11.8268 21.2047 -19.2486 11.4577 
10.9615 -19.9229 11.5651 11.6456 -20.0934 11.5369 12.6188 -20.2299 11.7187 
13.7278 -20.7157 11.9711 13.0914 -20.8912 11.3357 14.7084 -20.7023 12.1512 
15.7168 -20.6936 12.1307 16.696 -20.6915 12.1126 17.6946 -20.6945 12.128 
18.8264 -20.5826 12.1353 19.8438 -20.774 12.0308 20.5658 -20.5788 11.8661 
21.2329 -20.2912 11.4911 13.6621 -21.3339 11.7637 13.3854 -21.5598 11.2551 
14.4038 -21.4027 11.8889 15.3934 -21.4084 11.8568 16.4052 -21.3913 11.8201 
17.3985 -21.3925 11.8349 18.3934 -21.3954 11.8479 19.4151 -21.4172 11.8633 
20.3666 -21.4291 11.7927 21.1475 -21.2526 11.5029 13.9864 -21.8479 11.4018 
14.8327 -21.8906 11.504 15.8165 -22.0445 11.3809 16.9982 -22.0288 11.4801 
17.9795 -22.0359 11.4656 18.9742 -22.0221 11.2909 19.9601 -21.9146 11.3308 
20.9201 -21.8701 11.2351 13.8924 -9.75751 10.7958 13.5667 -9.21173 10.3992 
13.0814 -9.69475 10.5272 14.7884 -9.50869 11.036 14.5574 -9.0318 10.5693 
15.5072 -8.83752 10.474 16.4168 -8.86502 10.6153 17.3934 -8.85953 10.6667 
18.8272 -9.59569 10.9144 18.3517 -9.07809 10.6765 19.131 -9.40419 10.4122 
11.9518 -10.5117 10.9438 11.4518 -10.2108 10.221 11.1949 -10.8206 10.6777 
12.9667 -10.3749 10.9783 12.3209 -9.94982 10.3178 13.8573 -10.5057 11.1062 
14.5537 -10.1733 11.1735 19.6303 -9.8674 10.6085 20.6905 -10.138 10.6247 
21.3877 -10.5681 10.5709 11.0386 -11.763 10.6196 21.671 -11.1072 10.6628 
21.7173 -11.8711 10.9406 22.0045 -11.3078 10.2095 11.0132 -12.7338 10.7128 
21.726 -12.8683 11.0123 22.0488 -12.2534 10.3243 10.6222 -13.6814 10.956 
10.7432 -13.0534 10.4628 10.2186 -13.51 10.4685 21.6987 -13.8795 11.0014 
22.024 -13.2814 10.3209 8.91648 -14.6668 10.8013 8.56892 -13.997 10.3246 
8.24555 -14.5716 10.3542 9.80642 -14.3742 10.9265 9.32929 -13.9342 10.4767 
21.6957 -14.8629 10.998 22.0148 -14.2841 10.3062 8.72434 -15.5686 10.8953 
8.16212 -15.5362 10.3354 9.53459 -15.3286 11.1564 21.8792 -15.8601 10.9997 
22.2266 -15.2247 10.2729 8.72812 -16.5295 10.7935 8.26624 -16.4445 10.1184 
9.48595 -16.3379 11.1717 21.8305 -16.8366 11.1437 22.76 -15.9359 10.2963 
22.5818 -16.6138 10.7986 23.23 -16.5481 10.357 8.8767 -17.1131 10.3258 
9.4171 -17.5249 10.3228 9.5081 -17.2758 10.9381 21.8321 -17.8226 11.1239 
22.5563 -17.5253 10.8696 23.2166 -17.2739 10.5092 9.76854 -17.855 10.6537 
10.0472 -18.4699 10.5327 21.8419 -18.8327 11.1074 22.5585 -18.539 10.8401 
23.1948 -18.2577 10.4991 10.2375 -19.4691 10.1738 21.8692 -19.8647 11.1163 
22.5695 -19.5587 10.8307 23.1835 -19.2773 10.467 10.7686 -19.9895 10.4961 
11.6858 -20.1894 10.7825 12.4968 -20.463 10.9071 12.2453 -20.5357 10.1083 
21.8495 -20.8806 11.1311 22.5732 -20.5731 10.8319 23.2145 -20.2814 10.4683 
12.7452 -20.8615 10.5379 13.1559 -21.4579 10.374 21.6543 -21.6111 11.0764 
22.3922 -21.4524 10.7812 23.1723 -21.2261 10.4828 13.6593 -21.9126 10.6938 
14.615 -22.2288 10.7326 15.7131 -22.7137 10.9664 15.0696 -22.9001 10.3448 
16.728 -22.6945 11.1644 17.7236 -22.7137 11.1454 18.5738 -22.6635 10.9559 
19.221 -22.506 10.6014 19.7936 -22.2202 10.5971 20.7057 -22.1744 10.6013 
21.8144 -22.0678 10.587 22.8102 -21.8835 10.4236 15.6575 -23.3147 10.7814 
15.4044 -23.5342 10.2594 16.5545 -23.5403 10.9424 17.495 -23.4186 11.0291 
18.3452 -23.6213 10.8156 19.1335 -23.2203 10.4437 15.9986 -23.8535 10.4383 
16.7359 -24.1815 10.5757 17.2368 -24.6211 10.2157 17.5489 -24.2656 10.8017 
18.2847 -24.4677 10.5997 18.8617 -24.0278 10.4236 17.9596 -24.8686 10.2981 
13.8052 -7.69504 9.83705 13.7872 -7.17921 9.20244 13.1357 -7.71451 9.38741 
14.9635 -7.61976 9.86816 14.6295 -7.09193 9.38418 15.9832 -7.65745 9.86589 
15.6484 -7.12463 9.39072 16.91 -7.79116 9.77823 16.4357 -7.2815 9.50105 
17.1153 -7.55698 9.16078 12.9088 -8.29059 9.79965 12.7193 -8.24663 9.33691 
12.4574 -8.85991 9.43441 13.6297 -8.59449 10.1424 14.659 -8.36622 10.1457 
15.707 -8.35646 10.1307 16.7181 -8.36612 10.14 17.7983 -7.97776 9.30867 
17.8301 -8.3977 10.0083 18.9964 -8.71534 9.99644 18.739 -8.16318 9.35532 
19.7057 -8.76949 9.72542 19.474 -8.28706 9.48585 19.956 -8.52306 9.22526 
12.7997 -9.1793 10.0452 12.2585 -9.52711 9.59892 19.7115 -9.40437 9.97046 
20.2686 -9.19779 9.28905 10.7992 -10.4712 9.98082 10.8816 -10.1775 9.28118 
10.4326 -10.6768 9.47463 11.7578 -9.89161 9.47543 20.5206 -9.83482 9.74695 
21.8112 -10.6651 10.0501 21.6108 -10.033 9.43375 22.2202 -10.6244 9.46923 
10.6597 -11.1866 9.98791 10.2885 -11.4854 9.34853 22.3423 -11.4623 9.59649 
10.5598 -12.4422 10.0512 9.98316 -12.6821 9.22875 22.3074 -12.4802 9.60622 
8.91942 -13.4512 9.91472 8.85392 -13.268 9.39184 8.32598 -13.6919 9.72244 
9.7791 -13.2352 9.98074 9.42009 -13.1338 9.529 22.2798 -13.5121 9.56762 
8.1452 -14.4525 9.61321 22.3604 -14.4673 9.55491 8.16236 -15.5084 9.55382 
22.5982 -15.1323 9.58553 22.6636 -15.5265 9.9178 23.0616 -15.5088 9.5311 
8.31234 -16.3107 9.42755 23.7159 -16.8881 9.92242 23.5115 -16.1259 9.7294 
23.9871 -16.321 9.17435 8.58723 -16.8505 9.68077 9.31514 -17.1681 9.60921 
9.7395 -17.7416 10.0516 10.0221 -17.5667 9.33192 23.705 -17.805 10.0014 
24.1659 -17.256 9.26034 10.0982 -18.5648 9.43201 23.6669 -18.8097 9.98151 
24.1573 -18.2756 9.45745 10.2191 -19.4338 9.13534 23.6869 -19.8113 9.96079 
24.135 -19.2681 9.4576 10.7216 -19.9833 9.44469 11.5072 -20.238 9.68577 
12.1687 -20.5717 9.12654 23.9015 -20.8627 10.0043 24.2506 -20.2276 9.4723 
12.6959 -21.043 9.66472 13.1702 -21.5861 9.19052 23.6971 -21.8829 10.1377 
24.5777 -20.9795 9.55003 24.608 -21.6685 9.82161 25.1162 -21.4665 9.24728 
[...]
CELL_DATA 2480
SCALARS scalars float
LOOKUP_TABLE default
18 18 18 18 18 18 18 18 18 
18 18 18 18 18 18 18 18 18 
18 18 18 18 18 18 18 18 18 
18 18 18 18 18 18 18 18 18 
18 18 18 18 18 18 18 18 18 
18 18 18 18 18 18 18 18 18 
18 18 18 18 18 18 18 18 18 
18 18 18 18 18 18 18 18 18 
18 18 18 18 18 18 18 18 18 
18 18 18 18 18 18 18 18 18 
18 18 18 18 18 18 18 18 18 
18 18 18 18 18 18 18 18 18 
18 18 18 18 18 18 18 18 18 
18 18 18 18 18 18 18 18 18 
18 18 18 18 18 18 18 18 18 
18 18 18 18 18 18 18 18 18 
18 18 18 18 18 18 18 18 18 
18 18 18 18 18 18 18 18 18 
18 18 18 18 18 18 18 18 18 
18 18 18 18 18 18 18 18 18 
18 18 18 18 18 18 18 18 18 
18 18 18 18 18 18 18 18 18 
18 18 18 18 18 18 18 18 18 
18 18 18 18 18 18 18 18 18 
18 18 18 18 18 18 18 18 18 
18 18 18 18 18 18 18 18 18 
18 18 18 18 18 18 18 18 18 
18 18 18 18 18 18 18 18 18 
18 18 18 18 18 18 18 18 18 
18 18 18 18 18 18 18 18 18 
18 18 18 18 18 18 18 18 18 
18 18 18 18 18 18 18 18 18 
18 18 18 18 18 18 18 18 18 
18 18 18 18 18 18 18 18 18 
18 18 18 18 18 18 18 18 18 
18 18 18 18 18 18 18 18 18 
18 18 18 18 18 18 18 18 18 
18 18 18 18 18 18 18 18 18 
18 18 18 18 18 18 18 18 18 
18 18 18 18 18 18 18 18 18 
18 18 18 18 18 18 18 18 18 
18 18 18 18 18 18 18 18 18 
18 18 18 18 18 18 18 18 18 
18 18 18 18 18 18 18 18 18 
18 18 18 18 18 18 18 18 18 
18 18 18 18 18 18 18 18 18 
18 18 18 18 18 18 18 18 18 
18 18 18 18 18 18 18 18 18 
18 18 18 18 18 18 18 18 18 
18 18 18 18 18 18 18 18 18 
18 18 18 18 18 18 18 18 18 
18 18 18 18 18 18 18 18 18 
18 18 18 18 18 18 18 18 18 
18 18 18 18 18 18 18 18 18 
18 18 18 18 18 18 18 18 18 
18 18 18 18 18 18 18 18 18 
18 18 18 18 18 18 18 18 18 
18 18 18 18 18 18 18 18 18 
18 18 18 18 18 18 18 18 18 
18 18 18 18 18 18 18 18 18 
18 18 18 18 18 18 18 18 18 
18 18 18 18 18 18 18 18 18 
18 18 18 18 18 18 18 18 18 
18 18 18 18 18 18 18 18 18 
18 18 18 18 18 18 18 18 18 
18 18 18 18 18 18 18 18 18 
18 18 18 18 18 18 18 18 18 
18 18 18 18 18 18 18 18 18 
18 18 18 18 18 18 18 18 18 
18 18 18 18 18 18 18 18 18 
18 18 18 18 18 18 18 18 18 
18 18 18 18 18 18 18 18 18 
18 18 18 18 18 18 18 18 18 
18 18 18 18 18 18 18 18 18 
18 18 18 18 18 18 18 18 18 
18 18 18 18 18 18 18 18 18 
18 18 18 18 18 18 18 18 18 
18 18 18 18 18 18 18 18 18 
18 18 18 18 18 18 18 18 18 
18 18 18 18 18 18 18 18 18 
18 18 18 18 18 18 18 18 18 
18 18 18 18 18 18 18 18 18 
18 18 18 18 18 18 18 18 18 
18 18 18 18 18 18 18 18 18 
18 18 18 18 18 18 18 18 18 
18 18 18 18 18 18 18 18 18 
18 18 18 18 18 18 18 18 18 
18 18 18 18 18 18 18 18 18 
18 18 18 18 18 18 18 18 18 
18 18 18 18 18 18 18 18 18 
18 18 18 18 18 18 18 18 18 
18 18 18 18 18 18 18 18 18 
18 18 18 18 18 18 18 18 18 
18 18 18 18 18 18 18 18 18 
18 18 18 18 18 18 18 18 18 
18 18 18 18 18 18 18 18 18 
18 18 18 18 18 18 18 18 18 
18 18 18 18 18 18 18 18 18 
18 18 18 18 18 18 18 18 18 
18 18 18 18 18 18 18 18 18 
18 18 18 18 18 18 18 18 18 
18 18 18 18 18 18 18 18 18 
18 18 18 18 18 18 18 18 18 
18 18 18 18 18 18 18 18 18 
18 18 18 18 18 18 18 18 18 
18 18 18 18 18 18 18 18 18 
18 18 18 18 18 18 18 18 18 
18 18 18 18 18 18 18 18 18 
18 18 18 18 18 18 18 18 18 
18 18 18 18 18 18 18 18 18 
18 18 18 18 18 18 18 18 18 
18 18 18 18 18 18 18 18 18 
18 18 18 18 18 18 18 18 18 
18 18 18 18 18 18 18 18 18 
18 18 18 18 18 18 18 18 18 
18 18 18 18 18 18 18 18 18 
18 18 18 18 18 18 18 18 18 
18 18 18 18 18 18 18 18 18 
18 18 18 18 18 18 18 18 18 
18 18 18 18 18 18 18 18 18 
18 18 18 18 18 18 18 18 18 
18 18 18 18 18 18 18 18 18 
18 18 18 18 18 18 18 18 18 
18 18 18 18 18 18 18 18 18 
18 18 18 18 18 18 18 18 18 
18 18 18 18 18 18 18 18 18 
18 18 18 18 18 18 18 18 18 
18 18 18 18 18 18 18 18 18 
18 18 18 18 18 18 18 18 18 
18 18 18 18 18 18 18 18 18 
18 18 18 18 18 18 18 18 18 
18 18 18 18 18 18 18 18 18 
18 18 18 18 18 18 18 18 18 
18 18 18 18 18 18 18 18 18 
18 18 18 18 18 18 18 18 18 
18 18 18 18 18 18 18 18 18 
18 18 18 18 18 18 18 18 18 
18 18 18 18 18 18 18 18 18 
18 18 18 18 18 18 18 18 18 
18 18 18 18 18 18 18 18 18 
18 18 18 18 18 18 18 18 18 
18 18 18 18 18 18 18 18 18 
18 18 18 18 18 18 18 18 18 
18 18 18 18 18 18 18 18 18 
18 18 18 18 18 18 18 18 18 
18 18 18 18 18 18 18 18 18 
18 18 18 18 18 18 18 18 18 
18 18 18 18 18 18 18 18 18 
18 18 18 18 18 18 18 18 18 
18 18 18 18 18 18 18 18 18 
18 18 18 18 18 18 18 18 18 
18 18 18 18 18 18 18 18 18 
18 18 18 18 18 18 18 18 18 
18 18 18 18 18 18 18 18 18 
18 18 18 18 18 18 18 18 18 
18 18 18 18 18 18 18 18 18 
18 18 18 18 18 18 18 18 18 
18 18 18 18 18 18 18 18 18 
18 18 18 18 18 18 18 18 18 
18 18 18 18 18 18 18 18 18 
18 18 18 18 18 18 18 18 18 
18 18 18 18 18 18 18 18 18 
18 18 18 18 18 18 18 18 18 
18 18 18 18 18 18 18 18 18 
18 18 18 18 18 18 18 18 18 
18 18 18 18 18 18 18 18 18 
18 18 18 18 18 18 18 18 18 
18 18 18 18 18 18 18 18 18 
18 18 18 18 18 18 18 18 18 
18 18 18 18 18 18 18 18 18 
18 18 18 18 18 18 18 18 18 
18 18 18 18 18 18 18 18 18 
18 18 18 18 18 18 18 18 18 
18 18 18 18 18 18 18 18 18 
18 18 18 18 18 18 18 18 18 
18 18 18 18 18 18 18 18 18 
18 18 18 18 18 18 18 18 18 
18 18 18 18 18 18 18 18 18 
18 18 18 18 18 18 18 18 18 
18 18 18 18 18 18 18 18 18 
18 18 18 18 18 18 18 18 18 
18 18 18 18 18 18 18 18 18 
18 18 18 18 18 18 18 18 18 
18 18 18 18 18 18 18 18 18 
18 18 18 18 18 18 18 18 18 
18 18 18 18 18 18 18 18 18 
18 18 18 18 18 18 18 18 18 
18 18 18 18 18 18 18 18 18 
18 18 18 18 18 18 18 18 18 
18 18 18 18 18 18 18 18 18 
18 18 18 18 18 18 18 18 18 
18 18 18 18 18 18 18 18 18 
18 18 18 18 18 18 18 18 18 
18 18 18 18 18 18 18 18 18 
18 18 18 18 18 18 18 18 18 
18 18 18 18 18 18 18 18 18 
18 18 18 18 18 18 18 18 18 
18 18 18 18 18 18 18 18 18 
18 18 18 18 18 18 18 18 18 
18 18 18 18 18 18 18 18 18 
18 18 18 18 18 18 18 18 18 
18 18 18 18 18 18 18 18 18 
18 18 18 18 18 18 18 18 18 
18 18 18 18 18 18 18 18 18 
18 18 18 18 18 18 18 18 18 
18 18 18 18 18 18 18 18 18 
18 18 18 18 18 18 18 18 18 
18 18 18 18 18 18 18 18 18 
18 18 18 18 18 18 18 18 18 
18 18 18 18 18 18 18 18 18 
18 18 18 18 18 18 18 18 18 
18 18 18 18 18 18 18 18 18 
18 18 18 18 18 18 18 18 18 
18 18 18 18 18 18 18 18 18 
18 18 18 18 18 18 18 18 18 
18 18 18 18 18 18 18 18 18 
18 18 18 18 18 18 18 18 18 
18 18 18 18 18 18 18 18 18 
18 18 18 18 18 18 18 18 18 
18 18 18 18 18 18 18 18 18 
18 18 18 18 18 18 18 18 18 
18 18 18 18 18 18 18 18 18 
18 18 18 18 18 18 18 18 18 
18 18 18 18 18 18 18 18 18 
18 18 18 18 18 18 18 18 18 
18 18 18 18 18 18 18 18 18 
18 18 18 18 18 18 18 18 18 
18 18 18 18 18 18 18 18 18 
18 18 18 18 18 18 18 18 18 
18 18 18 18 18 18 18 18 18 
18 18 18 18 18 18 18 18 18 
18 18 18 18 18 18 18 18 18 
18 18 18 18 18 18 18 18 18 
18 18 18 18 18 18 18 18 18 
18 18 18 18 18 18 18 18 18 
18 18 18 18 18 18 18 18 18 
18 18 18 18 18 18 18 18 18 
18 18 18 18 18 18 18 18 18 
18 18 18 18 18 18 18 18 18 
18 18 18 18 18 18 18 18 18 
18 18 18 18 18 18 18 18 18 
18 18 18 18 18 18 18 18 18 
18 18 18 18 18 18 18 18 18 
18 18 18 18 18 18 18 18 18 
18 18 18 18 18 18 18 18 18 
18 18 18 18 18 18 18 18 18 
18 18 18 18 18 18 18 18 18 
18 18 18 18 18 18 18 18 18 
18 18 18 18 18 18 18 18 18 
18 18 18 18 18 18 18 18 18 
18 18 18 18 18 18 18 18 18 
18 18 18 18 18 18 18 18 18 
18 18 18 18 18 18 18 18 18 
18 18 18 18 18 18 18 18 18 
18 18 18 18 18 18 18 18 18 
18 18 18 18 18 18 18 18 18 
18 18 18 18 18 18 18 18 18 
18 18 18 18 18 18 18 18 18 
18 18 18 18 18 18 18 18 18 
18 18 18 18 18 18 18 18 18 
18 18 18 18 18 18 18 18 18 
18 18 18 18 18 18 18 18 18 
18 18 18 18 18 18 18 18 18 
18 18 18 18 18 18 18 18 18 
18 18 18 18 18 18 18 18 18 
18 18 18 18 18 18 18 18 18 
18 18 18 18 18 18 18 18 18 
18 18 18 18 18 18 18 18 18 
18 18 18 18 18 18 18 18 18 
18 18 18 18 18 18 18 18 18 
18 18 18 18 18 18 18 18 18 
18 18 18 18 18 18 18 18 18 
18 18 18 18 18 18 18 18 18 
18 18 18 18 18 18 18 18 18 
18 18 18 18 18 18 18 18 18 
18 18 18 18 18 
