# vtk DataFile Version 4.2
vtk output
ASCII
DATASET POLYDATA
POINTS 1534 float
-11.9448 22.8227 2.39788 -11.7361 22.1855 2.84258 -11.3315 22.5128 2.30242 
-12.9641 22.9177 2.40052 -12.6253 22.3569 2.9155 -14.036 22.9351 2.37072 
-13.6928 22.4 2.90288 -14.7896 22.8026 2.28361 -14.5195 22.5212 2.77604 
-15.013 22.289 2.52419 -11.7354 22.9186 1.52333 -11.2309 22.3994 1.51614 
-12.6425 23.0787 1.51892 -13.7036 23.0882 1.49634 -14.63 22.9233 1.49413 
-15.1519 22.3803 1.76109 -11.7882 22.9181 0.471105 -11.2826 22.3926 0.454758 
-12.6633 23.075 0.452519 -13.5133 23.0734 0.607944 -14.4078 22.8758 0.373518 
-15.0647 22.284 0.620379 -11.7821 22.9481 -0.581727 -11.2895 22.4012 -0.588701 
-12.6565 23.0846 -0.631005 -13.7184 22.9533 -0.483662 -14.446 22.6323 -0.558964 
-14.8254 22.3757 -0.196171 -11.6574 22.8185 -1.34425 -11.3451 22.1884 -1.43884 
-12.3843 22.9556 -1.49186 -13.3698 22.8463 -1.4769 -14.18 22.5502 -1.28436 
-11.9895 22.3989 -1.88013 -12.9661 22.4018 -1.97579 -13.9145 22.2553 -1.88248 
-11.7217 21.6132 3.0274 -11.1746 21.6597 2.43773 -12.3881 21.6231 3.1596 
-13.4242 21.6282 3.18825 -14.5039 21.7372 3.03125 -15.1941 21.6487 2.41589 
-10.9895 21.6323 1.25893 -15.343 21.5055 1.31666 -11.0212 21.6326 0.197792 
-15.2077 21.528 0.441943 -11.0268 21.6288 -0.811747 -14.7335 22.1114 -0.934421 
-15.0732 21.5442 -0.300553 -11.1286 21.5798 -1.44732 -14.5492 22.0109 -1.59345 
-15.2092 21.188 -1.44211 -11.5908 21.4625 -1.99653 -12.7294 21.672 -2.21953 
-13.763 21.6419 -2.22801 -14.5874 21.4918 -2.08295 -14.9438 20.8141 4.26101 
-14.6496 20.1398 4.82775 -14.1501 20.5382 4.34984 -15.7546 20.7597 4.28852 
-15.5154 20.4821 4.75052 -16.0264 20.2827 4.51673 -11.7629 20.9986 3.29438 
-11.6444 20.2668 3.70991 -11.1754 20.4871 3.32559 -12.9292 20.9684 3.51334 
-12.3812 20.2809 3.94092 -14.0286 20.9917 3.68506 -13.3769 20.4629 4.05789 
-14.9623 21.1424 3.29539 -15.6256 20.8784 3.51099 -16.2721 20.3474 3.76872 
-10.8636 20.8659 2.71584 -10.6752 20.1866 2.91038 -10.4006 20.5011 2.25478 
-15.6079 21.0144 2.3517 -16.2355 20.5418 2.73661 -10.6516 20.9885 1.79429 
-10.1569 20.3896 1.37114 -15.6171 20.8087 1.36878 -16.1358 20.4965 1.7928 
-10.6536 20.9609 0.751171 -10.1563 20.4612 0.208028 -15.2785 20.7538 0.485244 
-15.8359 20.1205 1.03637 -10.6694 20.9649 -0.293961 -10.1794 20.4618 -0.831255 
-15.2367 20.3138 -0.519933 -10.7862 20.9802 -1.32072 -10.3269 20.4219 -1.65292 
-15.8286 20.4146 -1.12694 -16.0012 20.8744 -1.48376 -16.5566 20.751 -1.6165 
-16.504 20.5577 -1.31359 -16.9339 20.2946 -1.48587 -10.924 20.6954 -2.13505 
-11.7175 20.9655 -2.7087 -11.0845 20.3614 -2.9218 -12.6602 21.1627 -2.70655 
-13.7214 21.1464 -2.73184 -14.603 21.0012 -2.72595 -15.229 20.6211 -2.58218 
-16.014 20.4902 -2.05882 -16.8029 20.2886 -1.82995 -11.6418 20.7979 -3.3459 
-11.3826 20.3016 -3.57913 -12.3999 20.9166 -3.42359 -13.4566 20.8854 -3.46 
-14.4323 20.7616 -3.46861 -15.0111 20.4851 -3.35622 -11.9749 20.4361 -3.87908 
-12.9563 20.4118 -3.99115 -14.0124 20.3413 -4.00586 -14.7604 20.2369 -3.8741 
-12.9691 19.9006 4.45958 -12.7704 19.4641 4.839 -12.2872 19.5218 4.52582 
-13.7594 20.1229 4.5579 -13.5792 19.5589 4.97851 -14.5147 19.4575 5.18449 
-15.4898 19.7126 5.01398 -16.2662 19.6589 4.48314 -11.7184 19.5525 4.09052 
-11.1673 19.6088 3.56927 -16.6888 19.6749 3.84685 -16.7639 19.9541 3.09749 
-17.0329 19.2325 3.61028 -10.658 19.2488 2.98455 -10.156 19.7785 2.28569 
-16.7338 20.0423 2.16697 -17.2455 19.2711 2.56823 -9.71066 19.8473 1.55969 
-9.64045 19.1792 1.91713 -9.37135 19.4902 1.25895 -16.5337 19.9887 1.46466 
-17.0295 19.4012 1.54182 -9.63573 19.9845 0.735568 -9.2576 19.3763 0.485011 
-15.3347 19.7211 0.327545 -15.888 19.3935 0.722382 -16.5457 19.4225 0.99007 
-9.63634 19.993 -0.305592 -9.25815 19.3692 -0.556485 -15.3551 19.3651 -0.29109 
-9.73147 20.014 -1.48389 -9.25453 19.412 -1.62174 -15.6615 19.6272 -0.790743 
-16.4897 19.6999 -1.0594 -17.0746 19.3114 -1.5124 -9.62393 19.792 -2.35954 
-9.34377 19.193 -2.48521 -10.3066 20.0808 -2.4167 -15.665 19.9345 -2.74132 
-16.1605 19.6716 -2.54521 -16.7135 19.6162 -2.21922 -9.96115 19.4025 -2.88885 
-10.6184 19.6159 -3.01644 -11.1398 19.405 -3.48063 -15.2328 19.768 -3.43822 
-15.8929 19.1319 -3.05395 -11.7716 19.5529 -3.95744 -12.6596 19.5424 -4.13911 
-13.7031 19.4882 -4.15517 -14.6024 19.4934 -4.00374 -13.8423 18.8074 6.29453 
-13.6242 18.1691 6.84896 -13.0501 18.5718 6.35376 -14.9927 18.8581 6.40834 
-14.6901 18.3515 6.91222 -16.0189 18.8819 6.38023 -15.7393 18.3885 6.92173 
-16.7669 18.766 6.29329 -16.5375 18.5324 6.79322 -17.0409 18.2715 6.51706 
-12.7716 18.9775 5.43541 -12.606 18.5257 6.00126 -12.1177 18.4643 5.52176 
-13.8194 19.1218 5.51379 -14.6986 19.1194 5.66312 -15.8009 19.1353 5.44475 
-16.6227 18.8845 5.48718 -17.1266 18.3337 5.75529 -11.8352 18.8971 4.72668 
-11.5688 18.3009 5.04848 -11.3193 18.5618 4.3387 -16.6619 19.1511 4.50648 
-17.1022 18.4708 4.58028 -10.974 18.5452 3.61068 -17.3328 18.3869 3.46136 
-10.621 18.4025 3.13185 -10.1569 18.5938 2.59337 -17.6308 18.5978 2.75685 
-17.6704 18.7802 2.28332 -17.9323 18.1695 2.36796 -9.62 18.1815 2.01772 
-9.26353 18.7429 1.33641 -17.4671 18.7887 1.6501 -17.8292 18.3609 1.83459 
-9.12115 18.4925 0.472619 -15.7852 19.0588 0.141384 -16.5458 18.9012 0.339969 
-17.2202 18.5414 0.592928 -9.1142 18.5014 -0.563726 -15.8959 19.1154 -0.508791 
-16.5703 18.9658 -0.492519 -17.1108 18.545 -0.547737 -9.1218 18.5439 -1.60655 
-17.2624 18.2646 -1.43469 -9.28278 18.2338 -2.4443 -16.5736 19.089 -2.67798 
-17.0696 18.5077 -2.27665 -9.79752 18.517 -2.96357 -10.527 18.7861 -3.21696 
-11.1657 18.2172 -3.56175 -15.2163 18.7272 -3.60231 -15.8577 18.149 -3.22071 
-16.5889 18.3676 -2.89199 -11.7853 18.5053 -3.92955 -12.6357 18.5118 -4.11617 
-13.642 18.447 -4.11945 -14.5296 18.4613 -3.96924 -12.5812 18.1213 6.36062 
-12.9083 17.3409 6.83331 -12.1471 17.5058 6.38882 -13.8511 17.3601 7.01483 
-14.528 17.658 7.04378 -15.579 17.3778 7.12619 -16.6097 17.7824 6.90657 
-17.1282 17.4807 6.37815 -11.8133 17.9013 5.76694 -11.6451 17.1488 5.96286 
-11.3508 17.6683 5.20054 -17.247 17.4408 5.47642 -11.051 17.5258 4.40724 
-17.3265 17.3943 4.48884 -10.7559 17.8631 3.6334 -10.7023 17.1052 3.90446 
-10.401 17.6787 3.2227 -17.4516 17.4965 3.64904 -10.0311 17.4809 2.64587 
-17.7019 17.8452 2.99915 -18.0573 17.3023 2.6724 -9.64274 17.1545 2.03991 
-9.2571 17.7281 1.37216 -17.7408 18.0745 1.10773 -18.102 17.531 1.73106 
-9.12576 17.4595 0.512504 -17.6148 17.7636 0.332922 -17.9852 17.3101 0.779137 
-9.133 17.4751 -0.515216 -17.3369 17.6967 -0.532331 -17.671 17.0812 0.0380389 
-9.1452 17.503 -1.56075 -17.2281 17.4208 -1.58735 -9.32727 17.2168 -2.44221 
-17.0678 17.4282 -2.42089 -9.82694 17.4947 -2.93431 -10.535 17.7578 -3.21739 
-11.1899 17.1849 -3.55707 -15.1899 17.6959 -3.56831 -15.843 17.1634 -3.19719 
-16.5692 17.4198 -2.92262 -11.8218 17.4644 -3.91008 -12.667 17.5049 -4.08416 
-13.6649 17.4262 -4.08398 -14.5407 17.4251 -3.91282 -15.8748 16.7058 7.41436 
-15.4194 16.1985 7.71457 -15.2924 16.6146 7.37024 -16.224 16.2773 7.7004 
-12.816 16.2538 6.84909 -12.144 16.74 6.52558 -13.5498 16.6486 6.98678 
-14.5056 16.5737 7.14585 -16.6018 16.8208 7.0762 -17.1952 16.5985 6.39945 
-11.6337 16.2092 6.03097 -11.2857 16.7328 5.34612 -17.4212 16.5813 5.51427 
-11.0534 16.3254 4.50659 -17.6018 16.6023 4.85097 -17.6618 16.8818 4.10773 
-17.9606 16.1996 4.63134 -10.7824 16.3662 3.80921 -10.4095 16.8196 3.3214 
-17.7682 17.1532 3.36508 -18.1808 16.4089 3.58311 -10.1813 16.5982 2.63247 
-18.3449 16.616 2.46069 -9.87026 16.1699 2.00203 -9.2888 16.6779 1.39618 
-18.3395 16.6232 1.46513 -9.15352 16.4207 0.530517 -18.1629 16.5494 0.605339 
-9.14574 16.459 -0.504958 -17.407 16.7423 -0.682885 -17.8285 16.4247 -0.0220685 
-9.05294 16.501 -1.65057 -17.3481 16.5561 -1.55376 -9.24549 16.5136 -2.66369 
-17.2057 16.5839 -2.40271 -9.80575 16.6235 -3.08293 -10.5519 16.8058 -3.27666 
-11.0334 16.3682 -3.63305 -15.2501 16.7492 -3.54895 -15.9172 16.4422 -3.28757 
-16.6406 16.5728 -2.97694 -11.7204 16.3422 -3.91192 -12.6747 16.5093 -4.04625 
-13.6715 16.4593 -4.0686 -14.7245 16.376 -3.93082 -16.7858 15.8018 8.18062 
-16.4453 15.255 8.75678 -16.1636 15.5397 8.53706 -17.2023 15.1932 8.50925 
-14.828 16.0463 7.51766 -14.7751 15.4665 7.97106 -14.2933 15.4016 7.53415 
-15.6546 15.6654 8.21255 -17.0222 16.1774 7.29305 -17.6269 15.5204 8.01229 
-17.6454 15.7883 7.42419 -18.0461 15.284 7.5139 -12.8193 15.2153 6.82728 
-12.1392 15.7377 6.51632 -13.6647 15.569 7.07804 -17.6446 15.9702 6.36373 
-18.1146 15.3241 6.74557 -11.6208 15.173 6.01596 -11.2929 15.6962 5.36607 
-17.7687 16.1234 5.3842 -18.0845 15.4742 5.56836 -11.1565 15.2846 4.65421 
-18.2761 15.3662 4.46609 -10.7171 16.073 3.1268 -11.066 15.4725 3.74695 
-18.7537 15.4403 3.83697 -18.7121 15.9103 3.16922 -19.2124 15.343 3.49689 
-10.5537 15.9737 2.45434 -11.0439 15.2588 2.60409 -18.7182 15.9792 2.21123 
-19.2302 15.4783 2.77413 -9.92184 15.4677 1.7296 -9.34974 15.6155 1.3015 
-10.5747 15.4902 1.95819 -18.6885 15.967 1.21444 -19.2218 15.481 1.76066 
-9.15605 15.6034 0.393264 -18.5176 15.9611 0.22975 -19.2131 15.4908 0.741325 
-9.02491 15.5028 -0.519376 -17.9044 16.1072 -0.687196 -18.6767 15.8092 -0.625196 
-19.2277 15.5183 -0.25874 -8.72621 15.835 -1.42398 -8.65226 15.1388 -1.03845 
-8.38622 15.5367 -1.72749 -17.7046 16.0978 -1.67238 -18.3793 15.7915 -1.56157 
-19.2354 15.33 -1.41734 -8.72735 16.0409 -2.44429 -8.22714 15.4319 -2.54763 
-17.6376 15.9754 -2.6903 -18.3489 15.4432 -2.60268 -18.7959 15.3153 -2.09257 
-8.57537 15.7935 -3.3346 -8.26325 15.1778 -3.47507 -9.35681 16.018 -3.42271 
-10.3478 16.051 -3.58352 -15.5975 16.1093 -3.62457 -16.5791 15.9664 -3.46756 
-17.4618 15.7316 -3.59456 -17.988 15.5108 -3.34345 -8.93201 15.3787 -3.91927 
-9.9227 15.3482 -3.96008 -10.9785 15.5015 -3.92808 -11.8626 15.3208 -4.01962 
-12.7067 15.4849 -4.03828 -13.6962 15.4932 -4.04356 -14.6813 15.4565 -4.03698 
-15.7873 15.4636 -3.94902 -16.9636 15.332 -3.97261 -17.7151 15.2655 -3.85634 
-14.9847 14.9197 8.53315 -14.7794 14.1114 8.80367 -14.3391 14.6288 8.20619 
[...]
CELL_DATA 3064
SCALARS scalars float
LOOKUP_TABLE default
13 13 13 13 13 13 13 13 13 
13 13 13 13 13 13 13 13 13 
13 13 13 13 13 13 13 13 13 
13 13 13 13 13 13 13 13 13 
13 13 13 13 13 13 13 13 13 
13 13 13 13 13 13 13 13 13 
13 13 13 13 13 13 13 13 13 
13 13 13 13 13 13 13 13 13 
13 13 13 13 13 13 13 13 13 
13 13 13 13 13 13 13 13 13 
13 13 13 13 13 13 13 13 13 
13 13 13 13 13 13 13 13 13 
13 13 13 13 13 13 13 13 13 
13 13 13 13 13 13 13 13 13 
13 13 13 13 13 13 13 13 13 
13 13 13 13 13 13 13 13 13 
13 13 13 13 13 13 13 13 13 
13 13 13 13 13 13 13 13 13 
13 13 13 13 13 13 13 13 13 
13 13 13 13 13 13 13 13 13 
13 13 13 13 13 13 13 13 13 
13 13 13 13 13 13 13 13 13 
13 13 13 13 13 13 13 13 13 
13 13 13 13 13 13 13 13 13 
13 13 13 13 13 13 13 13 13 
13 13 13 13 13 13 13 13 13 
13 13 13 13 13 13 13 13 13 
13 13 13 13 13 13 13 13 13 
13 13 13 13 13 13 13 13 13 
13 13 13 13 13 13 13 13 13 
13 13 13 13 13 13 13 13 13 
13 13 13 13 13 13 13 13 13 
13 13 13 13 13 13 13 13 13 
13 13 13 13 13 13 13 13 13 
13 13 13 13 13 13 13 13 13 
13 13 13 13 13 13 13 13 13 
13 13 13 13 13 13 13 13 13 
13 13 13 13 13 13 13 13 13 
13 13 13 13 13 13 13 13 13 
13 13 13 13 13 13 13 13 13 
13 13 13 13 13 13 13 13 13 
13 13 13 13 13 13 13 13 13 
13 13 13 13 13 13 13 13 13 
13 13 13 13 13 13 13 13 13 
13 13 13 13 13 13 13 13 13 
13 13 13 13 13 13 13 13 13 
13 13 13 13 13 13 13 13 13 
13 13 13 13 13 13 13 13 13 
13 13 13 13 13 13 13 13 13 
13 13 13 13 13 13 13 13 13 
13 13 13 13 13 13 13 13 13 
13 13 13 13 13 13 13 13 13 
13 13 13 13 13 13 13 13 13 
13 13 13 13 13 13 13 13 13 
13 13 13 13 13 13 13 13 13 
13 13 13 13 13 13 13 13 13 
13 13 13 13 13 13 13 13 13 
13 13 13 13 13 13 13 13 13 
13 13 13 13 13 13 13 13 13 
13 13 13 13 13 13 13 13 13 
13 13 13 13 13 13 13 13 13 
13 13 13 13 13 13 13 13 13 
13 13 13 13 13 13 13 13 13 
13 13 13 13 13 13 13 13 13 
13 13 13 13 13 13 13 13 13 
13 13 13 13 13 13 13 13 13 
13 13 13 13 13 13 13 13 13 
13 13 13 13 13 13 13 13 13 
13 13 13 13 13 13 13 13 13 
13 13 13 13 13 13 13 13 13 
13 13 13 13 13 13 13 13 13 
13 13 13 13 13 13 13 13 13 
13 13 13 13 13 13 13 13 13 
13 13 13 13 13 13 13 13 13 
13 13 13 13 13 13 13 13 13 
13 13 13 13 13 13 13 13 13 
13 13 13 13 13 13 13 13 13 
13 13 13 13 13 13 13 13 13 
13 13 13 13 13 13 13 13 13 
13 13 13 13 13 13 13 13 13 
13 13 13 13 13 13 13 13 13 
13 13 13 13 13 13 13 13 13 
13 13 13 13 13 13 13 13 13 
13 13 13 13 13 13 13 13 13 
13 13 13 13 13 13 13 13 13 
13 13 13 13 13 13 13 13 13 
13 13 13 13 13 13 13 13 13 
13 13 13 13 13 13 13 13 13 
13 13 13 13 13 13 13 13 13 
13 13 13 13 13 13 13 13 13 
13 13 13 13 13 13 13 13 13 
13 13 13 13 13 13 13 13 13 
13 13 13 13 13 13 13 13 13 
13 13 13 13 13 13 13 13 13 
13 13 13 13 13 13 13 13 13 
13 13 13 13 13 13 13 13 13 
13 13 13 13 13 13 13 13 13 
13 13 13 13 13 13 13 13 13 
13 13 13 13 13 13 13 13 13 
13 13 13 13 13 13 13 13 13 
13 13 13 13 13 13 13 13 13 
13 13 13 13 13 13 13 13 13 
13 13 13 13 13 13 13 13 13 
13 13 13 13 13 13 13 13 13 
13 13 13 13 13 13 13 13 13 
13 13 13 13 13 13 13 13 13 
13 13 13 13 13 13 13 13 13 
13 13 13 13 13 13 13 13 13 
13 13 13 13 13 13 13 13 13 
13 13 13 13 13 13 13 13 13 
13 13 13 13 13 13 13 13 13 
13 13 13 13 13 13 13 13 13 
13 13 13 13 13 13 13 13 13 
13 13 13 13 13 13 13 13 13 
13 13 13 13 13 13 13 13 13 
13 13 13 13 13 13 13 13 13 
13 13 13 13 13 13 13 13 13 
13 13 13 13 13 13 13 13 13 
13 13 13 13 13 13 13 13 13 
13 13 13 13 13 13 13 13 13 
13 13 13 13 13 13 13 13 13 
13 13 13 13 13 13 13 13 13 
13 13 13 13 13 13 13 13 13 
13 13 13 13 13 13 13 13 13 
13 13 13 13 13 13 13 13 13 
13 13 13 13 13 13 13 13 13 
13 13 13 13 13 13 13 13 13 
13 13 13 13 13 13 13 13 13 
13 13 13 13 13 13 13 13 13 
13 13 13 13 13 13 13 13 13 
13 13 13 13 13 13 13 13 13 
13 13 13 13 13 13 13 13 13 
13 13 13 13 13 13 13 13 13 
13 13 13 13 13 13 13 13 13 
13 13 13 13 13 13 13 13 13 
13 13 13 13 13 13 13 13 13 
13 13 13 13 13 13 13 13 13 
13 13 13 13 13 13 13 13 13 
13 13 13 13 13 13 13 13 13 
13 13 13 13 13 13 13 13 13 
13 13 13 13 13 13 13 13 13 
13 13 13 13 13 13 13 13 13 
13 13 13 13 13 13 13 13 13 
13 13 13 13 13 13 13 13 13 
13 13 13 13 13 13 13 13 13 
13 13 13 13 13 13 13 13 13 
13 13 13 13 13 13 13 13 13 
13 13 13 13 13 13 13 13 13 
13 13 13 13 13 13 13 13 13 
13 13 13 13 13 13 13 13 13 
13 13 13 13 13 13 13 13 13 
13 13 13 13 13 13 13 13 13 
13 13 13 13 13 13 13 13 13 
13 13 13 13 13 13 13 13 13 
13 13 13 13 13 13 13 13 13 
13 13 13 13 13 13 13 13 13 
13 13 13 13 13 13 13 13 13 
13 13 13 13 13 13 13 13 13 
13 13 13 13 13 13 13 13 13 
13 13 13 13 13 13 13 13 13 
13 13 13 13 13 13 13 13 13 
13 13 13 13 13 13 13 13 13 
13 13 13 13 13 13 13 13 13 
13 13 13 13 13 13 13 13 13 
13 13 13 13 13 13 13 13 13 
13 13 13 13 13 13 13 13 13 
13 13 13 13 13 13 13 13 13 
13 13 13 13 13 13 13 13 13 
13 13 13 13 13 13 13 13 13 
13 13 13 13 13 13 13 13 13 
13 13 13 13 13 13 13 13 13 
13 13 13 13 13 13 13 13 13 
13 13 13 13 13 13 13 13 13 
13 13 13 13 13 13 13 13 13 
13 13 13 13 13 13 13 13 13 
13 13 13 13 13 13 13 13 13 
13 13 13 13 13 13 13 13 13 
13 13 13 13 13 13 13 13 13 
13 13 13 13 13 13 13 13 13 
13 13 13 13 13 13 13 13 13 
13 13 13 13 13 13 13 13 13 
13 13 13 13 13 13 13 13 13 
13 13 13 13 13 13 13 13 13 
13 13 13 13 13 13 13 13 13 
13 13 13 13 13 13 13 13 13 
13 13 13 13 13 13 13 13 13 
13 13 13 13 13 13 13 13 13 
13 13 13 13 13 13 13 13 13 
13 13 13 13 13 13 13 13 13 
13 13 13 13 13 13 13 13 13 
13 13 13 13 13 13 13 13 13 
13 13 13 13 13 13 13 13 13 
13 13 13 13 13 13 13 13 13 
13 13 13 13 13 13 13 13 13 
13 13 13 13 13 13 13 13 13 
13 13 13 13 13 13 13 13 13 
13 13 13 13 13 13 13 13 13 
13 13 13 13 13 13 13 13 13 
13 13 13 13 13 13 13 13 13 
13 13 13 13 13 13 13 13 13 
13 13 13 13 13 13 13 13 13 
13 13 13 13 13 13 13 13 13 
13 13 13 13 13 13 13 13 13 
13 13 13 13 13 13 13 13 13 
13 13 13 13 13 13 13 13 13 
13 13 13 13 13 13 13 13 13 
13 13 13 13 13 13 13 13 13 
13 13 13 13 13 13 13 13 13 
13 13 13 13 13 13 13 13 13 
13 13 13 13 13 13 13 13 13 
13 13 13 13 13 13 13 13 13 
13 13 13 13 13 13 13 13 13 
13 13 13 13 13 13 13 13 13 
13 13 13 13 13 13 13 13 13 
13 13 13 13 13 13 13 13 13 
13 13 13 13 13 13 13 13 13 
13 13 13 13 13 13 13 13 13 
13 13 13 13 13 13 13 13 13 
13 13 13 13 13 13 13 13 13 
13 13 13 13 13 13 13 13 13 
13 13 13 13 13 13 13 13 13 
13 13 13 13 13 13 13 13 13 
13 13 13 13 13 13 13 13 13 
13 13 13 13 13 13 13 13 13 
13 13 13 13 13 13 13 13 13 
13 13 13 13 13 13 13 13 13 
13 13 13 13 13 13 13 13 13 
13 13 13 13 13 13 13 13 13 
13 13 13 13 13 13 13 13 13 
13 13 13 13 13 13 13 13 13 
13 13 13 13 13 13 13 13 13 
13 13 13 13 13 13 13 13 13 
13 13 13 13 13 13 13 13 13 
13 13 13 13 13 13 13 13 13 
13 13 13 13 13 13 13 13 13 
13 13 13 13 13 13 13 13 13 
13 13 13 13 13 13 13 13 13 
13 13 13 13 13 13 13 13 13 
13 13 13 13 13 13 13 13 13 
13 13 13 13 13 13 13 13 13 
13 13 13 13 13 13 13 13 13 
13 13 13 13 13 13 13 13 13 
13 13 13 13 13 13 13 13 13 
13 13 13 13 13 13 13 13 13 
13 13 13 13 13 13 13 13 13 
13 13 13 13 13 13 13 13 13 
13 13 13 13 13 13 13 13 13 
13 13 13 13 13 13 13 13 13 
13 13 13 13 13 13 13 13 13 
13 13 13 13 13 13 13 13 13 
13 13 13 13 13 13 13 13 13 
13 13 13 13 13 13 13 13 13 
13 13 13 13 13 13 13 13 13 
13 13 13 13 13 13 13 13 13 
13 13 13 13 13 13 13 13 13 
13 13 13 13 13 13 13 13 13 
13 13 13 13 13 13 13 13 13 
13 13 13 13 13 13 13 13 13 
13 13 13 13 13 13 13 13 13 
13 13 13 13 13 13 13 13 13 
13 13 13 13 13 13 13 13 13 
13 13 13 13 13 13 13 13 13 
13 13 13 13 13 13 13 13 13 
13 13 13 13 13 13 13 13 13 
13 13 13 13 13 13 13 13 13 
13 13 13 13 13 13 13 13 13 
13 13 13 13 13 13 13 13 13 
13 13 13 13 13 13 13 13 13 
13 13 13 13 13 13 13 13 13 
13 13 13 13 13 13 13 13 13 
13 13 13 13 13 13 13 13 13 
13 13 13 13 13 13 13 13 13 
13 13 13 13 13 13 13 13 13 
13 13 13 13 13 13 13 13 13 
13 13 13 13 13 13 13 13 13 
13 13 13 13 13 13 13 13 13 
13 13 13 13 13 13 13 13 13 
13 13 13 13 13 13 13 13 13 
13 13 13 13 13 13 13 13 13 
13 13 13 13 13 13 13 13 13 
13 13 13 13 13 13 13 13 13 
13 13 13 13 13 13 13 13 13 
13 13 13 13 13 13 13 13 13 
13 13 13 13 13 13 13 13 13 
13 13 13 13 13 13 13 13 13 
13 13 13 13 13 13 13 13 13 
13 13 13 13 13 13 13 13 13 
13 13 13 13 13 13 13 13 13 
13 13 13 13 13 13 13 13 13 
13 13 13 13 13 13 13 13 13 
13 13 13 13 13 13 13 13 13 
13 13 13 13 13 13 13 13 13 
13 13 13 13 13 13 13 13 13 
13 13 13 13 13 13 13 13 13 
13 13 13 13 13 13 13 13 13 
13 13 13 13 13 13 13 13 13 
13 13 13 13 13 13 13 13 13 
13 13 13 13 13 13 13 13 13 
13 13 13 13 13 13 13 13 13 
13 13 13 13 13 13 13 13 13 
13 13 13 13 13 13 13 13 13 
13 13 13 13 13 13 13 13 13 
13 13 13 13 13 13 13 13 13 
13 13 13 13 13 13 13 13 13 
13 13 13 13 13 13 13 13 13 
13 13 13 13 13 13 13 13 13 
13 13 13 13 13 13 13 13 13 
13 13 13 13 13 13 13 13 13 
13 13 13 13 13 13 13 13 13 
13 13 13 13 13 13 13 13 13 
13 13 13 13 13 13 13 13 13 
13 13 13 13 13 13 13 13 13 
13 13 13 13 13 13 13 13 13 
13 13 13 13 13 13 13 13 13 
13 13 13 13 13 13 13 13 13 
13 13 13 13 13 13 13 13 13 
13 13 13 13 13 13 13 13 13 
13 13 13 13 13 13 13 13 13 
13 13 13 13 13 13 13 13 13 
13 13 13 13 13 13 13 13 13 
13 13 13 13 13 13 13 13 13 
13 13 13 13 13 13 13 13 13 
13 13 13 13 13 13 13 13 13 
13 13 13 13 13 13 13 13 13 
13 13 13 13 13 13 13 13 13 
13 13 13 13 13 13 13 13 13 
13 13 13 13 13 13 13 13 13 
13 13 13 13 13 13 13 13 13 
13 13 13 13 13 13 13 13 13 
13 13 13 13 13 13 13 13 13 
13 13 13 13 13 13 13 13 13 
13 13 13 13 13 13 13 13 13 
13 13 13 13 13 13 13 13 13 
13 13 13 13 13 13 13 13 13 
13 13 13 13 13 13 13 13 13 
13 13 13 13 13 13 13 13 13 
13 13 13 13 13 13 13 13 13 
13 13 13 13 13 13 13 13 13 
13 13 13 13 13 13 13 13 13 
13 13 13 13 13 13 13 13 13 
13 13 13 13 
