# vtk DataFile Version 4.2
vtk output
ASCII
DATASET POLYDATA
POINTS 308 float
-0.0216447 -17.6842 19.8914 -0.210441 -16.9569 19.2852 -0.688543 -17.6094 19.4194 
0.749376 -17.7765 19.843 0.697496 -17.1919 19.4351 1.32874 -17.5349 19.37 
-0.366111 -18.3511 19.8633 -0.591237 -18.3793 19.2588 0.331062 -18.4647 19.9145 
1.02698 -18.2628 19.4061 -0.107437 -18.8188 19.6576 0.463931 -18.8384 19.5129 
-7.08294 -15.6782 18.895 -7.42921 -15.0071 18.4147 -7.73587 -15.6001 18.4477 
-6.08331 -15.6658 18.9363 -6.6423 -14.9948 18.5407 -5.02625 -15.6385 18.9138 
-5.60014 -14.9895 18.5201 -4.00199 -15.6423 18.9496 -4.55279 -14.9728 18.5219 
-3.06591 -15.7663 18.862 -3.59942 -15.034 18.5301 -2.85578 -15.3008 18.1651 
-7.27679 -16.5057 18.887 -7.66513 -16.3069 18.3088 -6.37502 -16.602 19.0817 
-5.30119 -16.5931 19.0621 -4.25465 -16.5682 19.0746 -3.25858 -16.5901 19.0905 
-2.28698 -16.0026 18.3949 -2.3972 -16.6321 18.8581 -1.79691 -16.5172 18.3763 
-0.227448 -16.5111 18.7446 -0.385264 -16.1654 18.4817 -0.788268 -16.6873 18.6352 
0.222708 -16.658 18.1585 -7.15872 -16.9743 18.3739 -6.64129 -17.5693 18.362 
-6.59886 -17.371 18.8503 -5.64409 -17.5043 18.9235 -4.5985 -17.4969 18.9133 
-3.56191 -17.4901 18.9323 -2.59778 -17.4921 18.8273 -1.83766 -17.2444 18.4892 
-0.965966 -17.747 18.5544 0.671229 -16.9625 18.6548 1.658 -17.7323 18.7896 
1.56268 -17.2733 18.7586 1.9693 -17.5265 18.4086 -6.11902 -17.8524 18.5832 
-5.30507 -17.9 18.5112 -4.26613 -17.8845 18.5146 -3.13943 -17.9413 18.3746 
-2.08167 -17.9325 18.2123 -0.461695 -18.2473 18.3484 0.0534828 -18.6991 19.0727 
0.692711 -18.1398 18.4244 0.651938 -18.6655 19.1199 1.62711 -17.7263 18.2964 
-7.10079 -14.4803 17.9613 -7.4213 -13.9723 17.367 -7.78972 -14.6095 17.5962 
-6.11508 -14.5061 18.0162 -6.63649 -13.9946 17.4996 -5.04784 -14.5038 17.9858 
-5.5965 -14.0197 17.491 -4.03499 -14.4917 17.9972 -4.55904 -13.9967 17.4725 
-3.30751 -14.6163 18.0062 -3.63698 -14.0561 17.5115 -2.97522 -14.5605 17.5679 
0.874386 -14.7139 17.8704 0.907587 -14.0379 17.3595 0.19079 -14.4676 17.4989 
1.92545 -14.7888 17.8463 1.46598 -14.1866 17.5117 2.21957 -14.3076 17.334 
-7.82533 -15.5453 17.3891 -2.67632 -15.6766 17.1927 -0.188158 -15.6571 18.0029 
-0.496166 -15.0609 17.4298 -0.865649 -15.8929 17.2446 0.867091 -15.6628 18.0574 
1.74854 -15.5803 18.0523 2.62634 -14.9556 17.6017 2.63185 -15.6589 17.8394 
3.077 -15.3638 17.2743 -7.34167 -16.2152 17.4577 -7.41553 -16.5698 18.0449 
-6.89649 -16.5885 17.5301 -2.20239 -15.9972 17.6041 -1.21416 -16.4753 18.0752 
-1.58414 -16.1669 17.7616 0.740016 -16.411 17.9309 1.55429 -16.3253 17.9815 
2.40268 -16.4803 17.8513 2.99788 -16.3068 17.4406 -6.52987 -17.0998 17.7551 
-6.03189 -17.652 18.0609 -5.65065 -17.063 17.4751 -5.07592 -17.6238 17.984 
-4.63949 -17.0418 17.4701 -4.03949 -17.6291 17.9839 -3.67628 -17.1357 17.4526 
-3.23409 -17.7107 17.8024 -2.93316 -17.4459 17.3551 -1.38024 -17.4474 18.1896 
0.919859 -17.4634 18.1175 0.277876 -17.5338 17.665 0.546266 -17.024 17.5159 
1.6042 -16.8417 17.5716 1.59536 -17.4027 18.2685 2.53148 -16.8314 17.4516 
-2.47371 -17.9442 17.6829 -1.39384 -17.9525 17.6523 -0.39143 -17.9355 17.5038 
-4.1447 -12.6511 16.8095 -4.21065 -12.0875 16.0969 -4.87507 -12.5888 16.4566 
-3.03246 -12.5683 16.895 -3.30269 -12.0083 16.3445 -2.261 -12.6617 16.7564 
-2.51022 -12.123 16.5214 -1.9975 -12.4395 16.2518 -7.08605 -13.4635 16.8963 
-7.28131 -13.1055 16.1045 -7.75731 -13.6968 16.6836 -6.12135 -13.4868 16.9815 
-6.3927 -13.0643 16.2972 -5.07716 -13.3186 16.9817 -5.50898 -12.9365 16.3573 
-4.18399 -13.47 17.1521 -3.27361 -13.5425 17.1576 -2.22021 -13.5668 16.9165 
-1.74674 -13.2957 16.2538 0.640806 -13.7831 16.8848 0.519539 -13.2766 16.4186 
0.0975631 -13.7085 16.5809 1.09106 -13.3279 16.4339 2.60184 -13.836 16.734 
2.52169 -13.2344 16.364 2.19208 -13.4912 16.4829 3.01685 -13.4261 16.3791 
-7.98162 -14.4773 16.4838 -2.31737 -14.6472 17.1436 -1.37582 -13.9747 16.5097 
-1.31628 -14.4135 16.894 -0.322658 -14.4042 17.0076 -0.660357 -13.9947 16.3409 
1.64054 -13.7536 16.8294 2.83613 -14.5874 17.1449 3.2536 -14.4307 16.6035 
-7.80586 -15.3915 16.1387 -2.04964 -15.5518 16.9043 -1.24895 -15.2001 17.0598 
3.27659 -15.6666 16.6563 -7.26298 -15.9699 16.4439 -6.3855 -16.2002 16.4938 
-6.02605 -16.5439 17.0251 -5.2574 -16.1866 16.2758 -5.05226 -16.5103 16.9253 
-4.26088 -16.1783 16.2902 -4.06194 -16.5266 16.96 -3.22464 -16.1282 16.4295 
-3.09716 -16.6738 17.0348 -2.22387 -15.9674 16.364 -2.2463 -16.6402 17.0374 
-1.22286 -15.9188 16.4473 -1.28793 -16.5543 17.0951 -0.216656 -16.4529 16.8371 
-0.21768 -16.0936 16.3548 0.710421 -16.2215 16.3108 0.837379 -16.7301 16.9536 
1.71348 -16.2614 16.322 2.03778 -16.6634 16.982 2.79411 -16.1324 16.3055 
2.79311 -16.4951 17.0042 -2.2691 -17.4682 17.105 -1.33287 -17.4533 17.0007 
-0.263614 -17.24 17.0724 -4.08334 -12.1368 15.4013 -4.823 -12.4195 15.7723 
-3.29067 -11.9895 15.5377 -2.42084 -12.0846 15.8146 -1.94375 -12.7862 15.5578 
-0.157521 -12.4332 15.7622 -0.311618 -12.0981 15.1406 -0.675006 -12.6749 15.4835 
0.79293 -12.6834 15.9972 0.586902 -12.0387 15.3374 1.8197 -12.4349 15.8342 
1.6236 -12.0506 15.3364 2.81712 -12.6705 15.9851 2.64496 -12.0305 15.3167 
3.95802 -12.5833 15.8763 3.68864 -12.02 15.3301 4.72132 -12.6359 15.7684 
4.63673 -12.0865 15.3463 5.2337 -12.4109 15.3274 -7.19399 -13.1274 15.3983 
-7.76587 -13.5474 15.7602 -6.40755 -13.0211 15.5269 -5.47332 -12.8495 15.5938 
-1.65704 -13.6151 15.4466 -0.194489 -13.1817 16.0569 -0.846034 -13.5467 15.2757 
1.79831 -13.1087 16.2348 3.73101 -13.5912 16.1389 4.78649 -13.549 15.9339 
5.35331 -13.1374 15.5309 -7.82419 -14.485 15.5145 -1.23202 -13.9379 15.7914 
3.89376 -14.83 16.1436 4.58987 -14.4148 16.0045 5.64245 -13.9456 15.6181 
5.44496 -14.7053 15.7592 6.07669 -14.3671 15.2199 -7.65476 -15.3326 15.3593 
3.67817 -15.6271 16.0456 4.57583 -15.3737 15.8187 5.21963 -15.4941 15.5588 
5.66464 -15.1164 15.1302 -7.36945 -15.8462 15.6204 -6.60206 -15.9646 15.5429 
-5.56302 -15.9421 15.5142 -4.52602 -15.9428 15.5274 -3.53798 -15.9589 15.5554 
-2.54506 -15.9807 15.5584 -1.54292 -15.9961 15.5565 -0.539495 -15.9816 15.5742 
0.456304 -15.9513 15.5852 1.44831 -15.9445 15.591 2.45899 -15.9551 15.5852 
3.61922 -15.869 15.5569 4.55236 -15.8018 15.422 -4.38878 -12.7701 15.08 
-3.30566 -12.5384 15.0018 -2.50991 -12.4134 15.1718 -0.209991 -12.136 14.4338 
-0.73874 -12.5764 14.7518 0.584572 -12.0037 14.5609 1.62538 -12.0204 14.5941 
2.65518 -12.0375 14.5693 3.69947 -12.0342 14.5485 4.73292 -12.0209 14.5721 
5.82074 -12.8197 14.8922 5.50279 -12.1883 14.6892 6.00115 -12.7309 14.3048 
-7.29275 -13.7808 15.0793 -6.38232 -13.5577 15.0016 -5.24103 -13.4543 15.0114 
-4.16242 -13.669 14.8624 -3.31323 -13.5045 14.8469 -2.27783 -13.3848 14.983 
-0.691213 -13.2536 14.4211 5.92608 -13.6019 15.1642 6.14063 -13.6814 14.5346 
-7.2383 -14.8095 14.9694 -6.34308 -14.517 14.8307 -5.29279 -14.4996 14.8507 
-4.26291 -14.5455 14.8634 -3.27094 -14.5747 14.8505 -2.26613 -14.5634 14.8574 
-1.19723 -14.425 14.9926 -0.571452 -14.0534 14.561 -0.109181 -14.8635 14.6927 
0.0720497 -14.4261 14.3215 6.11686 -14.6181 14.6625 -7.11778 -15.5983 15.1057 
-6.31412 -15.4445 14.9756 -5.26653 -15.4062 14.9879 -4.24772 -15.4392 15.0212 
-3.2571 -15.4698 15.0279 -2.26133 -15.5063 15.0177 -1.26334 -15.5021 15.0326 
-0.248324 -15.4963 15.0404 0.619576 -14.934 14.4613 0.85391 -15.4933 14.9219 
1.46027 -15.084 14.4144 1.99526 -15.5971 14.9329 2.46316 -15.113 14.3977 
3.00953 -15.6237 14.9308 3.47844 -15.1384 14.4141 4.03488 -15.6543 14.9606 
4.67967 -15.1682 14.5422 4.90837 -15.6 15.1449 5.59412 -14.9163 14.4332 
-0.270121 -12.7692 14.0927 0.607826 -12.5573 14.0071 1.6555 -12.5569 14.0332 
2.68958 -12.5913 14.0237 3.72556 -12.621 13.9953 4.78694 -12.5764 13.9936 
5.56289 -12.424 14.1177 -0.124783 -13.6944 14.0794 0.662048 -13.5036 13.871 
1.6902 -13.4792 13.8548 2.72271 -13.5092 13.8618 3.74499 -13.5535 13.8426 
4.80143 -13.5365 13.8332 5.6993 -13.2368 13.9709 0.733021 -14.4056 14.0905 
1.68388 -14.4114 14.011 2.70187 -14.4246 14.0121 3.73139 -14.4626 14.0218 
4.7892 -14.4747 14.0124 5.71277 -14.2584 14.1034 
POLYGONS 616 2464
3 0 1 2 
3 0 3 4 
3 1 0 4 
3 4 3 5 
3 6 0 2 
3 7 6 2 
3 3 0 8 
3 8 0 6 
3 9 5 3 
3 8 9 3 
3 6 7 10 
3 8 6 10 
3 11 8 10 
3 9 8 11 
3 12 13 14 
3 12 15 16 
3 13 12 16 
3 15 17 18 
3 16 15 18 
3 17 19 20 
3 18 17 20 
3 19 21 22 
3 20 19 22 
3 22 21 23 
3 24 12 14 
3 25 24 14 
3 15 12 26 
3 26 12 24 
3 17 15 27 
3 27 15 26 
3 19 17 28 
3 28 17 27 
3 21 19 29 
3 29 19 28 
3 30 23 21 
3 30 21 31 
3 31 21 29 
3 30 31 32 
3 33 34 35 
3 34 33 36 
3 24 25 37 
3 37 38 39 
3 37 39 24 
3 24 39 26 
3 27 26 40 
3 40 26 39 
3 28 27 41 
3 41 27 40 
3 29 28 42 
3 42 28 41 
3 31 29 43 
3 43 29 42 
3 44 32 31 
3 43 44 31 
3 1 33 35 
3 1 35 2 
3 2 35 45 
3 33 46 36 
3 33 1 46 
3 1 4 46 
3 5 47 48 
3 5 48 4 
3 4 48 46 
3 48 47 49 
3 39 38 50 
3 40 39 50 
3 51 40 50 
3 41 40 51 
3 52 41 51 
3 42 41 52 
3 53 42 52 
3 43 42 53 
3 54 43 53 
3 44 43 54 
3 55 56 7 
3 55 7 45 
3 45 7 2 
3 56 57 58 
3 55 57 56 
3 47 57 59 
3 47 9 57 
3 47 5 9 
3 9 58 57 
3 49 47 59 
3 7 56 10 
3 11 10 56 
3 58 11 56 
3 9 11 58 
3 60 61 62 
3 60 63 64 
3 61 60 64 
3 63 65 66 
3 64 63 66 
3 65 67 68 
3 66 65 68 
3 67 69 70 
3 68 67 70 
3 70 69 71 
3 72 73 74 
3 72 75 76 
3 73 72 76 
3 76 75 77 
3 13 60 62 
3 13 62 14 
3 14 62 78 
3 16 60 13 
3 63 60 16 
3 18 63 16 
3 65 63 18 
3 20 65 18 
3 67 65 20 
3 22 67 20 
3 69 67 22 
3 69 22 23 
3 69 23 71 
3 71 23 79 
3 80 81 82 
3 74 81 80 
3 74 80 72 
3 72 80 83 
3 75 72 84 
3 84 72 83 
3 85 77 75 
3 85 75 86 
3 86 75 84 
3 85 86 87 
3 88 89 25 
3 88 25 78 
3 78 25 14 
3 88 90 89 
3 23 91 79 
3 30 91 23 
3 32 92 93 
3 32 93 30 
3 30 93 91 
3 82 93 92 
3 80 82 92 
3 80 92 35 
3 80 35 34 
3 36 80 34 
3 36 94 80 
3 94 83 80 
3 84 83 95 
3 95 83 94 
3 86 84 96 
3 96 84 95 
3 97 87 86 
3 96 97 86 
3 25 89 37 
3 38 98 99 
3 37 98 38 
3 37 90 98 
3 37 89 90 
3 99 100 101 
3 98 100 99 
3 101 102 103 
3 100 102 101 
3 103 104 105 
3 102 104 103 
3 104 106 105 
3 92 44 107 
3 32 44 92 
3 35 107 45 
3 92 107 35 
3 108 36 46 
3 108 109 36 
3 94 36 110 
3 110 36 109 
3 95 94 111 
3 94 110 111 
3 112 46 48 
3 112 108 46 
3 111 113 96 
3 111 96 95 
3 48 49 112 
3 97 96 113 
3 38 99 50 
3 51 50 99 
3 101 51 99 
3 52 51 101 
3 103 52 101 
3 53 52 103 
3 105 53 103 
3 105 106 114 
3 105 114 53 
3 53 114 54 
3 107 44 54 
3 107 54 115 
3 115 54 114 
3 45 107 115 
3 45 115 55 
3 55 115 116 
3 109 108 57 
3 109 57 116 
3 116 57 55 
3 59 57 108 
3 112 59 108 
3 49 59 112 
3 117 118 119 
3 117 120 121 
3 118 117 121 
3 120 122 123 
3 121 120 123 
3 123 122 124 
3 125 126 127 
3 125 128 129 
3 126 125 129 
3 128 130 131 
3 129 128 131 
3 119 131 130 
3 119 130 117 
3 117 130 132 
3 120 117 133 
3 133 117 132 
3 122 120 134 
3 134 120 133 
3 135 124 122 
3 134 135 122 
3 136 137 138 
3 137 136 139 
3 140 141 142 
3 141 140 143 
3 61 125 127 
3 61 127 62 
3 62 127 144 
3 64 125 61 
3 128 125 64 
3 66 128 64 
3 130 128 66 
3 68 130 66 
3 132 130 68 
3 70 132 68 
3 133 132 70 
3 71 133 70 
3 71 145 133 
3 145 134 133 
3 146 135 134 
3 146 134 147 
3 147 134 145 
3 147 148 149 
3 146 147 149 
3 138 149 148 
3 136 138 148 
3 136 148 74 
3 136 74 73 
3 136 150 139 
3 136 73 150 
3 73 76 150 
3 77 151 140 
3 77 140 150 
3 77 150 76 
3 150 140 142 
3 152 143 140 
3 151 152 140 
3 62 144 78 
3 144 153 78 
3 145 79 154 
3 71 79 145 
3 147 145 155 
3 155 145 154 
3 81 155 82 
3 81 148 155 
3 148 147 155 
3 74 148 81 
3 77 85 151 
3 151 85 87 
3 151 87 152 
3 152 87 156 
3 78 153 157 
3 88 78 157 
3 90 158 159 
3 90 88 158 
3 88 157 158 
3 159 160 161 
3 158 160 159 
3 161 162 163 
3 160 162 161 
3 163 164 165 
3 162 164 163 
3 166 79 164 
3 166 154 79 
3 164 79 165 
3 91 167 79 
3 165 79 167 
3 155 154 168 
3 154 166 168 
3 169 91 93 
3 169 167 91 
3 169 82 170 
3 169 93 82 
3 170 82 171 
3 155 168 82 
3 171 82 168 
3 170 172 173 
3 171 172 170 
3 173 174 175 
3 172 174 173 
3 175 176 177 
3 174 176 175 
3 177 176 156 
3 177 156 97 
3 97 156 87 
3 90 159 98 
3 100 98 159 
3 161 100 159 
3 102 100 161 
3 163 102 161 
3 104 102 163 
3 165 104 163 
3 106 104 165 
3 106 165 178 
3 178 165 167 
3 169 179 167 
3 179 178 167 
3 170 180 169 
3 180 179 169 
3 110 109 180 
3 110 180 173 
3 173 180 170 
3 111 110 173 
3 175 111 173 
3 113 111 175 
3 177 113 175 
3 97 113 177 
3 106 178 114 
3 115 114 178 
3 179 115 178 
3 116 115 179 
3 180 116 179 
3 109 116 180 
3 118 181 182 
3 119 118 182 
3 121 183 118 
3 118 183 181 
3 123 184 121 
3 121 184 183 
3 184 123 124 
3 185 184 124 
3 186 187 188 
3 186 189 190 
3 187 186 190 
3 189 191 192 
3 190 189 192 
3 191 193 194 
3 192 191 194 
3 193 195 196 
3 194 193 196 
3 195 197 198 
3 196 195 198 
3 198 197 199 
3 126 200 201 
3 127 126 201 
3 129 202 126 
3 126 202 200 
3 131 203 129 
3 129 203 202 
3 182 131 119 
3 203 131 182 
3 124 135 185 
3 185 135 204 
3 205 186 188 
3 206 205 188 
3 137 205 138 
3 137 189 205 
3 189 186 205 
3 139 189 137 
3 139 207 189 
3 207 191 189 
3 141 207 142 
3 141 193 207 
3 193 191 207 
3 143 193 141 
3 143 208 193 
3 208 195 193 
3 197 195 209 
3 209 195 208 
3 210 199 197 
3 209 210 197 
3 127 201 144 
3 201 211 144 
3 135 212 204 
3 146 212 135 
3 206 149 205 
3 206 212 149 
3 212 146 149 
3 138 205 149 
3 139 150 207 
3 142 207 150 
3 208 152 213 
3 143 152 208 
3 209 208 214 
3 214 208 213 
3 215 210 209 
3 215 209 216 
3 216 209 214 
3 215 216 217 
3 144 211 153 
3 211 218 153 
3 213 156 219 
3 152 156 213 
3 214 213 220 
3 220 213 219 
3 221 222 216 
3 221 216 220 
3 220 216 214 
3 217 216 222 
3 153 218 223 
3 157 153 223 
3 158 157 224 
3 157 223 224 
3 160 158 225 
3 158 224 225 
3 162 160 226 
3 160 225 226 
3 164 162 227 
3 162 226 227 
3 166 164 228 
3 164 227 228 
3 168 166 229 
3 166 228 229 
3 171 168 230 
3 168 229 230 
3 172 171 231 
3 171 230 231 
3 174 172 232 
3 172 231 232 
3 176 174 233 
3 174 232 233 
3 219 156 176 
3 219 176 234 
3 234 176 233 
3 220 219 234 
3 235 220 234 
3 221 220 235 
3 181 236 182 
3 181 183 237 
3 236 181 237 
3 183 184 238 
3 237 183 238 
3 184 185 238 
3 187 239 240 
3 188 187 240 
3 190 241 187 
3 187 241 239 
3 192 242 190 
3 190 242 241 
3 194 243 192 
3 192 243 242 
3 196 244 194 
3 194 244 243 
3 198 245 196 
3 196 245 244 
3 199 246 247 
3 199 247 198 
3 198 247 245 
3 247 246 248 
3 200 249 201 
3 200 202 250 
3 249 200 250 
3 202 203 251 
3 250 202 251 
3 203 182 236 
3 203 236 251 
3 251 236 252 
3 237 253 236 
3 253 252 236 
3 238 254 237 
3 254 253 237 
3 185 204 254 
3 238 185 254 
3 188 240 206 
3 240 255 206 
3 246 210 256 
3 199 210 246 
3 257 248 246 
3 256 257 246 
3 249 258 211 
3 201 249 211 
3 250 259 249 
3 259 258 249 
3 251 260 250 
3 260 259 250 
3 252 261 251 
3 261 260 251 
3 253 262 252 
3 262 261 252 
3 254 263 253 
3 263 262 253 
3 204 212 264 
3 204 264 254 
3 254 264 263 
3 265 206 255 
3 265 264 206 
3 265 266 264 
3 264 212 206 
3 265 267 266 
3 210 215 256 
3 256 215 217 
3 256 217 257 
3 257 217 268 
3 258 269 218 
3 211 258 218 
3 259 270 258 
3 270 269 258 
3 260 271 259 
3 271 270 259 
3 261 272 260 
3 272 271 260 
3 262 273 261 
3 273 272 261 
3 263 274 262 
3 274 273 262 
3 264 275 263 
3 275 274 263 
3 266 276 264 
3 276 275 264 
3 277 266 267 
3 277 278 266 
3 278 276 266 
3 278 279 280 
3 277 279 278 
3 280 281 282 
3 279 281 280 
3 282 283 284 
3 281 283 282 
3 284 285 286 
3 283 285 284 
3 286 222 221 
3 286 285 222 
3 285 287 222 
3 268 217 222 
3 287 268 222 
3 218 269 223 
3 224 223 269 
3 270 224 269 
3 225 224 270 
3 271 225 270 
3 226 225 271 
3 272 226 271 
3 227 226 272 
3 273 227 272 
3 228 227 273 
3 274 228 273 
3 229 228 274 
3 275 229 274 
3 230 229 275 
3 276 230 275 
3 231 230 276 
3 278 231 276 
3 232 231 278 
3 280 232 278 
3 233 232 280 
3 282 233 280 
3 234 233 282 
3 284 234 282 
3 235 234 284 
3 286 235 284 
3 221 235 286 
3 239 288 240 
3 239 241 289 
3 288 239 289 
3 241 242 290 
3 289 241 290 
3 242 243 291 
3 290 242 291 
3 243 244 292 
3 291 243 292 
3 244 245 293 
3 292 244 293 
3 245 247 294 
3 293 245 294 
3 247 248 294 
3 288 295 255 
3 240 288 255 
3 289 296 288 
3 296 295 288 
3 290 297 289 
3 297 296 289 
3 291 298 290 
3 298 297 290 
3 292 299 291 
3 299 298 291 
3 293 300 292 
3 300 299 292 
3 294 301 293 
3 301 300 293 
3 248 257 301 
3 294 248 301 
3 255 295 265 
3 267 265 295 
3 267 295 302 
3 302 295 296 
3 297 303 296 
3 303 302 296 
3 298 304 297 
3 304 303 297 
3 299 305 298 
3 305 304 298 
3 300 306 299 
3 306 305 299 
3 301 307 300 
3 307 306 300 
3 257 268 307 
3 301 257 307 
3 267 302 277 
3 279 277 302 
3 303 279 302 
3 281 279 303 
3 304 281 303 
3 283 281 304 
3 305 283 304 
3 285 283 305 
3 306 285 305 
3 287 285 306 
3 307 287 306 
3 268 287 307 

CELL_DATA 616
SCALARS scalars float
LOOKUP_TABLE default
85 85 85 85 85 85 85 85 85 
85 85 85 85 85 85 85 85 85 
85 85 85 85 85 85 85 85 85 
85 85 85 85 85 85 85 85 85 
85 85 85 85 85 85 85 85 85 
85 85 85 85 85 85 85 85 85 
85 85 85 85 85 85 85 85 85 
85 85 85 85 85 85 85 85 85 
85 85 85 85 85 85 85 85 85 
85 85 85 85 85 85 85 85 85 
85 85 85 85 85 85 85 85 85 
85 85 85 85 85 85 85 85 85 
85 85 85 85 85 85 85 85 85 
85 85 85 85 85 85 85 85 85 
85 85 85 85 85 85 85 85 85 
85 85 85 85 85 85 85 85 85 
85 85 85 85 85 85 85 85 85 
85 85 85 85 85 85 85 85 85 
85 85 85 85 85 85 85 85 85 
85 85 85 85 85 85 85 85 85 
85 85 85 85 85 85 85 85 85 
85 85 85 85 85 85 85 85 85 
85 85 85 85 85 85 85 85 85 
85 85 85 85 85 85 85 85 85 
85 85 85 85 85 85 85 85 85 
85 85 85 85 85 85 85 85 85 
85 85 85 85 85 85 85 85 85 
85 85 85 85 85 85 85 85 85 
85 85 85 85 85 85 85 85 85 
85 85 85 85 85 85 85 85 85 
85 85 85 85 85 85 85 85 85 
85 85 85 85 85 85 85 85 85 
85 85 85 85 85 85 85 85 85 
85 85 85 85 85 85 85 85 85 
85 85 85 85 85 85 85 85 85 
85 85 85 85 85 85 85 85 85 
85 85 85 85 85 85 85 85 85 
85 85 85 85 85 85 85 85 85 
85 85 85 85 85 85 85 85 85 
85 85 85 85 85 85 85 85 85 
85 85 85 85 85 85 85 85 85 
85 85 85 85 85 85 85 85 85 
85 85 85 85 85 85 85 85 85 
85 85 85 85 85 85 85 85 85 
85 85 85 85 85 85 85 85 85 
85 85 85 85 85 85 85 85 85 
85 85 85 85 85 85 85 85 85 
85 85 85 85 85 85 85 85 85 
85 85 85 85 85 85 85 85 85 
85 85 85 85 85 85 85 85 85 
85 85 85 85 85 85 85 85 85 
85 85 85 85 85 85 85 85 85 
85 85 85 85 85 85 85 85 85 
85 85 85 85 85 85 85 85 85 
85 85 85 85 85 85 85 85 85 
85 85 85 85 85 85 85 85 85 
85 85 85 85 85 85 85 85 85 
85 85 85 85 85 85 85 85 85 
85 85 85 85 85 85 85 85 85 
85 85 85 85 85 85 85 85 85 
85 85 85 85 85 85 85 85 85 
85 85 85 85 85 85 85 85 85 
85 85 85 85 85 85 85 85 85 
85 85 85 85 85 85 85 85 85 
85 85 85 85 85 85 85 85 85 
85 85 85 85 85 85 85 85 85 
85 85 85 85 85 85 85 85 85 
85 85 85 85 85 85 85 85 85 
85 85 85 85 
