# vtk DataFile Version 4.2
vtk output
ASCII
DATASET POLYDATA
POINTS 308 float
0.0216447 19.8914 -17.6842 0.210441 19.2852 -16.9569 0.688543 19.4194 -17.6094 
-0.749376 19.843 -17.7765 -0.697496 19.4351 -17.1919 -1.32874 19.37 -17.5349 
0.366111 19.8633 -18.3511 0.591237 19.2588 -18.3793 -0.331062 19.9145 -18.4647 
-1.02698 19.4061 -18.2628 0.107437 19.6576 -18.8188 -0.463931 19.5129 -18.8384 
7.08294 18.895 -15.6782 7.42921 18.4147 -15.0071 7.73587 18.4477 -15.6001 
6.08331 18.9363 -15.6658 6.6423 18.5407 -14.9948 5.02625 18.9138 -15.6385 
5.60014 18.5201 -14.9895 4.00199 18.9496 -15.6423 4.55279 18.5219 -14.9728 
3.06591 18.862 -15.7663 3.59942 18.5301 -15.034 2.85578 18.1651 -15.3008 
7.27679 18.887 -16.5057 7.66513 18.3088 -16.3069 6.37502 19.0817 -16.602 
5.30119 19.0621 -16.5931 4.25465 19.0746 -16.5682 3.25858 19.0905 -16.5901 
2.28698 18.3949 -16.0026 2.3972 18.8581 -16.6321 1.79691 18.3763 -16.5172 
0.227448 18.7446 -16.5111 0.385264 18.4817 -16.1654 0.788268 18.6352 -16.6873 
-0.222708 18.1585 -16.658 7.15872 18.3739 -16.9743 6.64129 18.362 -17.5693 
6.59886 18.8503 -17.371 5.64409 18.9235 -17.5043 4.5985 18.9133 -17.4969 
3.56191 18.9323 -17.4901 2.59778 18.8273 -17.4921 1.83766 18.4892 -17.2444 
0.965966 18.5544 -17.747 -0.671229 18.6548 -16.9625 -1.658 18.7896 -17.7323 
-1.56268 18.7586 -17.2733 -1.9693 18.4086 -17.5265 6.11902 18.5832 -17.8524 
5.30507 18.5112 -17.9 4.26613 18.5146 -17.8845 3.13943 18.3746 -17.9413 
2.08167 18.2123 -17.9325 0.461695 18.3484 -18.2473 -0.0534828 19.0727 -18.6991 
-0.692711 18.4244 -18.1398 -0.651938 19.1199 -18.6655 -1.62711 18.2964 -17.7263 
7.10079 17.9613 -14.4803 7.4213 17.367 -13.9723 7.78972 17.5962 -14.6095 
6.11508 18.0162 -14.5061 6.63649 17.4996 -13.9946 5.04784 17.9858 -14.5038 
5.5965 17.491 -14.0197 4.03499 17.9972 -14.4917 4.55904 17.4725 -13.9967 
3.30751 18.0062 -14.6163 3.63698 17.5115 -14.0561 2.97522 17.5679 -14.5605 
-0.874386 17.8704 -14.7139 -0.907587 17.3595 -14.0379 -0.19079 17.4989 -14.4676 
-1.92545 17.8463 -14.7888 -1.46598 17.5117 -14.1866 -2.21957 17.334 -14.3076 
7.82533 17.3891 -15.5453 2.67632 17.1927 -15.6766 0.188158 18.0029 -15.6571 
0.496166 17.4298 -15.0609 0.865649 17.2446 -15.8929 -0.867091 18.0574 -15.6628 
-1.74854 18.0523 -15.5803 -2.62634 17.6017 -14.9556 -2.63185 17.8394 -15.6589 
-3.077 17.2743 -15.3638 7.34167 17.4577 -16.2152 7.41553 18.0449 -16.5698 
6.89649 17.5301 -16.5885 2.20239 17.6041 -15.9972 1.21416 18.0752 -16.4753 
1.58414 17.7616 -16.1669 -0.740016 17.9309 -16.411 -1.55429 17.9815 -16.3253 
-2.40268 17.8513 -16.4803 -2.99788 17.4406 -16.3068 6.52987 17.7551 -17.0998 
6.03189 18.0609 -17.652 5.65065 17.4751 -17.063 5.07592 17.984 -17.6238 
4.63949 17.4701 -17.0418 4.03949 17.9839 -17.6291 3.67628 17.4526 -17.1357 
3.23409 17.8024 -17.7107 2.93316 17.3551 -17.4459 1.38024 18.1896 -17.4474 
-0.919859 18.1175 -17.4634 -0.277876 17.665 -17.5338 -0.546266 17.5159 -17.024 
-1.6042 17.5716 -16.8417 -1.59536 18.2685 -17.4027 -2.53148 17.4516 -16.8314 
2.47371 17.6829 -17.9442 1.39384 17.6523 -17.9525 0.39143 17.5038 -17.9355 
4.1447 16.8095 -12.6511 4.21065 16.0969 -12.0875 4.87507 16.4566 -12.5888 
3.03246 16.895 -12.5683 3.30269 16.3445 -12.0083 2.261 16.7564 -12.6617 
2.51022 16.5214 -12.123 1.9975 16.2518 -12.4395 7.08605 16.8963 -13.4635 
7.28131 16.1045 -13.1055 7.75731 16.6836 -13.6968 6.12135 16.9815 -13.4868 
6.3927 16.2972 -13.0643 5.07716 16.9817 -13.3186 5.50898 16.3573 -12.9365 
4.18399 17.1521 -13.47 3.27361 17.1576 -13.5425 2.22021 16.9165 -13.5668 
1.74674 16.2538 -13.2957 -0.640806 16.8848 -13.7831 -0.519539 16.4186 -13.2766 
-0.0975631 16.5809 -13.7085 -1.09106 16.4339 -13.3279 -2.60184 16.734 -13.836 
-2.52169 16.364 -13.2344 -2.19208 16.4829 -13.4912 -3.01685 16.3791 -13.4261 
7.98162 16.4838 -14.4773 2.31737 17.1436 -14.6472 1.37582 16.5097 -13.9747 
1.31628 16.894 -14.4135 0.322658 17.0076 -14.4042 0.660357 16.3409 -13.9947 
-1.64054 16.8294 -13.7536 -2.83613 17.1449 -14.5874 -3.2536 16.6035 -14.4307 
7.80586 16.1387 -15.3915 2.04964 16.9043 -15.5518 1.24895 17.0598 -15.2001 
-3.27659 16.6563 -15.6666 7.26298 16.4439 -15.9699 6.3855 16.4938 -16.2002 
6.02605 17.0251 -16.5439 5.2574 16.2758 -16.1866 5.05226 16.9253 -16.5103 
4.26088 16.2902 -16.1783 4.06194 16.96 -16.5266 3.22464 16.4295 -16.1282 
3.09716 17.0348 -16.6738 2.22387 16.364 -15.9674 2.2463 17.0374 -16.6402 
1.22286 16.4473 -15.9188 1.28793 17.0951 -16.5543 0.216656 16.8371 -16.4529 
0.21768 16.3548 -16.0936 -0.710421 16.3108 -16.2215 -0.837379 16.9536 -16.7301 
-1.71348 16.322 -16.2614 -2.03778 16.982 -16.6634 -2.79411 16.3055 -16.1324 
-2.79311 17.0042 -16.4951 2.2691 17.105 -17.4682 1.33287 17.0007 -17.4533 
0.263614 17.0724 -17.24 4.08334 15.4013 -12.1368 4.823 15.7723 -12.4195 
3.29067 15.5377 -11.9895 2.42084 15.8146 -12.0846 1.94375 15.5578 -12.7862 
0.157521 15.7622 -12.4332 0.311618 15.1406 -12.0981 0.675006 15.4835 -12.6749 
-0.79293 15.9972 -12.6834 -0.586902 15.3374 -12.0387 -1.8197 15.8342 -12.4349 
-1.6236 15.3364 -12.0506 -2.81712 15.9851 -12.6705 -2.64496 15.3167 -12.0305 
-3.95802 15.8763 -12.5833 -3.68864 15.3301 -12.02 -4.72132 15.7684 -12.6359 
-4.63673 15.3463 -12.0865 -5.2337 15.3274 -12.4109 7.19399 15.3983 -13.1274 
7.76587 15.7602 -13.5474 6.40755 15.5269 -13.0211 5.47332 15.5938 -12.8495 
1.65704 15.4466 -13.6151 0.194489 16.0569 -13.1817 0.846034 15.2757 -13.5467 
-1.79831 16.2348 -13.1087 -3.73101 16.1389 -13.5912 -4.78649 15.9339 -13.549 
-5.35331 15.5309 -13.1374 7.82419 15.5145 -14.485 1.23202 15.7914 -13.9379 
-3.89376 16.1436 -14.83 -4.58987 16.0045 -14.4148 -5.64245 15.6181 -13.9456 
-5.44496 15.7592 -14.7053 -6.07669 15.2199 -14.3671 7.65476 15.3593 -15.3326 
-3.67817 16.0456 -15.6271 -4.57583 15.8187 -15.3737 -5.21963 15.5588 -15.4941 
-5.66464 15.1302 -15.1164 7.36945 15.6204 -15.8462 6.60206 15.5429 -15.9646 
5.56302 15.5142 -15.9421 4.52602 15.5274 -15.9428 3.53798 15.5554 -15.9589 
2.54506 15.5584 -15.9807 1.54292 15.5565 -15.9961 0.539495 15.5742 -15.9816 
-0.456304 15.5852 -15.9513 -1.44831 15.591 -15.9445 -2.45899 15.5852 -15.9551 
-3.61922 15.5569 -15.869 -4.55236 15.422 -15.8018 4.38878 15.08 -12.7701 
3.30566 15.0018 -12.5384 2.50991 15.1718 -12.4134 0.209991 14.4338 -12.136 
0.73874 14.7518 -12.5764 -0.584572 14.5609 -12.0037 -1.62538 14.5941 -12.0204 
-2.65518 14.5693 -12.0375 -3.69947 14.5485 -12.0342 -4.73292 14.5721 -12.0209 
-5.82074 14.8922 -12.8197 -5.50279 14.6892 -12.1883 -6.00115 14.3048 -12.7309 
7.29275 15.0793 -13.7808 6.38232 15.0016 -13.5577 5.24103 15.0114 -13.4543 
4.16242 14.8624 -13.669 3.31323 14.8469 -13.5045 2.27783 14.983 -13.3848 
0.691213 14.4211 -13.2536 -5.92608 15.1642 -13.6019 -6.14063 14.5346 -13.6814 
7.2383 14.9694 -14.8095 6.34308 14.8307 -14.517 5.29279 14.8507 -14.4996 
4.26291 14.8634 -14.5455 3.27094 14.8505 -14.5747 2.26613 14.8574 -14.5634 
1.19723 14.9926 -14.425 0.571452 14.561 -14.0534 0.109181 14.6927 -14.8635 
-0.0720497 14.3215 -14.4261 -6.11686 14.6625 -14.6181 7.11778 15.1057 -15.5983 
6.31412 14.9756 -15.4445 5.26653 14.9879 -15.4062 4.24772 15.0212 -15.4392 
3.2571 15.0279 -15.4698 2.26133 15.0177 -15.5063 1.26334 15.0326 -15.5021 
0.248324 15.0404 -15.4963 -0.619576 14.4613 -14.934 -0.85391 14.9219 -15.4933 
-1.46027 14.4144 -15.084 -1.99526 14.9329 -15.5971 -2.46316 14.3977 -15.113 
-3.00953 14.9308 -15.6237 -3.47844 14.4141 -15.1384 -4.03488 14.9606 -15.6543 
-4.67967 14.5422 -15.1682 -4.90837 15.1449 -15.6 -5.59412 14.4332 -14.9163 
0.270121 14.0927 -12.7692 -0.607826 14.0071 -12.5573 -1.6555 14.0332 -12.5569 
-2.68958 14.0237 -12.5913 -3.72556 13.9953 -12.621 -4.78694 13.9936 -12.5764 
-5.56289 14.1177 -12.424 0.124783 14.0794 -13.6944 -0.662048 13.871 -13.5036 
-1.6902 13.8548 -13.4792 -2.72271 13.8618 -13.5092 -3.74499 13.8426 -13.5535 
-4.80143 13.8332 -13.5365 -5.6993 13.9709 -13.2368 -0.733021 14.0905 -14.4056 
-1.68388 14.011 -14.4114 -2.70187 14.0121 -14.4246 -3.73139 14.0218 -14.4626 
-4.7892 14.0124 -14.4747 -5.71277 14.1034 -14.2584 
POLYGONS 616 2464
3 0 1 2 
3 0 3 4 
3 1 0 4 
3 4 3 5 
3 6 0 2 
3 7 6 2 
3 3 0 8 
3 8 0 6 
3 9 5 3 
3 8 9 3 
3 6 7 10 
3 8 6 10 
3 11 8 10 
3 9 8 11 
3 12 13 14 
3 12 15 16 
3 13 12 16 
3 15 17 18 
3 16 15 18 
3 17 19 20 
3 18 17 20 
3 19 21 22 
3 20 19 22 
3 22 21 23 
3 24 12 14 
3 25 24 14 
3 15 12 26 
3 26 12 24 
3 17 15 27 
3 27 15 26 
3 19 17 28 
3 28 17 27 
3 21 19 29 
3 29 19 28 
3 30 23 21 
3 30 21 31 
3 31 21 29 
3 30 31 32 
3 33 34 35 
3 34 33 36 
3 24 25 37 
3 37 38 39 
3 37 39 24 
3 24 39 26 
3 27 26 40 
3 40 26 39 
3 28 27 41 
3 41 27 40 
3 29 28 42 
3 42 28 41 
3 31 29 43 
3 43 29 42 
3 44 32 31 
3 43 44 31 
3 1 33 35 
3 1 35 2 
3 2 35 45 
3 33 46 36 
3 33 1 46 
3 1 4 46 
3 5 47 48 
3 5 48 4 
3 4 48 46 
3 48 47 49 
3 39 38 50 
3 40 39 50 
3 51 40 50 
3 41 40 51 
3 52 41 51 
3 42 41 52 
3 53 42 52 
3 43 42 53 
3 54 43 53 
3 44 43 54 
3 55 56 7 
3 55 7 45 
3 45 7 2 
3 56 57 58 
3 55 57 56 
3 47 57 59 
3 47 9 57 
3 47 5 9 
3 9 58 57 
3 49 47 59 
3 7 56 10 
3 11 10 56 
3 58 11 56 
3 9 11 58 
3 60 61 62 
3 60 63 64 
3 61 60 64 
3 63 65 66 
3 64 63 66 
3 65 67 68 
3 66 65 68 
3 67 69 70 
3 68 67 70 
3 70 69 71 
3 72 73 74 
3 72 75 76 
3 73 72 76 
3 76 75 77 
3 13 60 62 
3 13 62 14 
3 14 62 78 
3 16 60 13 
3 63 60 16 
3 18 63 16 
3 65 63 18 
3 20 65 18 
3 67 65 20 
3 22 67 20 
3 69 67 22 
3 69 22 23 
3 69 23 71 
3 71 23 79 
3 80 81 82 
3 74 81 80 
3 74 80 72 
3 72 80 83 
3 75 72 84 
3 84 72 83 
3 85 77 75 
3 85 75 86 
3 86 75 84 
3 85 86 87 
3 88 89 25 
3 88 25 78 
3 78 25 14 
3 88 90 89 
3 23 91 79 
3 30 91 23 
3 32 92 93 
3 32 93 30 
3 30 93 91 
3 82 93 92 
3 80 82 92 
3 80 92 35 
3 80 35 34 
3 36 80 34 
3 36 94 80 
3 94 83 80 
3 84 83 95 
3 95 83 94 
3 86 84 96 
3 96 84 95 
3 97 87 86 
3 96 97 86 
3 25 89 37 
3 38 98 99 
3 37 98 38 
3 37 90 98 
3 37 89 90 
3 99 100 101 
3 98 100 99 
3 101 102 103 
3 100 102 101 
3 103 104 105 
3 102 104 103 
3 104 106 105 
3 92 44 107 
3 32 44 92 
3 35 107 45 
3 92 107 35 
3 108 36 46 
3 108 109 36 
3 94 36 110 
3 110 36 109 
3 95 94 111 
3 94 110 111 
3 112 46 48 
3 112 108 46 
3 111 113 96 
3 111 96 95 
3 48 49 112 
3 97 96 113 
3 38 99 50 
3 51 50 99 
3 101 51 99 
3 52 51 101 
3 103 52 101 
3 53 52 103 
3 105 53 103 
3 105 106 114 
3 105 114 53 
3 53 114 54 
3 107 44 54 
3 107 54 115 
3 115 54 114 
3 45 107 115 
3 45 115 55 
3 55 115 116 
3 109 108 57 
3 109 57 116 
3 116 57 55 
3 59 57 108 
3 112 59 108 
3 49 59 112 
3 117 118 119 
3 117 120 121 
3 118 117 121 
3 120 122 123 
3 121 120 123 
3 123 122 124 
3 125 126 127 
3 125 128 129 
3 126 125 129 
3 128 130 131 
3 129 128 131 
3 119 131 130 
3 119 130 117 
3 117 130 132 
3 120 117 133 
3 133 117 132 
3 122 120 134 
3 134 120 133 
3 135 124 122 
3 134 135 122 
3 136 137 138 
3 137 136 139 
3 140 141 142 
3 141 140 143 
3 61 125 127 
3 61 127 62 
3 62 127 144 
3 64 125 61 
3 128 125 64 
3 66 128 64 
3 130 128 66 
3 68 130 66 
3 132 130 68 
3 70 132 68 
3 133 132 70 
3 71 133 70 
3 71 145 133 
3 145 134 133 
3 146 135 134 
3 146 134 147 
3 147 134 145 
3 147 148 149 
3 146 147 149 
3 138 149 148 
3 136 138 148 
3 136 148 74 
3 136 74 73 
3 136 150 139 
3 136 73 150 
3 73 76 150 
3 77 151 140 
3 77 140 150 
3 77 150 76 
3 150 140 142 
3 152 143 140 
3 151 152 140 
3 62 144 78 
3 144 153 78 
3 145 79 154 
3 71 79 145 
3 147 145 155 
3 155 145 154 
3 81 155 82 
3 81 148 155 
3 148 147 155 
3 74 148 81 
3 77 85 151 
3 151 85 87 
3 151 87 152 
3 152 87 156 
3 78 153 157 
3 88 78 157 
3 90 158 159 
3 90 88 158 
3 88 157 158 
3 159 160 161 
3 158 160 159 
3 161 162 163 
3 160 162 161 
3 163 164 165 
3 162 164 163 
3 166 79 164 
3 166 154 79 
3 164 79 165 
3 91 167 79 
3 165 79 167 
3 155 154 168 
3 154 166 168 
3 169 91 93 
3 169 167 91 
3 169 82 170 
3 169 93 82 
3 170 82 171 
3 155 168 82 
3 171 82 168 
3 170 172 173 
3 171 172 170 
3 173 174 175 
3 172 174 173 
3 175 176 177 
3 174 176 175 
3 177 176 156 
3 177 156 97 
3 97 156 87 
3 90 159 98 
3 100 98 159 
3 161 100 159 
3 102 100 161 
3 163 102 161 
3 104 102 163 
3 165 104 163 
3 106 104 165 
3 106 165 178 
3 178 165 167 
3 169 179 167 
3 179 178 167 
3 170 180 169 
3 180 179 169 
3 110 109 180 
3 110 180 173 
3 173 180 170 
3 111 110 173 
3 175 111 173 
3 113 111 175 
3 177 113 175 
3 97 113 177 
3 106 178 114 
3 115 114 178 
3 179 115 178 
3 116 115 179 
3 180 116 179 
3 109 116 180 
3 118 181 182 
3 119 118 182 
3 121 183 118 
3 118 183 181 
3 123 184 121 
3 121 184 183 
3 184 123 124 
3 185 184 124 
3 186 187 188 
3 186 189 190 
3 187 186 190 
3 189 191 192 
3 190 189 192 
3 191 193 194 
3 192 191 194 
3 193 195 196 
3 194 193 196 
3 195 197 198 
3 196 195 198 
3 198 197 199 
3 126 200 201 
3 127 126 201 
3 129 202 126 
3 126 202 200 
3 131 203 129 
3 129 203 202 
3 182 131 119 
3 203 131 182 
3 124 135 185 
3 185 135 204 
3 205 186 188 
3 206 205 188 
3 137 205 138 
3 137 189 205 
3 189 186 205 
3 139 189 137 
3 139 207 189 
3 207 191 189 
3 141 207 142 
3 141 193 207 
3 193 191 207 
3 143 193 141 
3 143 208 193 
3 208 195 193 
3 197 195 209 
3 209 195 208 
3 210 199 197 
3 209 210 197 
3 127 201 144 
3 201 211 144 
3 135 212 204 
3 146 212 135 
3 206 149 205 
3 206 212 149 
3 212 146 149 
3 138 205 149 
3 139 150 207 
3 142 207 150 
3 208 152 213 
3 143 152 208 
3 209 208 214 
3 214 208 213 
3 215 210 209 
3 215 209 216 
3 216 209 214 
3 215 216 217 
3 144 211 153 
3 211 218 153 
3 213 156 219 
3 152 156 213 
3 214 213 220 
3 220 213 219 
3 221 222 216 
3 221 216 220 
3 220 216 214 
3 217 216 222 
3 153 218 223 
3 157 153 223 
3 158 157 224 
3 157 223 224 
3 160 158 225 
3 158 224 225 
3 162 160 226 
3 160 225 226 
3 164 162 227 
3 162 226 227 
3 166 164 228 
3 164 227 228 
3 168 166 229 
3 166 228 229 
3 171 168 230 
3 168 229 230 
3 172 171 231 
3 171 230 231 
3 174 172 232 
3 172 231 232 
3 176 174 233 
3 174 232 233 
3 219 156 176 
3 219 176 234 
3 234 176 233 
3 220 219 234 
3 235 220 234 
3 221 220 235 
3 181 236 182 
3 181 183 237 
3 236 181 237 
3 183 184 238 
3 237 183 238 
3 184 185 238 
3 187 239 240 
3 188 187 240 
3 190 241 187 
3 187 241 239 
3 192 242 190 
3 190 242 241 
3 194 243 192 
3 192 243 242 
3 196 244 194 
3 194 244 243 
3 198 245 196 
3 196 245 244 
3 199 246 247 
3 199 247 198 
3 198 247 245 
3 247 246 248 
3 200 249 201 
3 200 202 250 
3 249 200 250 
3 202 203 251 
3 250 202 251 
3 203 182 236 
3 203 236 251 
3 251 236 252 
3 237 253 236 
3 253 252 236 
3 238 254 237 
3 254 253 237 
3 185 204 254 
3 238 185 254 
3 188 240 206 
3 240 255 206 
3 246 210 256 
3 199 210 246 
3 257 248 246 
3 256 257 246 
3 249 258 211 
3 201 249 211 
3 250 259 249 
3 259 258 249 
3 251 260 250 
3 260 259 250 
3 252 261 251 
3 261 260 251 
3 253 262 252 
3 262 261 252 
3 254 263 253 
3 263 262 253 
3 204 212 264 
3 204 264 254 
3 254 264 263 
3 265 206 255 
3 265 264 206 
3 265 266 264 
3 264 212 206 
3 265 267 266 
3 210 215 256 
3 256 215 217 
3 256 217 257 
3 257 217 268 
3 258 269 218 
3 211 258 218 
3 259 270 258 
3 270 269 258 
3 260 271 259 
3 271 270 259 
3 261 272 260 
3 272 271 260 
3 262 273 261 
3 273 272 261 
3 263 274 262 
3 274 273 262 
3 264 275 263 
3 275 274 263 
3 266 276 264 
3 276 275 264 
3 277 266 267 
3 277 278 266 
3 278 276 266 
3 278 279 280 
3 277 279 278 
3 280 281 282 
3 279 281 280 
3 282 283 284 
3 281 283 282 
3 284 285 286 
3 283 285 284 
3 286 222 221 
3 286 285 222 
3 285 287 222 
3 268 217 222 
3 287 268 222 
3 218 269 223 
3 224 223 269 
3 270 224 269 
3 225 224 270 
3 271 225 270 
3 226 225 271 
3 272 226 271 
3 227 226 272 
3 273 227 272 
3 228 227 273 
3 274 228 273 
3 229 228 274 
3 275 229 274 
3 230 229 275 
3 276 230 275 
3 231 230 276 
3 278 231 276 
3 232 231 278 
3 280 232 278 
3 233 232 280 
3 282 233 280 
3 234 233 282 
3 284 234 282 
3 235 234 284 
3 286 235 284 
3 221 235 286 
3 239 288 240 
3 239 241 289 
3 288 239 289 
3 241 242 290 
3 289 241 290 
3 242 243 291 
3 290 242 291 
3 243 244 292 
3 291 243 292 
3 244 245 293 
3 292 244 293 
3 245 247 294 
3 293 245 294 
3 247 248 294 
3 288 295 255 
3 240 288 255 
3 289 296 288 
3 296 295 288 
3 290 297 289 
3 297 296 289 
3 291 298 290 
3 298 297 290 
3 292 299 291 
3 299 298 291 
3 293 300 292 
3 300 299 292 
3 294 301 293 
3 301 300 293 
3 248 257 301 
3 294 248 301 
3 255 295 265 
3 267 265 295 
3 267 295 302 
3 302 295 296 
3 297 303 296 
3 303 302 296 
3 298 304 297 
3 304 303 297 
3 299 305 298 
3 305 304 298 
3 300 306 299 
3 306 305 299 
3 301 307 300 
3 307 306 300 
3 257 268 307 
3 301 257 307 
3 267 302 277 
3 279 277 302 
3 303 279 302 
3 281 279 303 
3 304 281 303 
3 283 281 304 
3 305 283 304 
3 285 283 305 
3 306 285 305 
3 287 285 306 
3 307 287 306 
3 268 287 307 

CELL_DATA 616
SCALARS scalars float
LOOKUP_TABLE default
85 85 85 85 85 85 85 85 85 
85 85 85 85 85 85 85 85 85 
85 85 85 85 85 85 85 85 85 
85 85 85 85 85 85 85 85 85 
85 85 85 85 85 85 85 85 85 
85 85 85 85 85 85 85 85 85 
85 85 85 85 85 85 85 85 85 
85 85 85 85 85 85 85 85 85 
85 85 85 85 85 85 85 85 85 
85 85 85 85 85 85 85 85 85 
85 85 85 85 85 85 85 85 85 
85 85 85 85 85 85 85 85 85 
85 85 85 85 85 85 85 85 85 
85 85 85 85 85 85 85 85 85 
85 85 85 85 85 85 85 85 85 
85 85 85 85 85 85 85 85 85 
85 85 85 85 85 85 85 85 85 
85 85 85 85 85 85 85 85 85 
85 85 85 85 85 85 85 85 85 
85 85 85 85 85 85 85 85 85 
85 85 85 85 85 85 85 85 85 
85 85 85 85 85 85 85 85 85 
85 85 85 85 85 85 85 85 85 
85 85 85 85 85 85 85 85 85 
85 85 85 85 85 85 85 85 85 
85 85 85 85 85 85 85 85 85 
85 85 85 85 85 85 85 85 85 
85 85 85 85 85 85 85 85 85 
85 85 85 85 85 85 85 85 85 
85 85 85 85 85 85 85 85 85 
85 85 85 85 85 85 85 85 85 
85 85 85 85 85 85 85 85 85 
85 85 85 85 85 85 85 85 85 
85 85 85 85 85 85 85 85 85 
85 85 85 85 85 85 85 85 85 
85 85 85 85 85 85 85 85 85 
85 85 85 85 85 85 85 85 85 
85 85 85 85 85 85 85 85 85 
85 85 85 85 85 85 85 85 85 
85 85 85 85 85 85 85 85 85 
85 85 85 85 85 85 85 85 85 
85 85 85 85 85 85 85 85 85 
85 85 85 85 85 85 85 85 85 
85 85 85 85 85 85 85 85 85 
85 85 85 85 85 85 85 85 85 
85 85 85 85 85 85 85 85 85 
85 85 85 85 85 85 85 85 85 
85 85 85 85 85 85 85 85 85 
85 85 85 85 85 85 85 85 85 
85 85 85 85 85 85 85 85 85 
85 85 85 85 85 85 85 85 85 
85 85 85 85 85 85 85 85 85 
85 85 85 85 85 85 85 85 85 
85 85 85 85 85 85 85 85 85 
85 85 85 85 85 85 85 85 85 
85 85 85 85 85 85 85 85 85 
85 85 85 85 85 85 85 85 85 
85 85 85 85 85 85 85 85 85 
85 85 85 85 85 85 85 85 85 
85 85 85 85 85 85 85 85 85 
85 85 85 85 85 85 85 85 85 
85 85 85 85 85 85 85 85 85 
85 85 85 85 85 85 85 85 85 
85 85 85 85 85 85 85 85 85 
85 85 85 85 85 85 85 85 85 
85 85 85 85 85 85 85 85 85 
85 85 85 85 85 85 85 85 85 
85 85 85 85 85 85 85 85 85 
85 85 85 85 
