# vtk DataFile Version 4.2
vtk output
ASCII
DATASET POLYDATA
POINTS 308 float
0.0155365 -35.1901 3.55532 0.128833 -34.7537 3.19157 0.415613 -35.1453 3.27201 
-0.447098 -35.2453 3.52638 -0.415942 -34.8946 3.28161 -0.794751 -35.1003 3.24265 
0.222107 -35.5902 3.5384 0.357083 -35.6072 3.17565 -0.196207 -35.6583 3.56922 
-0.613806 -35.537 3.26429 0.0667969 -35.8709 3.41501 -0.27605 -35.8825 3.32826 
4.25247 -33.9876 2.95635 4.46026 -33.585 2.66813 4.64417 -33.9408 2.68785 
3.6527 -33.98 2.9813 3.98814 -33.5775 2.74381 3.01847 -33.9635 2.96794 
3.36284 -33.5741 2.73162 2.40391 -33.9656 2.98959 2.73443 -33.5639 2.7329 
1.84224 -34.0398 2.93719 2.1624 -33.6005 2.73793 1.71612 -33.7605 2.51904 
4.36865 -34.4841 2.9515 4.6016 -34.3649 2.60456 3.8276 -34.5417 3.06846 
3.1833 -34.5362 3.05686 2.55539 -34.5211 3.06455 1.95775 -34.5341 3.07426 
1.37477 -34.1815 2.65703 1.44088 -34.5592 2.93494 1.08064 -34.4902 2.64597 
0.139023 -34.4862 2.8672 0.233725 -34.2789 2.70941 0.47547 -34.592 2.80143 
-0.131186 -34.5743 2.51558 4.29765 -34.7652 2.6437 3.9871 -35.1222 2.6366 
3.96175 -35.0032 2.9296 3.38888 -35.083 2.97366 2.76152 -35.0784 2.96772 
2.13957 -35.0742 2.9793 1.56108 -35.0752 2.91645 1.105 -34.9265 2.71371 
0.581909 -35.2279 2.75298 -0.400269 -34.757 2.81345 -0.992432 -35.2187 2.8945 
-0.935175 -34.9433 2.87585 -1.17924 -35.0951 2.66593 3.67373 -35.2919 2.76941 
3.18534 -35.3204 2.72637 2.56198 -35.3109 2.72856 1.88593 -35.3448 2.64472 
1.25125 -35.3394 2.54751 0.279236 -35.528 2.62941 -0.0298279 -35.799 3.06409 
-0.413379 -35.4633 2.67524 -0.388889 -35.7787 3.09252 -0.973975 -35.2151 2.59858 
4.26322 -33.2688 2.39612 4.45551 -32.9641 2.03952 4.6765 -33.3465 2.17695 
3.6718 -33.2842 2.42922 3.98465 -32.9773 2.11917 3.03145 -33.2826 2.41116 
3.36065 -32.9923 2.1142 2.42374 -33.2752 2.41814 2.73817 -32.9783 2.10325 
1.98724 -33.3498 2.42367 2.18493 -33.0138 2.1268 1.78781 -33.3163 2.1607 
-0.521933 -33.4078 2.34285 -0.541827 -33.0021 2.03632 -0.111795 -33.2601 2.11985 
-1.15258 -33.4525 2.32855 -0.876865 -33.0913 2.1277 -1.32906 -33.1637 2.02119 
4.69769 -33.908 2.05272 1.60823 -33.9859 1.93566 0.115466 -33.9738 2.42218 
0.300275 -33.6161 2.07824 0.521805 -34.1154 1.96708 -0.517676 -33.9771 2.45505 
-1.04653 -33.9275 2.4521 -1.57319 -33.5525 2.18188 -1.57657 -33.9745 2.32452 
-1.8437 -33.7974 1.98553 4.4074 -34.3098 2.09391 4.45175 -34.5226 2.44622 
4.14024 -34.5337 2.13743 1.32389 -34.1782 2.18257 0.730948 -34.4649 2.46537 
0.952936 -34.2799 2.27718 -0.441568 -34.426 2.37911 -0.930112 -34.3745 2.40961 
-1.43919 -34.4674 2.33163 -1.79635 -34.3631 2.08528 3.92023 -34.8404 2.27251 
3.6214 -35.1717 2.45604 3.39266 -34.8182 2.10462 3.04781 -35.1546 2.41008 
2.78596 -34.8054 2.1018 2.42595 -35.1576 2.41014 2.20802 -34.8615 2.09145 
1.94267 -35.2065 2.30141 1.76208 -35.0476 2.03305 0.830466 -35.0482 2.53398 
-0.549609 -35.0574 2.49109 -0.164502 -35.0998 2.21951 -0.325479 -34.7938 2.13007 
-0.960205 -34.6843 2.16367 -0.954877 -35.0209 2.58181 -1.51659 -34.678 2.0918 
1.48639 -35.3465 2.2298 0.838458 -35.3513 2.21161 0.236993 -35.3409 2.12269 
2.48968 -32.1708 1.70553 2.52922 -31.8327 1.27796 2.92785 -32.1336 1.49367 
1.82236 -32.121 1.75699 1.9845 -31.785 1.42663 1.35945 -32.1769 1.67392 
1.50903 -31.8537 1.53288 1.2013 -32.0435 1.37122 4.25437 -32.6587 1.75714 
4.37146 -32.444 1.28201 4.65706 -32.7988 1.62941 3.67556 -32.6726 1.80842 
3.83833 -32.4191 1.39775 3.04907 -32.5715 1.80866 3.30813 -32.3423 1.43398 
2.51317 -32.6622 1.91107 1.96694 -32.7056 1.91453 1.33486 -32.7199 1.77 
1.05071 -32.5572 1.37249 -0.381793 -32.8493 1.75145 -0.309027 -32.5454 1.47168 
-0.0558838 -32.8046 1.56904 -0.651947 -32.5761 1.48099 -1.55845 -32.8807 1.66125 
-1.51032 -32.5198 1.43924 -1.31257 -32.6739 1.51051 -1.80744 -32.6347 1.44837 
4.79149 -33.2672 1.50951 1.39302 -33.3682 1.90626 0.828094 -32.9646 1.52609 
0.792361 -33.2278 1.75665 0.196207 -33.2221 1.82496 0.398785 -32.9765 1.42489 
-0.981638 -32.8314 1.71834 -1.69907 -33.3315 1.90787 -1.94962 -33.2374 1.58305 
4.68583 -33.8156 1.30246 1.2322 -33.9109 1.76274 0.751868 -33.6998 1.85612 
-1.9636 -33.979 1.61478 4.36007 -34.1626 1.48564 3.83355 -34.3007 1.51575 
3.61791 -34.5068 1.83456 3.15666 -34.2923 1.38511 3.03362 -34.4865 1.77482 
2.55875 -34.2872 1.39391 2.43944 -34.4962 1.79583 1.93704 -34.257 1.47765 
1.86055 -34.5843 1.84088 1.33659 -34.1603 1.43851 1.35005 -34.564 1.84256 
0.736002 -34.131 1.48867 0.775049 -34.5123 1.87733 0.132257 -34.4513 1.72268 
0.132852 -34.2357 1.43333 -0.424036 -34.3123 1.40706 -0.500189 -34.6175 1.79277 
-1.02588 -34.3361 1.41395 -1.22042 -34.5773 1.80996 -1.67423 -34.2585 1.4042 
-1.67358 -34.4762 1.82341 1.3636 -35.0608 1.8831 0.801855 -35.0517 1.82066 
0.160345 -34.9236 1.86385 2.45272 -31.8622 0.860582 2.89653 -32.032 1.08307 
1.97716 -31.7738 0.94259 1.45529 -31.8307 1.10886 1.16889 -32.2516 0.954854 
0.0972382 -32.0395 1.07773 0.189651 -31.8385 0.704745 0.407648 -32.1846 0.910469 
-0.473035 -32.1895 1.21889 -0.34942 -31.8027 0.823013 -1.08908 -32.0402 1.12124 
-0.971439 -31.8096 0.822583 -1.68755 -32.1814 1.21199 -1.58426 -31.7975 0.810892 
-2.37209 -32.1289 1.14688 -2.21046 -31.791 0.819077 -2.8301 -32.1603 1.08224 
-2.77932 -31.8307 0.828996 -3.13756 -32.0252 0.817731 4.31895 -32.4571 0.858321 
4.66207 -32.7092 1.07536 3.84713 -32.3932 0.935596 3.28663 -32.2901 0.975856 
0.996716 -32.7489 0.888139 0.119348 -32.4886 1.25454 0.510095 -32.7077 0.785756 
-1.07629 -32.4445 1.36164 -2.236 -32.7337 1.30437 -2.86932 -32.7082 1.18157 
-3.20941 -32.4611 0.939821 4.69688 -33.2718 0.927933 0.741705 -32.9425 1.0951 
-2.33384 -33.477 1.30724 -2.75147 -33.2277 1.22391 -3.383 -32.946 0.992216 
-3.26461 -33.4018 1.07683 -3.64368 -33.1988 0.753355 4.59506 -33.7803 0.834814 
-2.20464 -33.9552 1.24841 -2.74322 -33.803 1.11238 -3.12957 -33.8752 0.956575 
-3.39658 -33.6485 0.699477 4.42384 -34.0884 0.991571 3.96337 -34.1594 0.945163 
3.33995 -34.1457 0.928116 2.71775 -34.1459 0.936168 2.12493 -34.1554 0.953137 
1.52917 -34.1683 0.955092 0.927887 -34.1774 0.954099 0.325836 -34.1686 0.964925 
-0.271637 -34.1502 0.971622 -0.86684 -34.146 0.975266 -1.47325 -34.1522 0.971951 
-2.16938 -34.1004 0.955151 -2.72927 -34.0599 0.874388 2.63584 -32.2423 0.667749 
1.98598 -32.1031 0.621016 1.50858 -32.028 0.72312 0.128558 -31.8612 0.280692 
0.445789 -32.1255 0.471451 -0.348138 -31.7817 0.357092 -0.97262 -31.7915 0.377202 
-1.59051 -31.8016 0.362444 -2.21709 -31.7995 0.35013 -2.83715 -31.7913 0.364435 
-3.48992 -32.2704 0.556718 -3.29908 -31.8917 0.434816 -3.59824 -32.2172 0.204291 
4.37806 -32.8491 0.666879 3.83182 -32.7152 0.620389 3.14707 -32.6529 0.626472 
2.49984 -32.7816 0.537254 1.99035 -32.6828 0.528108 1.36915 -32.6108 0.609915 
0.417114 -32.5318 0.273033 -3.5532 -32.7398 0.719893 -3.68204 -32.7874 0.342155 
4.34521 -33.4664 0.600993 3.8081 -33.2907 0.517854 3.17793 -33.2802 0.530054 
2.56 -33.3075 0.537845 1.96481 -33.3249 0.53026 1.36193 -33.3179 0.534554 
0.72063 -33.2348 0.615857 0.345154 -33.0117 0.356969 0.0676849 -33.4976 0.436089 
-0.0410431 -33.2352 0.21335 -3.6679 -33.3494 0.418895 4.27279 -33.9396 0.682736 
3.7906 -33.8473 0.604857 3.16206 -33.8241 0.612396 2.55077 -33.8437 0.63251 
1.95639 -33.8619 0.636671 1.35893 -33.8837 0.630707 0.760135 -33.881 0.639798 
0.151126 -33.8774 0.644641 -0.369617 -33.5398 0.297318 -0.510233 -33.8754 0.573738 
-0.874063 -33.6297 0.269312 -1.19506 -33.9375 0.580513 -1.4758 -33.647 0.259451 
-1.80363 -33.9533 0.579396 -2.08498 -33.6621 0.269476 -2.41883 -33.9715 0.597455 
-2.8057 -33.6797 0.346536 -2.94289 -33.9388 0.708151 -3.35435 -33.5285 0.281264 
0.164484 -32.2411 0.0760117 -0.362265 -32.1138 0.0247925 -0.990866 -32.1134 0.0406128 
-1.61132 -32.1339 0.0351242 -2.23292 -32.1516 0.018251 -2.86974 -32.1246 0.0173447 
-3.33527 -32.0331 0.0919327 0.0771332 -32.7962 0.0680969 -0.394968 -32.6816 -0.0568085 
-1.01186 -32.6668 -0.0664169 -1.63137 -32.6846 -0.062027 -2.24474 -32.711 -0.073407 
-2.87861 -32.7007 -0.0788864 -3.41726 -32.5207 0.00387268 -0.437659 -33.2228 0.0748581 
-1.00819 -33.2261 0.0273102 -1.61898 -33.2339 0.0281616 -2.2367 -33.2565 0.0341446 
-2.87139 -33.2636 0.0286514 -3.42548 -33.1337 0.0834045 
POLYGONS 616 2464
3 0 1 2 
3 0 3 4 
3 1 0 4 
3 4 3 5 
3 6 0 2 
3 7 6 2 
3 3 0 8 
3 8 0 6 
3 9 5 3 
3 8 9 3 
3 6 7 10 
3 8 6 10 
3 11 8 10 
3 9 8 11 
3 12 13 14 
3 12 15 16 
3 13 12 16 
3 15 17 18 
3 16 15 18 
3 17 19 20 
3 18 17 20 
3 19 21 22 
3 20 19 22 
3 22 21 23 
3 24 12 14 
3 25 24 14 
3 15 12 26 
3 26 12 24 
3 17 15 27 
3 27 15 26 
3 19 17 28 
3 28 17 27 
3 21 19 29 
3 29 19 28 
3 30 23 21 
3 30 21 31 
3 31 21 29 
3 30 31 32 
3 33 34 35 
3 34 33 36 
3 24 25 37 
3 37 38 39 
3 37 39 24 
3 24 39 26 
3 27 26 40 
3 40 26 39 
3 28 27 41 
3 41 27 40 
3 29 28 42 
3 42 28 41 
3 31 29 43 
3 43 29 42 
3 44 32 31 
3 43 44 31 
3 1 33 35 
3 1 35 2 
3 2 35 45 
3 33 46 36 
3 33 1 46 
3 1 4 46 
3 5 47 48 
3 5 48 4 
3 4 48 46 
3 48 47 49 
3 39 38 50 
3 40 39 50 
3 51 40 50 
3 41 40 51 
3 52 41 51 
3 42 41 52 
3 53 42 52 
3 43 42 53 
3 54 43 53 
3 44 43 54 
3 55 56 7 
3 55 7 45 
3 45 7 2 
3 56 57 58 
3 55 57 56 
3 47 57 59 
3 47 9 57 
3 47 5 9 
3 9 58 57 
3 49 47 59 
3 7 56 10 
3 11 10 56 
3 58 11 56 
3 9 11 58 
3 60 61 62 
3 60 63 64 
3 61 60 64 
3 63 65 66 
3 64 63 66 
3 65 67 68 
3 66 65 68 
3 67 69 70 
3 68 67 70 
3 70 69 71 
3 72 73 74 
3 72 75 76 
3 73 72 76 
3 76 75 77 
3 13 60 62 
3 13 62 14 
3 14 62 78 
3 16 60 13 
3 63 60 16 
3 18 63 16 
3 65 63 18 
3 20 65 18 
3 67 65 20 
3 22 67 20 
3 69 67 22 
3 69 22 23 
3 69 23 71 
3 71 23 79 
3 80 81 82 
3 74 81 80 
3 74 80 72 
3 72 80 83 
3 75 72 84 
3 84 72 83 
3 85 77 75 
3 85 75 86 
3 86 75 84 
3 85 86 87 
3 88 89 25 
3 88 25 78 
3 78 25 14 
3 88 90 89 
3 23 91 79 
3 30 91 23 
3 32 92 93 
3 32 93 30 
3 30 93 91 
3 82 93 92 
3 80 82 92 
3 80 92 35 
3 80 35 34 
3 36 80 34 
3 36 94 80 
3 94 83 80 
3 84 83 95 
3 95 83 94 
3 86 84 96 
3 96 84 95 
3 97 87 86 
3 96 97 86 
3 25 89 37 
3 38 98 99 
3 37 98 38 
3 37 90 98 
3 37 89 90 
3 99 100 101 
3 98 100 99 
3 101 102 103 
3 100 102 101 
3 103 104 105 
3 102 104 103 
3 104 106 105 
3 92 44 107 
3 32 44 92 
3 35 107 45 
3 92 107 35 
3 108 36 46 
3 108 109 36 
3 94 36 110 
3 110 36 109 
3 95 94 111 
3 94 110 111 
3 112 46 48 
3 112 108 46 
3 111 113 96 
3 111 96 95 
3 48 49 112 
3 97 96 113 
3 38 99 50 
3 51 50 99 
3 101 51 99 
3 52 51 101 
3 103 52 101 
3 53 52 103 
3 105 53 103 
3 105 106 114 
3 105 114 53 
3 53 114 54 
3 107 44 54 
3 107 54 115 
3 115 54 114 
3 45 107 115 
3 45 115 55 
3 55 115 116 
3 109 108 57 
3 109 57 116 
3 116 57 55 
3 59 57 108 
3 112 59 108 
3 49 59 112 
3 117 118 119 
3 117 120 121 
3 118 117 121 
3 120 122 123 
3 121 120 123 
3 123 122 124 
3 125 126 127 
3 125 128 129 
3 126 125 129 
3 128 130 131 
3 129 128 131 
3 119 131 130 
3 119 130 117 
3 117 130 132 
3 120 117 133 
3 133 117 132 
3 122 120 134 
3 134 120 133 
3 135 124 122 
3 134 135 122 
3 136 137 138 
3 137 136 139 
3 140 141 142 
3 141 140 143 
3 61 125 127 
3 61 127 62 
3 62 127 144 
3 64 125 61 
3 128 125 64 
3 66 128 64 
3 130 128 66 
3 68 130 66 
3 132 130 68 
3 70 132 68 
3 133 132 70 
3 71 133 70 
3 71 145 133 
3 145 134 133 
3 146 135 134 
3 146 134 147 
3 147 134 145 
3 147 148 149 
3 146 147 149 
3 138 149 148 
3 136 138 148 
3 136 148 74 
3 136 74 73 
3 136 150 139 
3 136 73 150 
3 73 76 150 
3 77 151 140 
3 77 140 150 
3 77 150 76 
3 150 140 142 
3 152 143 140 
3 151 152 140 
3 62 144 78 
3 144 153 78 
3 145 79 154 
3 71 79 145 
3 147 145 155 
3 155 145 154 
3 81 155 82 
3 81 148 155 
3 148 147 155 
3 74 148 81 
3 77 85 151 
3 151 85 87 
3 151 87 152 
3 152 87 156 
3 78 153 157 
3 88 78 157 
3 90 158 159 
3 90 88 158 
3 88 157 158 
3 159 160 161 
3 158 160 159 
3 161 162 163 
3 160 162 161 
3 163 164 165 
3 162 164 163 
3 166 79 164 
3 166 154 79 
3 164 79 165 
3 91 167 79 
3 165 79 167 
3 155 154 168 
3 154 166 168 
3 169 91 93 
3 169 167 91 
3 169 82 170 
3 169 93 82 
3 170 82 171 
3 155 168 82 
3 171 82 168 
3 170 172 173 
3 171 172 170 
3 173 174 175 
3 172 174 173 
3 175 176 177 
3 174 176 175 
3 177 176 156 
3 177 156 97 
3 97 156 87 
3 90 159 98 
3 100 98 159 
3 161 100 159 
3 102 100 161 
3 163 102 161 
3 104 102 163 
3 165 104 163 
3 106 104 165 
3 106 165 178 
3 178 165 167 
3 169 179 167 
3 179 178 167 
3 170 180 169 
3 180 179 169 
3 110 109 180 
3 110 180 173 
3 173 180 170 
3 111 110 173 
3 175 111 173 
3 113 111 175 
3 177 113 175 
3 97 113 177 
3 106 178 114 
3 115 114 178 
3 179 115 178 
3 116 115 179 
3 180 116 179 
3 109 116 180 
3 118 181 182 
3 119 118 182 
3 121 183 118 
3 118 183 181 
3 123 184 121 
3 121 184 183 
3 184 123 124 
3 185 184 124 
3 186 187 188 
3 186 189 190 
3 187 186 190 
3 189 191 192 
3 190 189 192 
3 191 193 194 
3 192 191 194 
3 193 195 196 
3 194 193 196 
3 195 197 198 
3 196 195 198 
3 198 197 199 
3 126 200 201 
3 127 126 201 
3 129 202 126 
3 126 202 200 
3 131 203 129 
3 129 203 202 
3 182 131 119 
3 203 131 182 
3 124 135 185 
3 185 135 204 
3 205 186 188 
3 206 205 188 
3 137 205 138 
3 137 189 205 
3 189 186 205 
3 139 189 137 
3 139 207 189 
3 207 191 189 
3 141 207 142 
3 141 193 207 
3 193 191 207 
3 143 193 141 
3 143 208 193 
3 208 195 193 
3 197 195 209 
3 209 195 208 
3 210 199 197 
3 209 210 197 
3 127 201 144 
3 201 211 144 
3 135 212 204 
3 146 212 135 
3 206 149 205 
3 206 212 149 
3 212 146 149 
3 138 205 149 
3 139 150 207 
3 142 207 150 
3 208 152 213 
3 143 152 208 
3 209 208 214 
3 214 208 213 
3 215 210 209 
3 215 209 216 
3 216 209 214 
3 215 216 217 
3 144 211 153 
3 211 218 153 
3 213 156 219 
3 152 156 213 
3 214 213 220 
3 220 213 219 
3 221 222 216 
3 221 216 220 
3 220 216 214 
3 217 216 222 
3 153 218 223 
3 157 153 223 
3 158 157 224 
3 157 223 224 
3 160 158 225 
3 158 224 225 
3 162 160 226 
3 160 225 226 
3 164 162 227 
3 162 226 227 
3 166 164 228 
3 164 227 228 
3 168 166 229 
3 166 228 229 
3 171 168 230 
3 168 229 230 
3 172 171 231 
3 171 230 231 
3 174 172 232 
3 172 231 232 
3 176 174 233 
3 174 232 233 
3 219 156 176 
3 219 176 234 
3 234 176 233 
3 220 219 234 
3 235 220 234 
3 221 220 235 
3 181 236 182 
3 181 183 237 
3 236 181 237 
3 183 184 238 
3 237 183 238 
3 184 185 238 
3 187 239 240 
3 188 187 240 
3 190 241 187 
3 187 241 239 
3 192 242 190 
3 190 242 241 
3 194 243 192 
3 192 243 242 
3 196 244 194 
3 194 244 243 
3 198 245 196 
3 196 245 244 
3 199 246 247 
3 199 247 198 
3 198 247 245 
3 247 246 248 
3 200 249 201 
3 200 202 250 
3 249 200 250 
3 202 203 251 
3 250 202 251 
3 203 182 236 
3 203 236 251 
3 251 236 252 
3 237 253 236 
3 253 252 236 
3 238 254 237 
3 254 253 237 
3 185 204 254 
3 238 185 254 
3 188 240 206 
3 240 255 206 
3 246 210 256 
3 199 210 246 
3 257 248 246 
3 256 257 246 
3 249 258 211 
3 201 249 211 
3 250 259 249 
3 259 258 249 
3 251 260 250 
3 260 259 250 
3 252 261 251 
3 261 260 251 
3 253 262 252 
3 262 261 252 
3 254 263 253 
3 263 262 253 
3 204 212 264 
3 204 264 254 
3 254 264 263 
3 265 206 255 
3 265 264 206 
3 265 266 264 
3 264 212 206 
3 265 267 266 
3 210 215 256 
3 256 215 217 
3 256 217 257 
3 257 217 268 
3 258 269 218 
3 211 258 218 
3 259 270 258 
3 270 269 258 
3 260 271 259 
3 271 270 259 
3 261 272 260 
3 272 271 260 
3 262 273 261 
3 273 272 261 
3 263 274 262 
3 274 273 262 
3 264 275 263 
3 275 274 263 
3 266 276 264 
3 276 275 264 
3 277 266 267 
3 277 278 266 
3 278 276 266 
3 278 279 280 
3 277 279 278 
3 280 281 282 
3 279 281 280 
3 282 283 284 
3 281 283 282 
3 284 285 286 
3 283 285 284 
3 286 222 221 
3 286 285 222 
3 285 287 222 
3 268 217 222 
3 287 268 222 
3 218 269 223 
3 224 223 269 
3 270 224 269 
3 225 224 270 
3 271 225 270 
3 226 225 271 
3 272 226 271 
3 227 226 272 
3 273 227 272 
3 228 227 273 
3 274 228 273 
3 229 228 274 
3 275 229 274 
3 230 229 275 
3 276 230 275 
3 231 230 276 
3 278 231 276 
3 232 231 278 
3 280 232 278 
3 233 232 280 
3 282 233 280 
3 234 233 282 
3 284 234 282 
3 235 234 284 
3 286 235 284 
3 221 235 286 
3 239 288 240 
3 239 241 289 
3 288 239 289 
3 241 242 290 
3 289 241 290 
3 242 243 291 
3 290 242 291 
3 243 244 292 
3 291 243 292 
3 244 245 293 
3 292 244 293 
3 245 247 294 
3 293 245 294 
3 247 248 294 
3 288 295 255 
3 240 288 255 
3 289 296 288 
3 296 295 288 
3 290 297 289 
3 297 296 289 
3 291 298 290 
3 298 297 290 
3 292 299 291 
3 299 298 291 
3 293 300 292 
3 300 299 292 
3 294 301 293 
3 301 300 293 
3 248 257 301 
3 294 248 301 
3 255 295 265 
3 267 265 295 
3 267 295 302 
3 302 295 296 
3 297 303 296 
3 303 302 296 
3 298 304 297 
3 304 303 297 
3 299 305 298 
3 305 304 298 
3 300 306 299 
3 306 305 299 
3 301 307 300 
3 307 306 300 
3 257 268 307 
3 301 257 307 
3 267 302 277 
3 279 277 302 
3 303 279 302 
3 281 279 303 
3 304 281 303 
3 283 281 304 
3 305 283 304 
3 285 283 305 
3 306 285 305 
3 287 285 306 
3 307 287 306 
3 268 287 307 

CELL_DATA 616
SCALARS scalars float
LOOKUP_TABLE default
85 85 85 85 85 85 85 85 85 
85 85 85 85 85 85 85 85 85 
85 85 85 85 85 85 85 85 85 
85 85 85 85 85 85 85 85 85 
85 85 85 85 85 85 85 85 85 
85 85 85 85 85 85 85 85 85 
85 85 85 85 85 85 85 85 85 
85 85 85 85 85 85 85 85 85 
85 85 85 85 85 85 85 85 85 
85 85 85 85 85 85 85 85 85 
85 85 85 85 85 85 85 85 85 
85 85 85 85 85 85 85 85 85 
85 85 85 85 85 85 85 85 85 
85 85 85 85 85 85 85 85 85 
85 85 85 85 85 85 85 85 85 
85 85 85 85 85 85 85 85 85 
85 85 85 85 85 85 85 85 85 
85 85 85 85 85 85 85 85 85 
85 85 85 85 85 85 85 85 85 
85 85 85 85 85 85 85 85 85 
85 85 85 85 85 85 85 85 85 
85 85 85 85 85 85 85 85 85 
85 85 85 85 85 85 85 85 85 
85 85 85 85 85 85 85 85 85 
85 85 85 85 85 85 85 85 85 
85 85 85 85 85 85 85 85 85 
85 85 85 85 85 85 85 85 85 
85 85 85 85 85 85 85 85 85 
85 85 85 85 85 85 85 85 85 
85 85 85 85 85 85 85 85 85 
85 85 85 85 85 85 85 85 85 
85 85 85 85 85 85 85 85 85 
85 85 85 85 85 85 85 85 85 
85 85 85 85 85 85 85 85 85 
85 85 85 85 85 85 85 85 85 
85 85 85 85 85 85 85 85 85 
85 85 85 85 85 85 85 85 85 
85 85 85 85 85 85 85 85 85 
85 85 85 85 85 85 85 85 85 
85 85 85 85 85 85 85 85 85 
85 85 85 85 85 85 85 85 85 
85 85 85 85 85 85 85 85 85 
85 85 85 85 85 85 85 85 85 
85 85 85 85 85 85 85 85 85 
85 85 85 85 85 85 85 85 85 
85 85 85 85 85 85 85 85 85 
85 85 85 85 85 85 85 85 85 
85 85 85 85 85 85 85 85 85 
85 85 85 85 85 85 85 85 85 
85 85 85 85 85 85 85 85 85 
85 85 85 85 85 85 85 85 85 
85 85 85 85 85 85 85 85 85 
85 85 85 85 85 85 85 85 85 
85 85 85 85 85 85 85 85 85 
85 85 85 85 85 85 85 85 85 
85 85 85 85 85 85 85 85 85 
85 85 85 85 85 85 85 85 85 
85 85 85 85 85 85 85 85 85 
85 85 85 85 85 85 85 85 85 
85 85 85 85 85 85 85 85 85 
85 85 85 85 85 85 85 85 85 
85 85 85 85 85 85 85 85 85 
85 85 85 85 85 85 85 85 85 
85 85 85 85 85 85 85 85 85 
85 85 85 85 85 85 85 85 85 
85 85 85 85 85 85 85 85 85 
85 85 85 85 85 85 85 85 85 
85 85 85 85 85 85 85 85 85 
85 85 85 85 
