# vtk DataFile Version 4.2
vtk output
ASCII
DATASET POLYDATA
POINTS 1520 float
16.0141 27.926 2.37377 16.2271 27.2811 2.83786 16.6248 27.5791 2.31007 
15.3147 27.8664 2.30926 15.5634 27.6052 2.79119 15.0599 27.3469 2.52626 
16.2345 27.9068 1.56663 16.663 27.24 1.66341 15.4583 27.976 1.52094 
14.781 27.3707 1.77968 16.1965 27.5791 0.983691 15.8264 27.4249 0.273 
15.5304 27.8643 0.531544 14.7965 27.6006 0.738467 15.3923 27.7103 -0.32435 
15.6497 27.1874 -0.657023 14.8743 27.6014 -0.23349 15.1357 27.4846 -0.823349 
16.2196 26.3422 3.11369 16.7471 26.6125 2.54443 15.4831 26.8162 2.87821 
14.804 26.3922 2.38858 16.7222 26.2129 1.44773 14.2153 26.4225 1.85949 
14.0628 26.9818 1.13002 13.6684 26.3646 1.53526 16.3223 26.8658 0.918195 
16.0109 26.6674 0.103127 14.1189 27.2216 0.128152 13.3788 26.5962 1.04636 
13.377 26.8431 0.368215 12.9577 26.2599 0.673022 16.0071 26.4978 -0.728532 
14.3271 27.2186 -0.904653 13.3867 26.9294 -0.619903 12.9085 26.3665 -0.281947 
15.1657 27.0435 -1.32433 15.8411 26.5105 -1.41144 14.2872 26.9388 -1.74569 
13.4251 26.9311 -1.63206 12.9026 26.3963 -1.31414 15.1427 26.3209 -1.89803 
14.2016 26.564 -2.1817 13.7139 26.2341 -2.59463 13.5304 26.7898 -2.35333 
12.9811 26.4292 -2.2663 13.204 26.299 -2.76682 16.2335 25.6697 4.31678 
16.3866 25.2698 4.69619 16.5561 25.5116 4.28444 16.0528 25.2516 4.54389 
16.2348 25.8029 3.68155 16.7125 25.5829 3.47952 15.7552 25.3173 3.84372 
16.9266 25.4665 2.41043 15.3181 25.5641 3.0612 14.6068 25.3668 2.54793 
16.9586 25.4575 1.34154 14.2825 25.6907 2.21624 13.1902 26.0919 1.35221 
13.5951 25.6508 1.94141 12.9556 25.3642 1.53235 16.3796 26.1758 0.573072 
16.7992 25.5591 0.376473 12.7947 25.4762 0.48567 16.3336 25.9858 -0.291297 
16.8218 25.2497 -0.829996 12.676 25.4405 -0.498599 16.3536 25.8913 -1.2291 
16.5929 25.2096 -1.58839 12.6254 25.669 -1.61469 16.0665 25.6632 -1.84863 
15.3332 25.3664 -2.18021 14.4505 25.8646 -2.28124 13.953 25.4788 -2.65068 
12.778 25.6994 -2.48904 13.2079 25.3866 -2.89704 16.3844 24.6392 4.85689 
16.816 24.7454 4.31299 15.7933 24.6479 4.51819 17.0151 24.7172 3.31044 
15.364 24.6427 3.87155 15.3157 24.9641 3.43743 14.9372 24.5376 3.47771 
17.194 24.7566 2.5599 17.4366 24.3525 2.88802 17.7012 24.4394 2.1294 
13.95 25.007 2.47732 14.2869 24.5488 2.94797 13.296 24.9377 2.31365 
13.5049 24.4332 2.71751 12.9919 24.3764 2.35478 17.2713 24.9415 1.73642 
17.8227 24.4802 1.1785 12.6763 24.4003 1.55901 17.2945 24.9659 0.726273 
17.8105 24.4534 0.179044 12.6078 24.6041 0.55086 17.2896 24.8661 -0.239503 
17.6352 24.3754 -0.64255 12.3329 24.6307 -0.0148097 12.0464 24.997 -0.824981 
11.2548 24.7598 -0.790597 11.6377 24.4855 -0.0793303 10.951 24.2618 -0.315617 
17.2318 24.5874 -0.992982 16.8303 24.5829 -1.59901 12.142 25.179 -1.89959 
11.3678 24.8933 -1.59834 10.8372 24.4138 -1.3153 16.1462 24.783 -2.12183 
15.3896 24.7734 -2.46036 15.7899 24.4429 -2.53035 14.6408 25.0619 -2.54527 
12.3798 25.1352 -2.62722 11.5958 24.8354 -2.48824 10.9321 24.409 -2.27609 
15.223 24.3353 -2.94868 13.9884 24.5142 -3.06371 13.0869 24.3634 -3.09297 
12.1617 24.5264 -3.00783 11.2416 24.294 -2.8964 17.2474 23.8022 6.18682 
17.4519 23.3291 6.67271 17.8835 23.5641 6.34723 16.9016 23.1731 6.52519 
18.0252 23.8661 5.5764 18.3697 23.2331 5.9452 18.5944 23.5173 5.23565 
17.3364 24.024 5.57112 16.2864 23.4106 6.1019 16.2521 24.0281 5.39266 
15.0713 23.821 5.21244 15.5323 23.5189 5.76926 14.8454 23.2034 5.4972 
18.2258 23.8715 4.50574 18.7034 23.385 4.45147 17.2842 24.128 4.85294 
15.1544 24.1655 4.39483 14.4301 23.5151 4.97253 14.4041 23.7956 4.4156 
14.0094 23.279 4.48398 18.4641 23.8532 3.48357 18.887 23.3449 3.53998 
17.5738 24.1493 3.67937 14.2821 23.9642 3.60887 13.7135 23.3059 3.80844 
18.9845 23.8111 2.53689 19.3101 23.1412 2.89298 19.5688 23.4571 2.21669 
18.1232 24.106 2.6616 13.2961 23.5487 3.05978 12.6507 23.5316 2.44076 
19.219 23.8604 1.50681 19.7012 23.3521 1.44423 18.4567 24.1342 1.71667 
12.1392 23.4723 2.03143 12.0507 23.9671 1.28889 11.2557 23.7313 1.27785 
11.511 23.4655 1.78908 10.9901 23.2469 1.52544 19.2034 23.8378 0.500255 
19.8235 23.3786 0.352812 18.5028 24.127 0.711902 12.104 24.2276 0.517189 
11.4046 24.0556 0.584603 10.8256 23.4872 0.622049 19.1464 23.8681 -0.577984 
19.8183 23.5485 -0.81908 18.3048 24.1012 -0.459117 10.6986 23.5414 -0.552087 
19.1423 23.8369 -1.5238 19.7157 23.5632 -1.49995 18.2921 24.0103 -1.56412 
17.4298 24.152 -1.51419 10.7091 23.5602 -1.62585 19.4369 23.4491 -2.09053 
18.8946 23.3847 -2.65169 18.5023 23.8171 -2.33104 17.5756 23.8549 -2.43603 
16.4858 24.0848 -2.47202 10.8469 23.5333 -2.52742 18.2072 23.3927 -2.88439 
17.1958 23.3991 -3.09762 16.0776 23.7072 -3.2321 15.3134 23.8426 -3.53754 
15.8618 23.3672 -3.7046 14.5607 23.9173 -3.57916 13.9206 23.605 -3.51364 
13.2752 23.3985 -3.20164 12.2678 23.5239 -3.11669 11.3645 23.5317 -3.01735 
15.1392 23.2532 -3.93716 14.2885 23.2741 -3.85945 17.1423 22.5082 6.79162 
17.9245 22.658 6.64994 16.6233 22.3998 6.60813 18.4327 22.4364 6.19266 
18.6894 22.6179 5.47804 16.304 22.754 6.30964 15.5191 22.7475 6.02862 
14.7594 22.1999 5.69046 18.8872 22.517 4.38224 14.1538 22.6255 4.98918 
13.6187 22.567 4.38599 19.0551 22.7145 3.49018 13.3082 22.6216 3.88262 
13.2641 22.9656 3.48518 12.868 22.2724 3.56696 19.4572 22.474 2.97734 
19.8225 22.6981 2.23923 12.1182 22.8752 2.43935 12.4796 22.6602 2.85003 
11.8389 22.1278 2.49787 20.0572 22.7503 1.27363 11.432 22.7415 2.04169 
10.8568 22.4904 1.39469 21.0057 22.811 0.330698 21.3358 22.336 0.963361 
21.6359 22.406 0.389754 20.3346 22.9206 0.543985 20.6802 22.4828 1.03719 
10.7125 22.4792 0.476099 21.2436 22.9406 -0.557713 21.7628 22.4239 -0.544638 
20.4648 23.1716 -0.28995 10.7188 22.5001 -0.575115 21.3872 22.8054 -1.33958 
21.6857 22.1863 -1.4093 20.4522 23.1323 -1.42589 10.7321 22.5025 -1.62251 
21.0432 22.4243 -1.88903 20.1397 22.6688 -2.16263 19.4541 22.949 -2.51257 
19.7437 22.1555 -2.54774 10.8693 22.4969 -2.49777 18.9522 22.5848 -2.88049 
18.0923 22.7126 -3.21354 17.4074 22.8253 -3.52245 17.7551 22.1479 -3.58011 
16.6477 23.0879 -3.60835 13.8749 22.8287 -3.57083 13.3458 22.2049 -3.168 
12.2731 22.4829 -3.08518 11.381 22.5058 -2.97332 17.1223 22.493 -3.82838 
16.3335 22.5267 -3.89268 15.4845 22.5029 -3.92303 14.6224 22.6374 -3.87962 
18.2164 21.7415 8.3163 18.3931 21.3465 8.77067 18.5422 21.5504 8.31256 
18.073 21.3214 8.56682 18.1968 21.8725 7.47386 18.6641 21.3712 7.532 
17.8225 21.3241 7.73815 18.4076 21.9997 6.78264 18.6734 21.5114 6.43598 
17.3331 21.5897 7.03591 15.9509 22.058 6.50941 16.3403 21.5136 6.86683 
15.2795 21.9651 6.32724 15.5068 21.4509 6.73314 14.9703 21.3721 6.36414 
18.8289 21.5038 5.39998 14.5604 21.2604 5.76245 19.2878 21.82 4.41112 
19.4045 21.1312 4.90528 19.8304 21.5551 4.30083 14.12 21.5671 5.20792 
13.1876 22.034 4.28525 13.5184 21.7087 4.77146 12.9773 21.3667 4.36244 
20.1527 21.8074 3.50845 20.478 21.4774 3.89498 20.9338 21.5582 3.3132 
19.3915 22.1741 3.56048 12.6314 21.1867 3.65745 20.9756 21.7801 2.52364 
21.4505 21.3311 3.04434 21.6567 21.343 2.37904 20.0741 22.0881 2.68566 
12.2888 21.7138 2.99047 11.7656 21.159 2.50775 21.2147 21.9671 1.62222 
21.7396 21.5714 1.41335 20.4656 22.1888 1.80201 11.2439 21.6968 2.01902 
10.8563 21.4361 1.38391 21.86 21.5403 0.475064 10.7395 21.4069 0.523401 
21.861 21.5076 -0.522388 10.7333 21.4354 -0.497284 21.707 21.2178 -1.39875 
10.7213 21.4407 -1.54781 21.358 21.6804 -1.91105 20.5669 21.6808 -2.25318 
19.9903 21.3388 -2.60569 10.8394 21.4429 -2.43802 19.2587 21.3681 -2.90577 
18.4279 21.7727 -3.18968 17.8348 21.1854 -3.56926 16.0424 21.9295 -3.57259 
16.709 21.6197 -3.64565 16.2649 21.172 -3.23024 15.371 21.3676 -3.14295 
15.0942 22.0151 -3.55339 14.2152 21.4804 -3.13003 14.2459 22.1733 -3.48008 
13.1172 21.3042 -3.04072 12.2327 21.4629 -3.06158 11.3414 21.4711 -2.9381 
17.2254 21.6031 -3.82818 18.4901 20.4889 8.87466 18.8261 20.7416 8.36432 
17.9647 20.541 8.41779 18.9374 20.5699 7.2385 17.601 20.3191 7.74243 
18.8774 20.5715 6.18485 17.3063 20.7492 7.224 16.4138 20.498 7.08678 
15.4463 20.7291 6.85244 14.7764 20.3832 6.3859 18.9622 20.6652 5.45442 
14.3505 20.55 5.82869 14.1148 20.8927 5.42643 13.8502 20.1618 5.47831 
21.0642 20.7689 4.49564 21.3141 20.2397 4.7367 21.5828 20.5041 4.26417 
20.3495 21.145 4.43045 20.4405 20.416 4.9511 19.4842 20.4438 5.19646 
13.4595 20.7722 4.99357 12.9017 20.464 4.37349 21.1879 21.0938 3.83248 
21.8706 20.558 3.36256 12.6488 20.1987 3.62369 21.9967 20.6403 2.22272 
12.2784 20.7168 3.02042 11.7761 20.1524 2.50139 21.9721 20.6184 1.24317 
11.2361 20.6456 2.02663 10.8605 20.3979 1.39032 21.9226 20.4325 0.202909 
10.7355 20.3929 0.513756 21.8171 20.5956 -0.699981 10.7248 20.4224 -0.515414 
21.6733 20.1504 -1.60978 10.7064 20.4205 -1.57672 21.1745 20.7991 -2.10923 
20.4954 20.8885 -2.48191 20.7915 20.4592 -2.53056 10.82 20.4355 -2.47192 
20.2033 20.4508 -2.94699 19.1296 20.4999 -3.19258 18.4357 20.8113 -3.25592 
17.9675 20.3733 -3.6433 16.89 20.7817 -3.5448 16.2506 20.2219 -3.11568 
15.3926 20.4952 -2.95733 14.3622 20.5158 -2.98223 13.287 20.489 -3.0345 
12.2472 20.4658 -3.07026 11.343 20.4528 -2.96224 17.4503 20.3494 -3.82137 
19.1495 19.9784 8.59762 19.0671 19.3272 8.91061 19.5894 19.4577 8.34411 
18.3389 19.7013 8.87899 17.8303 19.3789 8.3944 19.4325 19.9463 7.65442 
19.9847 19.4056 7.5595 17.1748 19.4268 7.9006 16.9681 20.0413 7.45741 
16.2138 19.7789 7.40052 16.5345 19.4599 7.71592 15.8546 19.134 7.49944 
19.9535 19.7605 6.51974 20.3419 19.4567 6.8985 20.7 19.4187 6.23687 
19.2803 20.0589 6.63348 15.4345 19.7337 7.01214 14.7553 19.2314 6.52325 
20.1352 19.9589 5.54022 20.826 19.6585 5.43186 19.3524 20.1299 5.77989 
14.2793 19.7215 5.98736 13.7564 19.1707 5.34902 21.2763 19.5631 5.10613 
21.8303 19.6216 4.43692 13.2868 19.8088 4.91763 12.9428 19.4258 4.15733 
22.2469 19.7987 3.60632 22.3153 19.123 3.9119 22.5571 19.4371 3.25871 
12.6679 19.2755 3.29444 22.3345 19.9791 2.78683 22.69 19.3675 2.45728 
12.2953 19.7696 2.92045 11.7975 19.4253 2.34385 22.3311 19.9595 1.78821 
22.8097 19.3475 1.35253 11.2593 19.7068 1.94135 10.9612 19.5445 1.18174 
[...]
CELL_DATA 3036
SCALARS scalars float
LOOKUP_TABLE default
52 52 52 52 52 52 52 52 52 
52 52 52 52 52 52 52 52 52 
52 52 52 52 52 52 52 52 52 
52 52 52 52 52 52 52 52 52 
52 52 52 52 52 52 52 52 52 
52 52 52 52 52 52 52 52 52 
52 52 52 52 52 52 52 52 52 
52 52 52 52 52 52 52 52 52 
52 52 52 52 52 52 52 52 52 
52 52 52 52 52 52 52 52 52 
52 52 52 52 52 52 52 52 52 
52 52 52 52 52 52 52 52 52 
52 52 52 52 52 52 52 52 52 
52 52 52 52 52 52 52 52 52 
52 52 52 52 52 52 52 52 52 
52 52 52 52 52 52 52 52 52 
52 52 52 52 52 52 52 52 52 
52 52 52 52 52 52 52 52 52 
52 52 52 52 52 52 52 52 52 
52 52 52 52 52 52 52 52 52 
52 52 52 52 52 52 52 52 52 
52 52 52 52 52 52 52 52 52 
52 52 52 52 52 52 52 52 52 
52 52 52 52 52 52 52 52 52 
52 52 52 52 52 52 52 52 52 
52 52 52 52 52 52 52 52 52 
52 52 52 52 52 52 52 52 52 
52 52 52 52 52 52 52 52 52 
52 52 52 52 52 52 52 52 52 
52 52 52 52 52 52 52 52 52 
52 52 52 52 52 52 52 52 52 
52 52 52 52 52 52 52 52 52 
52 52 52 52 52 52 52 52 52 
52 52 52 52 52 52 52 52 52 
52 52 52 52 52 52 52 52 52 
52 52 52 52 52 52 52 52 52 
52 52 52 52 52 52 52 52 52 
52 52 52 52 52 52 52 52 52 
52 52 52 52 52 52 52 52 52 
52 52 52 52 52 52 52 52 52 
52 52 52 52 52 52 52 52 52 
52 52 52 52 52 52 52 52 52 
52 52 52 52 52 52 52 52 52 
52 52 52 52 52 52 52 52 52 
52 52 52 52 52 52 52 52 52 
52 52 52 52 52 52 52 52 52 
52 52 52 52 52 52 52 52 52 
52 52 52 52 52 52 52 52 52 
52 52 52 52 52 52 52 52 52 
52 52 52 52 52 52 52 52 52 
52 52 52 52 52 52 52 52 52 
52 52 52 52 52 52 52 52 52 
52 52 52 52 52 52 52 52 52 
52 52 52 52 52 52 52 52 52 
52 52 52 52 52 52 52 52 52 
52 52 52 52 52 52 52 52 52 
52 52 52 52 52 52 52 52 52 
52 52 52 52 52 52 52 52 52 
52 52 52 52 52 52 52 52 52 
52 52 52 52 52 52 52 52 52 
52 52 52 52 52 52 52 52 52 
52 52 52 52 52 52 52 52 52 
52 52 52 52 52 52 52 52 52 
52 52 52 52 52 52 52 52 52 
52 52 52 52 52 52 52 52 52 
52 52 52 52 52 52 52 52 52 
52 52 52 52 52 52 52 52 52 
52 52 52 52 52 52 52 52 52 
52 52 52 52 52 52 52 52 52 
52 52 52 52 52 52 52 52 52 
52 52 52 52 52 52 52 52 52 
52 52 52 52 52 52 52 52 52 
52 52 52 52 52 52 52 52 52 
52 52 52 52 52 52 52 52 52 
52 52 52 52 52 52 52 52 52 
52 52 52 52 52 52 52 52 52 
52 52 52 52 52 52 52 52 52 
52 52 52 52 52 52 52 52 52 
52 52 52 52 52 52 52 52 52 
52 52 52 52 52 52 52 52 52 
52 52 52 52 52 52 52 52 52 
52 52 52 52 52 52 52 52 52 
52 52 52 52 52 52 52 52 52 
52 52 52 52 52 52 52 52 52 
52 52 52 52 52 52 52 52 52 
52 52 52 52 52 52 52 52 52 
52 52 52 52 52 52 52 52 52 
52 52 52 52 52 52 52 52 52 
52 52 52 52 52 52 52 52 52 
52 52 52 52 52 52 52 52 52 
52 52 52 52 52 52 52 52 52 
52 52 52 52 52 52 52 52 52 
52 52 52 52 52 52 52 52 52 
52 52 52 52 52 52 52 52 52 
52 52 52 52 52 52 52 52 52 
52 52 52 52 52 52 52 52 52 
52 52 52 52 52 52 52 52 52 
52 52 52 52 52 52 52 52 52 
52 52 52 52 52 52 52 52 52 
52 52 52 52 52 52 52 52 52 
52 52 52 52 52 52 52 52 52 
52 52 52 52 52 52 52 52 52 
52 52 52 52 52 52 52 52 52 
52 52 52 52 52 52 52 52 52 
52 52 52 52 52 52 52 52 52 
52 52 52 52 52 52 52 52 52 
52 52 52 52 52 52 52 52 52 
52 52 52 52 52 52 52 52 52 
52 52 52 52 52 52 52 52 52 
52 52 52 52 52 52 52 52 52 
52 52 52 52 52 52 52 52 52 
52 52 52 52 52 52 52 52 52 
52 52 52 52 52 52 52 52 52 
52 52 52 52 52 52 52 52 52 
52 52 52 52 52 52 52 52 52 
52 52 52 52 52 52 52 52 52 
52 52 52 52 52 52 52 52 52 
52 52 52 52 52 52 52 52 52 
52 52 52 52 52 52 52 52 52 
52 52 52 52 52 52 52 52 52 
52 52 52 52 52 52 52 52 52 
52 52 52 52 52 52 52 52 52 
52 52 52 52 52 52 52 52 52 
52 52 52 52 52 52 52 52 52 
52 52 52 52 52 52 52 52 52 
52 52 52 52 52 52 52 52 52 
52 52 52 52 52 52 52 52 52 
52 52 52 52 52 52 52 52 52 
52 52 52 52 52 52 52 52 52 
52 52 52 52 52 52 52 52 52 
52 52 52 52 52 52 52 52 52 
52 52 52 52 52 52 52 52 52 
52 52 52 52 52 52 52 52 52 
52 52 52 52 52 52 52 52 52 
52 52 52 52 52 52 52 52 52 
52 52 52 52 52 52 52 52 52 
52 52 52 52 52 52 52 52 52 
52 52 52 52 52 52 52 52 52 
52 52 52 52 52 52 52 52 52 
52 52 52 52 52 52 52 52 52 
52 52 52 52 52 52 52 52 52 
52 52 52 52 52 52 52 52 52 
52 52 52 52 52 52 52 52 52 
52 52 52 52 52 52 52 52 52 
52 52 52 52 52 52 52 52 52 
52 52 52 52 52 52 52 52 52 
52 52 52 52 52 52 52 52 52 
52 52 52 52 52 52 52 52 52 
52 52 52 52 52 52 52 52 52 
52 52 52 52 52 52 52 52 52 
52 52 52 52 52 52 52 52 52 
52 52 52 52 52 52 52 52 52 
52 52 52 52 52 52 52 52 52 
52 52 52 52 52 52 52 52 52 
52 52 52 52 52 52 52 52 52 
52 52 52 52 52 52 52 52 52 
52 52 52 52 52 52 52 52 52 
52 52 52 52 52 52 52 52 52 
52 52 52 52 52 52 52 52 52 
52 52 52 52 52 52 52 52 52 
52 52 52 52 52 52 52 52 52 
52 52 52 52 52 52 52 52 52 
52 52 52 52 52 52 52 52 52 
52 52 52 52 52 52 52 52 52 
52 52 52 52 52 52 52 52 52 
52 52 52 52 52 52 52 52 52 
52 52 52 52 52 52 52 52 52 
52 52 52 52 52 52 52 52 52 
52 52 52 52 52 52 52 52 52 
52 52 52 52 52 52 52 52 52 
52 52 52 52 52 52 52 52 52 
52 52 52 52 52 52 52 52 52 
52 52 52 52 52 52 52 52 52 
52 52 52 52 52 52 52 52 52 
52 52 52 52 52 52 52 52 52 
52 52 52 52 52 52 52 52 52 
52 52 52 52 52 52 52 52 52 
52 52 52 52 52 52 52 52 52 
52 52 52 52 52 52 52 52 52 
52 52 52 52 52 52 52 52 52 
52 52 52 52 52 52 52 52 52 
52 52 52 52 52 52 52 52 52 
52 52 52 52 52 52 52 52 52 
52 52 52 52 52 52 52 52 52 
52 52 52 52 52 52 52 52 52 
52 52 52 52 52 52 52 52 52 
52 52 52 52 52 52 52 52 52 
52 52 52 52 52 52 52 52 52 
52 52 52 52 52 52 52 52 52 
52 52 52 52 52 52 52 52 52 
52 52 52 52 52 52 52 52 52 
52 52 52 52 52 52 52 52 52 
52 52 52 52 52 52 52 52 52 
52 52 52 52 52 52 52 52 52 
52 52 52 52 52 52 52 52 52 
52 52 52 52 52 52 52 52 52 
52 52 52 52 52 52 52 52 52 
52 52 52 52 52 52 52 52 52 
52 52 52 52 52 52 52 52 52 
52 52 52 52 52 52 52 52 52 
52 52 52 52 52 52 52 52 52 
52 52 52 52 52 52 52 52 52 
52 52 52 52 52 52 52 52 52 
52 52 52 52 52 52 52 52 52 
52 52 52 52 52 52 52 52 52 
52 52 52 52 52 52 52 52 52 
52 52 52 52 52 52 52 52 52 
52 52 52 52 52 52 52 52 52 
52 52 52 52 52 52 52 52 52 
52 52 52 52 52 52 52 52 52 
52 52 52 52 52 52 52 52 52 
52 52 52 52 52 52 52 52 52 
52 52 52 52 52 52 52 52 52 
52 52 52 52 52 52 52 52 52 
52 52 52 52 52 52 52 52 52 
52 52 52 52 52 52 52 52 52 
52 52 52 52 52 52 52 52 52 
52 52 52 52 52 52 52 52 52 
52 52 52 52 52 52 52 52 52 
52 52 52 52 52 52 52 52 52 
52 52 52 52 52 52 52 52 52 
52 52 52 52 52 52 52 52 52 
52 52 52 52 52 52 52 52 52 
52 52 52 52 52 52 52 52 52 
52 52 52 52 52 52 52 52 52 
52 52 52 52 52 52 52 52 52 
52 52 52 52 52 52 52 52 52 
52 52 52 52 52 52 52 52 52 
52 52 52 52 52 52 52 52 52 
52 52 52 52 52 52 52 52 52 
52 52 52 52 52 52 52 52 52 
52 52 52 52 52 52 52 52 52 
52 52 52 52 52 52 52 52 52 
52 52 52 52 52 52 52 52 52 
52 52 52 52 52 52 52 52 52 
52 52 52 52 52 52 52 52 52 
52 52 52 52 52 52 52 52 52 
52 52 52 52 52 52 52 52 52 
52 52 52 52 52 52 52 52 52 
52 52 52 52 52 52 52 52 52 
52 52 52 52 52 52 52 52 52 
52 52 52 52 52 52 52 52 52 
52 52 52 52 52 52 52 52 52 
52 52 52 52 52 52 52 52 52 
52 52 52 52 52 52 52 52 52 
52 52 52 52 52 52 52 52 52 
52 52 52 52 52 52 52 52 52 
52 52 52 52 52 52 52 52 52 
52 52 52 52 52 52 52 52 52 
52 52 52 52 52 52 52 52 52 
52 52 52 52 52 52 52 52 52 
52 52 52 52 52 52 52 52 52 
52 52 52 52 52 52 52 52 52 
52 52 52 52 52 52 52 52 52 
52 52 52 52 52 52 52 52 52 
52 52 52 52 52 52 52 52 52 
52 52 52 52 52 52 52 52 52 
52 52 52 52 52 52 52 52 52 
52 52 52 52 52 52 52 52 52 
52 52 52 52 52 52 52 52 52 
52 52 52 52 52 52 52 52 52 
52 52 52 52 52 52 52 52 52 
52 52 52 52 52 52 52 52 52 
52 52 52 52 52 52 52 52 52 
52 52 52 52 52 52 52 52 52 
52 52 52 52 52 52 52 52 52 
52 52 52 52 52 52 52 52 52 
52 52 52 52 52 52 52 52 52 
52 52 52 52 52 52 52 52 52 
52 52 52 52 52 52 52 52 52 
52 52 52 52 52 52 52 52 52 
52 52 52 52 52 52 52 52 52 
52 52 52 52 52 52 52 52 52 
52 52 52 52 52 52 52 52 52 
52 52 52 52 52 52 52 52 52 
52 52 52 52 52 52 52 52 52 
52 52 52 52 52 52 52 52 52 
52 52 52 52 52 52 52 52 52 
52 52 52 52 52 52 52 52 52 
52 52 52 52 52 52 52 52 52 
52 52 52 52 52 52 52 52 52 
52 52 52 52 52 52 52 52 52 
52 52 52 52 52 52 52 52 52 
52 52 52 52 52 52 52 52 52 
52 52 52 52 52 52 52 52 52 
52 52 52 52 52 52 52 52 52 
52 52 52 52 52 52 52 52 52 
52 52 52 52 52 52 52 52 52 
52 52 52 52 52 52 52 52 52 
52 52 52 52 52 52 52 52 52 
52 52 52 52 52 52 52 52 52 
52 52 52 52 52 52 52 52 52 
52 52 52 52 52 52 52 52 52 
52 52 52 52 52 52 52 52 52 
52 52 52 52 52 52 52 52 52 
52 52 52 52 52 52 52 52 52 
52 52 52 52 52 52 52 52 52 
52 52 52 52 52 52 52 52 52 
52 52 52 52 52 52 52 52 52 
52 52 52 52 52 52 52 52 52 
52 52 52 52 52 52 52 52 52 
52 52 52 52 52 52 52 52 52 
52 52 52 52 52 52 52 52 52 
52 52 52 52 52 52 52 52 52 
52 52 52 52 52 52 52 52 52 
52 52 52 52 52 52 52 52 52 
52 52 52 52 52 52 52 52 52 
52 52 52 52 52 52 52 52 52 
52 52 52 52 52 52 52 52 52 
52 52 52 52 52 52 52 52 52 
52 52 52 52 52 52 52 52 52 
52 52 52 52 52 52 52 52 52 
52 52 52 52 52 52 52 52 52 
52 52 52 52 52 52 52 52 52 
52 52 52 52 52 52 52 52 52 
52 52 52 52 52 52 52 52 52 
52 52 52 52 52 52 52 52 52 
52 52 52 52 52 52 52 52 52 
52 52 52 52 52 52 52 52 52 
52 52 52 52 52 52 52 52 52 
52 52 52 52 52 52 52 52 52 
52 52 52 52 52 52 52 52 52 
52 52 52 52 52 52 52 52 52 
52 52 52 52 52 52 52 52 52 
52 52 52 52 52 52 52 52 52 
52 52 52 52 52 52 52 52 52 
52 52 52 52 52 52 52 52 52 
52 52 52 52 52 52 52 52 52 
52 52 52 52 52 52 52 52 52 
52 52 52 52 52 52 52 52 52 
52 52 52 52 52 52 52 52 52 
52 52 52 52 52 52 52 52 52 
52 52 52 52 52 52 52 52 52 
52 52 52 52 52 52 52 52 52 
52 52 52 52 52 52 52 52 52 
52 52 52 52 52 52 52 52 52 
52 52 52 52 52 52 52 52 52 
52 52 52 
