# vtk DataFile Version 4.2
vtk output
ASCII
DATASET POLYDATA
POINTS 1520 float
9.61541 -23.1578 8.37357 9.74319 -22.8794 7.98657 9.98179 -23.1961 8.16529 
9.19575 -23.1964 8.33788 9.34504 -22.9073 8.18111 9.04284 -23.0662 8.02625 
9.74754 -23.6421 8.36199 10.0046 -23.5841 7.96184 9.28182 -23.6694 8.40361 
8.8754 -23.5141 8.04054 9.72461 -23.9919 8.1654 9.50237 -24.4182 8.07291 
9.32489 -24.2631 8.33661 8.88456 -24.1388 8.17852 9.2419 -24.7766 8.24422 
9.3962 -24.9762 7.93044 8.93107 -24.722 8.17895 9.08781 -25.0759 8.10882 
9.73861 -22.7139 7.42325 10.0551 -23.0555 7.58531 9.29669 -22.8551 7.70774 
8.88911 -23.1487 7.45347 10.0399 -23.7135 7.34556 8.53581 -23.4661 7.47176 
8.4443 -23.9037 7.8073 8.20762 -23.6605 7.43707 9.79996 -24.0312 7.73739 
9.61292 -24.5202 7.61841 8.47785 -24.5049 7.9512 8.0338 -23.9538 7.57611 
8.03265 -24.3607 7.72419 7.78104 -24.1778 7.37439 9.61052 -25.0192 7.51665 
8.60257 -25.1246 7.94939 8.03838 -24.9536 7.776 7.75139 -24.7507 7.43835 
9.10569 -25.3765 7.84415 9.51083 -25.4289 7.52425 8.57847 -25.6292 7.7815 
8.06126 -25.5609 7.77702 7.7477 -25.3701 7.45619 9.09168 -25.7207 7.41064 
8.52697 -25.8908 7.55663 8.23428 -26.1385 7.35875 8.12426 -25.9937 7.6922 
7.79466 -25.9414 7.47596 7.92829 -26.2417 7.39777 9.74702 -21.992 7.01971 
9.83888 -21.7644 6.77976 9.94051 -22.0115 6.92484 9.63859 -21.8557 6.76887 
9.74772 -22.3732 7.09968 10.0343 -22.4945 6.96758 9.45987 -22.2758 6.80837 
10.1626 -23.1359 6.89771 9.19754 -22.7452 6.95651 8.77068 -23.0531 6.83822 
10.1816 -23.7773 6.89228 8.57608 -23.2521 7.03266 7.92063 -23.7703 7.27355 
8.1636 -23.4168 7.00881 7.77979 -23.6622 6.83694 9.83413 -24.2383 7.32337 
10.0858 -24.3563 6.95326 7.68312 -24.2901 6.90418 9.8064 -24.7569 7.20939 
10.0991 -25.0802 6.76763 7.61169 -24.8807 6.88277 9.81823 -25.3196 7.15267 
9.96166 -25.5352 6.74364 7.58123 -25.5503 7.01989 9.64584 -25.6913 7.01587 
9.20576 -25.8901 6.83788 8.67621 -25.9506 7.13693 8.37761 -26.1721 6.90557 
7.67262 -26.075 7.03809 7.93046 -26.3198 6.85035 9.83747 -21.668 6.40142 
10.0964 -21.9944 6.46505 9.48274 -21.8711 6.40672 10.2157 -22.5959 6.44811 
9.22506 -22.259 6.40365 9.19606 -22.5195 6.59653 8.96894 -22.4953 6.34067 
10.3229 -23.0463 6.47169 10.4684 -22.8495 6.22919 10.6271 -23.3047 6.28132 
8.37654 -23.0953 6.62245 8.57867 -22.813 6.34748 7.9841 -23.1934 6.58101 
8.1094 -22.9512 6.27826 7.80154 -23.1687 6.24426 10.3692 -23.5404 6.58265 
10.6998 -23.8752 6.30578 7.61208 -23.6461 6.25865 10.3829 -24.1465 6.59731 
10.6924 -24.4749 6.28973 7.57081 -24.251 6.38096 10.3798 -24.726 6.5374 
10.587 -24.9678 6.24293 7.40581 -24.5904 6.39697 7.23382 -25.0764 6.61678 
6.75882 -25.0557 6.47459 6.98867 -24.629 6.30991 6.57654 -24.7706 6.17584 
10.345 -25.178 6.3702 10.104 -25.5416 6.36755 7.29104 -25.7212 6.72597 
6.82654 -25.5403 6.55463 6.50814 -25.3704 6.26702 9.69345 -25.8552 6.48775 
9.23947 -26.0582 6.48211 9.47957 -26.1002 6.28373 8.79022 -26.109 6.65532 
7.43359 -26.1578 6.69966 6.96319 -26.0743 6.51989 6.56492 -25.9469 6.26412 
9.13938 -26.3511 6.21924 8.39859 -26.42 6.32679 7.85767 -26.4374 6.23645 
7.30261 -26.3862 6.33442 6.75052 -26.3191 6.19508 10.3553 -20.8702 5.89906 
10.478 -20.5787 5.6152 10.737 -20.774 5.75611 10.1478 -20.6671 5.52167 
10.822 -21.2365 5.93731 11.0286 -21.0153 5.55745 11.1634 -21.4411 5.72791 
10.4087 -21.2396 6.03212 9.7787 -20.921 5.66424 9.75806 -21.3465 6.03479 
9.04951 -21.4544 5.91068 9.3262 -21.1204 5.72936 8.91392 -21.2836 5.54014 
10.9421 -21.879 5.94051 11.2286 -21.9116 5.64851 10.3773 -21.6705 6.09457 
9.09932 -21.945 6.11736 8.66471 -21.5983 5.72726 8.64907 -21.9324 5.89558 
8.41222 -21.8914 5.58566 11.0849 -22.4923 5.9295 11.3386 -22.4585 5.62445 
10.5509 -22.3747 6.10725 8.57581 -22.4165 5.99671 8.23458 -22.2966 5.60187 
11.397 -23.0604 5.90414 11.5924 -22.8468 5.50212 11.7475 -23.2526 5.69165 
10.8803 -22.9854 6.08118 7.98403 -22.7458 5.74758 7.59671 -23.1171 5.7374 
11.5376 -23.6785 5.93367 11.8268 -23.7161 5.62862 11.0803 -23.5524 6.09808 
7.28974 -23.3626 5.70196 7.23661 -23.8081 5.99881 6.75958 -23.8146 5.85747 
6.91279 -23.5079 5.69796 6.60013 -23.666 5.56687 11.5281 -24.2824 5.92013 
11.9 -24.371 5.6445 11.1078 -24.1553 6.09374 7.26849 -24.2711 6.15511 
6.8488 -24.2306 6.05205 6.50133 -24.208 5.71105 11.4937 -24.9293 5.93832 
11.8968 -25.0741 5.74646 10.9888 -24.8579 6.07833 6.42496 -24.9125 5.7436 
11.4911 -25.4968 5.91958 11.8351 -25.4826 5.75529 10.981 -25.5209 6.02374 
10.4637 -25.4908 6.10893 6.43109 -25.5567 5.7549 11.6677 -25.8369 5.68688 
11.3422 -26.1735 5.64829 11.107 -25.9811 5.90784 10.5509 -26.0439 5.93064 
9.89707 -26.0653 6.06875 6.51361 -26.0977 5.73871 10.9297 -26.313 5.65319 
10.3229 -26.4408 5.65723 9.65195 -26.5213 5.84223 9.1934 -26.7045 5.92362 
9.52239 -26.8048 5.63829 8.74183 -26.7293 5.96856 8.35773 -26.6899 5.78129 
7.97049 -26.5026 5.65747 7.36606 -26.4515 5.73289 6.82413 -26.3917 5.73769 
9.08875 -26.9442 5.56999 8.57835 -26.8975 5.58267 10.2922 -20.5073 5.12271 
10.7615 -20.5924 5.21245 9.98073 -20.6173 5.05772 11.0663 -20.8668 5.0794 
11.2202 -21.2957 5.18828 9.78918 -20.7963 5.27032 9.31821 -20.9648 5.26653 
8.86223 -21.1676 4.9381 11.3387 -21.9532 5.1277 8.4988 -21.5883 5.19354 
8.17763 -21.9501 5.15855 11.4394 -22.4884 5.24615 7.9913 -22.2521 5.19135 
7.96483 -22.4905 5.39774 7.72705 -22.4414 4.98188 11.6805 -22.7962 5.10182 
11.8996 -23.2391 5.23623 7.27708 -23.1178 5.34365 7.49396 -22.8715 5.21459 
7.1094 -23.0827 4.89528 12.0403 -23.8185 5.2675 6.8653 -23.3563 5.26359 
6.52003 -23.7444 5.11298 12.6093 -24.3844 5.30374 12.8073 -24.0049 5.01869 
12.9873 -24.3491 5.06067 12.2066 -24.2563 5.36961 12.414 -23.9605 5.10692 
6.4333 -24.2956 5.10633 12.7519 -24.9175 5.38146 13.0633 -24.9097 5.0714 
12.2847 -24.7567 5.5202 6.43695 -24.9263 5.11881 12.8379 -25.3867 5.30033 
13.0169 -25.4285 4.92885 12.277 -25.4383 5.49665 6.44472 -25.5547 5.12027 
12.6314 -25.7163 5.07176 12.0892 -25.8803 5.21857 11.6779 -26.0901 5.3868 
11.8515 -26.1113 4.91067 6.52692 -26.0799 5.11687 11.3766 -26.3108 5.16835 
10.8607 -26.5105 5.24516 10.4497 -26.6958 5.31293 10.6582 -26.7304 4.90643 
9.99388 -26.7472 5.47061 8.33019 -26.7242 5.31552 8.01266 -26.4824 4.94128 
7.36909 -26.4326 5.10827 6.83386 -26.3653 5.12215 10.2785 -26.8793 5.11357 
9.80521 -26.9177 5.13389 9.29584 -26.9358 5.11976 8.77862 -26.9096 5.20063 
10.9368 -19.5926 4.66248 11.0428 -19.32 4.42549 11.1322 -19.5949 4.54778 
10.8507 -19.4423 4.41048 10.9249 -20.0981 4.74109 11.2052 -20.0633 4.44022 
10.7002 -19.9395 4.4121 11.0513 -20.5128 4.81742 11.2106 -20.7209 4.52434 
10.4065 -20.3607 4.57154 9.57722 -20.6764 4.85273 9.81086 -20.462 4.52605 
9.17435 -20.7856 4.79713 9.31072 -20.5421 4.48857 8.98872 -20.7634 4.44138 
11.3038 -21.3425 4.51981 8.7427 -21.1244 4.3744 11.579 -21.9359 4.70946 
11.649 -21.6394 4.29613 11.9045 -22.0022 4.55043 8.47842 -21.457 4.55852 
7.91892 -22.0105 4.8388 8.11738 -21.7188 4.64358 7.79264 -21.9641 4.43845 
12.0978 -22.4776 4.70176 12.293 -22.2458 4.50368 12.5664 -22.5949 4.5521 
11.6411 -22.4463 4.92185 7.58493 -22.3871 4.33052 12.5914 -23.0687 4.6852 
12.8763 -22.7563 4.41574 12.9999 -23.1555 4.42288 12.0506 -22.9713 4.87014 
7.37933 -22.7872 4.64679 7.06525 -23.0767 4.31403 12.7347 -23.6095 4.7974 
13.0496 -23.735 4.55989 12.2853 -23.5016 4.93054 6.75227 -23.3699 4.63679 
6.51956 -23.7509 4.48044 13.1216 -24.2979 4.54119 6.44934 -24.2672 4.46288 
13.1221 -24.8964 4.52158 6.44545 -24.8796 4.48003 13.0295 -25.4222 4.34772 
6.43811 -25.5099 4.4832 12.8201 -25.7295 4.62534 12.3454 -25.9347 4.62573 
11.9993 -26.1461 4.42057 6.5088 -26.0441 4.48449 11.5603 -26.326 4.43832 
11.0619 -26.4962 4.68118 10.7058 -26.7239 4.32887 9.63054 -26.7256 4.77564 
10.0304 -26.7696 4.58967 9.76396 -26.5202 4.32108 9.22766 -26.4677 4.43859 
9.0616 -26.714 4.82713 8.53421 -26.4598 4.50647 8.5527 -26.6698 4.92223 
7.87538 -26.406 4.40089 7.34474 -26.4184 4.4963 6.80993 -26.3442 4.50134 
10.3402 -26.8792 4.57964 11.1009 -19.2577 3.91091 11.3024 -19.5639 4.06245 
10.7855 -19.5317 3.94225 11.369 -20.2394 3.9594 10.5672 -19.9369 3.80914 
11.3328 -20.8716 3.96042 10.3904 -20.2479 4.06729 9.85481 -20.3301 3.9167 
9.2743 -20.4705 4.05549 8.87223 -20.7503 3.84807 11.3836 -21.3099 4.01662 
8.61667 -21.0846 3.94822 8.47521 -21.3259 4.15385 8.31636 -21.2947 3.71539 
12.6447 -21.8855 4.07849 12.7946 -21.7409 3.76091 12.9558 -22.0244 3.91951 
12.2159 -21.9245 4.30428 12.2705 -21.6121 3.86685 11.6967 -21.4647 3.8837 
8.08197 -21.5855 4.08164 7.74714 -21.9575 3.89683 12.7189 -22.2834 4.27338 
13.1283 -22.5654 3.95181 7.59523 -22.4073 3.7377 13.2038 -23.2494 4.00116 
7.37299 -22.7692 4.0486 7.07142 -23.0806 3.71004 13.1889 -23.8371 3.98807 
6.74742 -23.3653 4.00605 6.52194 -23.7471 3.85752 13.159 -24.4612 3.87653 
6.44678 -24.273 3.85452 13.0956 -25.003 3.97436 6.44023 -24.8905 3.87222 
13.0091 -25.5488 3.70727 6.42902 -25.5273 3.87111 12.7098 -25.8484 4.0966 
12.3023 -26.0719 4.15035 12.4799 -26.1012 3.89274 6.49699 -26.0644 3.88005 
12.1269 -26.3509 3.88776 11.4827 -26.4981 3.91741 11.0664 -26.536 4.10433 
10.7853 -26.7684 3.84161 10.1389 -26.7091 4.0868 9.75524 -26.4515 3.75106 
9.2405 -26.3564 3.91517 8.62225 -26.3711 3.92769 7.97713 -26.4023 3.91177 
7.35325 -26.4236 3.89803 6.81074 -26.3587 3.89036 10.475 -26.8751 3.82736 
11.4964 -19.424 3.6045 11.4469 -19.2362 3.2138 11.7602 -19.5762 3.29198 
11.01 -19.255 3.43836 10.7048 -19.5457 3.24498 11.666 -19.9899 3.58519 
11.9972 -20.047 3.26069 10.3114 -19.8419 3.27384 10.1874 -20.1078 3.64259 
9.73475 -20.1418 3.48525 9.92714 -19.9526 3.29381 9.51916 -20.0824 3.09838 
11.9784 -20.6708 3.47362 12.2115 -20.4436 3.29129 12.4262 -20.8407 3.26842 
11.5746 -20.6025 3.65279 9.26712 -20.3747 3.45823 8.85943 -20.6679 3.15697 
12.0874 -21.2586 3.59263 12.5018 -21.3237 3.41226 11.6177 -21.1147 3.69535 
8.57384 -20.9894 3.45114 8.25987 -21.3723 3.12072 12.7718 -21.5192 3.35497 
13.1041 -21.9208 3.38997 7.97817 -21.6311 3.50368 7.77159 -22.0872 3.27392 
13.354 -22.4193 3.49617 13.395 -22.2359 3.09073 13.54 -22.6279 3.27915 
[...]
CELL_DATA 3036
SCALARS scalars float
LOOKUP_TABLE default
52 52 52 52 52 52 52 52 52 
52 52 52 52 52 52 52 52 52 
52 52 52 52 52 52 52 52 52 
52 52 52 52 52 52 52 52 52 
52 52 52 52 52 52 52 52 52 
52 52 52 52 52 52 52 52 52 
52 52 52 52 52 52 52 52 52 
52 52 52 52 52 52 52 52 52 
52 52 52 52 52 52 52 52 52 
52 52 52 52 52 52 52 52 52 
52 52 52 52 52 52 52 52 52 
52 52 52 52 52 52 52 52 52 
52 52 52 52 52 52 52 52 52 
52 52 52 52 52 52 52 52 52 
52 52 52 52 52 52 52 52 52 
52 52 52 52 52 52 52 52 52 
52 52 52 52 52 52 52 52 52 
52 52 52 52 52 52 52 52 52 
52 52 52 52 52 52 52 52 52 
52 52 52 52 52 52 52 52 52 
52 52 52 52 52 52 52 52 52 
52 52 52 52 52 52 52 52 52 
52 52 52 52 52 52 52 52 52 
52 52 52 52 52 52 52 52 52 
52 52 52 52 52 52 52 52 52 
52 52 52 52 52 52 52 52 52 
52 52 52 52 52 52 52 52 52 
52 52 52 52 52 52 52 52 52 
52 52 52 52 52 52 52 52 52 
52 52 52 52 52 52 52 52 52 
52 52 52 52 52 52 52 52 52 
52 52 52 52 52 52 52 52 52 
52 52 52 52 52 52 52 52 52 
52 52 52 52 52 52 52 52 52 
52 52 52 52 52 52 52 52 52 
52 52 52 52 52 52 52 52 52 
52 52 52 52 52 52 52 52 52 
52 52 52 52 52 52 52 52 52 
52 52 52 52 52 52 52 52 52 
52 52 52 52 52 52 52 52 52 
52 52 52 52 52 52 52 52 52 
52 52 52 52 52 52 52 52 52 
52 52 52 52 52 52 52 52 52 
52 52 52 52 52 52 52 52 52 
52 52 52 52 52 52 52 52 52 
52 52 52 52 52 52 52 52 52 
52 52 52 52 52 52 52 52 52 
52 52 52 52 52 52 52 52 52 
52 52 52 52 52 52 52 52 52 
52 52 52 52 52 52 52 52 52 
52 52 52 52 52 52 52 52 52 
52 52 52 52 52 52 52 52 52 
52 52 52 52 52 52 52 52 52 
52 52 52 52 52 52 52 52 52 
52 52 52 52 52 52 52 52 52 
52 52 52 52 52 52 52 52 52 
52 52 52 52 52 52 52 52 52 
52 52 52 52 52 52 52 52 52 
52 52 52 52 52 52 52 52 52 
52 52 52 52 52 52 52 52 52 
52 52 52 52 52 52 52 52 52 
52 52 52 52 52 52 52 52 52 
52 52 52 52 52 52 52 52 52 
52 52 52 52 52 52 52 52 52 
52 52 52 52 52 52 52 52 52 
52 52 52 52 52 52 52 52 52 
52 52 52 52 52 52 52 52 52 
52 52 52 52 52 52 52 52 52 
52 52 52 52 52 52 52 52 52 
52 52 52 52 52 52 52 52 52 
52 52 52 52 52 52 52 52 52 
52 52 52 52 52 52 52 52 52 
52 52 52 52 52 52 52 52 52 
52 52 52 52 52 52 52 52 52 
52 52 52 52 52 52 52 52 52 
52 52 52 52 52 52 52 52 52 
52 52 52 52 52 52 52 52 52 
52 52 52 52 52 52 52 52 52 
52 52 52 52 52 52 52 52 52 
52 52 52 52 52 52 52 52 52 
52 52 52 52 52 52 52 52 52 
52 52 52 52 52 52 52 52 52 
52 52 52 52 52 52 52 52 52 
52 52 52 52 52 52 52 52 52 
52 52 52 52 52 52 52 52 52 
52 52 52 52 52 52 52 52 52 
52 52 52 52 52 52 52 52 52 
52 52 52 52 52 52 52 52 52 
52 52 52 52 52 52 52 52 52 
52 52 52 52 52 52 52 52 52 
52 52 52 52 52 52 52 52 52 
52 52 52 52 52 52 52 52 52 
52 52 52 52 52 52 52 52 52 
52 52 52 52 52 52 52 52 52 
52 52 52 52 52 52 52 52 52 
52 52 52 52 52 52 52 52 52 
52 52 52 52 52 52 52 52 52 
52 52 52 52 52 52 52 52 52 
52 52 52 52 52 52 52 52 52 
52 52 52 52 52 52 52 52 52 
52 52 52 52 52 52 52 52 52 
52 52 52 52 52 52 52 52 52 
52 52 52 52 52 52 52 52 52 
52 52 52 52 52 52 52 52 52 
52 52 52 52 52 52 52 52 52 
52 52 52 52 52 52 52 52 52 
52 52 52 52 52 52 52 52 52 
52 52 52 52 52 52 52 52 52 
52 52 52 52 52 52 52 52 52 
52 52 52 52 52 52 52 52 52 
52 52 52 52 52 52 52 52 52 
52 52 52 52 52 52 52 52 52 
52 52 52 52 52 52 52 52 52 
52 52 52 52 52 52 52 52 52 
52 52 52 52 52 52 52 52 52 
52 52 52 52 52 52 52 52 52 
52 52 52 52 52 52 52 52 52 
52 52 52 52 52 52 52 52 52 
52 52 52 52 52 52 52 52 52 
52 52 52 52 52 52 52 52 52 
52 52 52 52 52 52 52 52 52 
52 52 52 52 52 52 52 52 52 
52 52 52 52 52 52 52 52 52 
52 52 52 52 52 52 52 52 52 
52 52 52 52 52 52 52 52 52 
52 52 52 52 52 52 52 52 52 
52 52 52 52 52 52 52 52 52 
52 52 52 52 52 52 52 52 52 
52 52 52 52 52 52 52 52 52 
52 52 52 52 52 52 52 52 52 
52 52 52 52 52 52 52 52 52 
52 52 52 52 52 52 52 52 52 
52 52 52 52 52 52 52 52 52 
52 52 52 52 52 52 52 52 52 
52 52 52 52 52 52 52 52 52 
52 52 52 52 52 52 52 52 52 
52 52 52 52 52 52 52 52 52 
52 52 52 52 52 52 52 52 52 
52 52 52 52 52 52 52 52 52 
52 52 52 52 52 52 52 52 52 
52 52 52 52 52 52 52 52 52 
52 52 52 52 52 52 52 52 52 
52 52 52 52 52 52 52 52 52 
52 52 52 52 52 52 52 52 52 
52 52 52 52 52 52 52 52 52 
52 52 52 52 52 52 52 52 52 
52 52 52 52 52 52 52 52 52 
52 52 52 52 52 52 52 52 52 
52 52 52 52 52 52 52 52 52 
52 52 52 52 52 52 52 52 52 
52 52 52 52 52 52 52 52 52 
52 52 52 52 52 52 52 52 52 
52 52 52 52 52 52 52 52 52 
52 52 52 52 52 52 52 52 52 
52 52 52 52 52 52 52 52 52 
52 52 52 52 52 52 52 52 52 
52 52 52 52 52 52 52 52 52 
52 52 52 52 52 52 52 52 52 
52 52 52 52 52 52 52 52 52 
52 52 52 52 52 52 52 52 52 
52 52 52 52 52 52 52 52 52 
52 52 52 52 52 52 52 52 52 
52 52 52 52 52 52 52 52 52 
52 52 52 52 52 52 52 52 52 
52 52 52 52 52 52 52 52 52 
52 52 52 52 52 52 52 52 52 
52 52 52 52 52 52 52 52 52 
52 52 52 52 52 52 52 52 52 
52 52 52 52 52 52 52 52 52 
52 52 52 52 52 52 52 52 52 
52 52 52 52 52 52 52 52 52 
52 52 52 52 52 52 52 52 52 
52 52 52 52 52 52 52 52 52 
52 52 52 52 52 52 52 52 52 
52 52 52 52 52 52 52 52 52 
52 52 52 52 52 52 52 52 52 
52 52 52 52 52 52 52 52 52 
52 52 52 52 52 52 52 52 52 
52 52 52 52 52 52 52 52 52 
52 52 52 52 52 52 52 52 52 
52 52 52 52 52 52 52 52 52 
52 52 52 52 52 52 52 52 52 
52 52 52 52 52 52 52 52 52 
52 52 52 52 52 52 52 52 52 
52 52 52 52 52 52 52 52 52 
52 52 52 52 52 52 52 52 52 
52 52 52 52 52 52 52 52 52 
52 52 52 52 52 52 52 52 52 
52 52 52 52 52 52 52 52 52 
52 52 52 52 52 52 52 52 52 
52 52 52 52 52 52 52 52 52 
52 52 52 52 52 52 52 52 52 
52 52 52 52 52 52 52 52 52 
52 52 52 52 52 52 52 52 52 
52 52 52 52 52 52 52 52 52 
52 52 52 52 52 52 52 52 52 
52 52 52 52 52 52 52 52 52 
52 52 52 52 52 52 52 52 52 
52 52 52 52 52 52 52 52 52 
52 52 52 52 52 52 52 52 52 
52 52 52 52 52 52 52 52 52 
52 52 52 52 52 52 52 52 52 
52 52 52 52 52 52 52 52 52 
52 52 52 52 52 52 52 52 52 
52 52 52 52 52 52 52 52 52 
52 52 52 52 52 52 52 52 52 
52 52 52 52 52 52 52 52 52 
52 52 52 52 52 52 52 52 52 
52 52 52 52 52 52 52 52 52 
52 52 52 52 52 52 52 52 52 
52 52 52 52 52 52 52 52 52 
52 52 52 52 52 52 52 52 52 
52 52 52 52 52 52 52 52 52 
52 52 52 52 52 52 52 52 52 
52 52 52 52 52 52 52 52 52 
52 52 52 52 52 52 52 52 52 
52 52 52 52 52 52 52 52 52 
52 52 52 52 52 52 52 52 52 
52 52 52 52 52 52 52 52 52 
52 52 52 52 52 52 52 52 52 
52 52 52 52 52 52 52 52 52 
52 52 52 52 52 52 52 52 52 
52 52 52 52 52 52 52 52 52 
52 52 52 52 52 52 52 52 52 
52 52 52 52 52 52 52 52 52 
52 52 52 52 52 52 52 52 52 
52 52 52 52 52 52 52 52 52 
52 52 52 52 52 52 52 52 52 
52 52 52 52 52 52 52 52 52 
52 52 52 52 52 52 52 52 52 
52 52 52 52 52 52 52 52 52 
52 52 52 52 52 52 52 52 52 
52 52 52 52 52 52 52 52 52 
52 52 52 52 52 52 52 52 52 
52 52 52 52 52 52 52 52 52 
52 52 52 52 52 52 52 52 52 
52 52 52 52 52 52 52 52 52 
52 52 52 52 52 52 52 52 52 
52 52 52 52 52 52 52 52 52 
52 52 52 52 52 52 52 52 52 
52 52 52 52 52 52 52 52 52 
52 52 52 52 52 52 52 52 52 
52 52 52 52 52 52 52 52 52 
52 52 52 52 52 52 52 52 52 
52 52 52 52 52 52 52 52 52 
52 52 52 52 52 52 52 52 52 
52 52 52 52 52 52 52 52 52 
52 52 52 52 52 52 52 52 52 
52 52 52 52 52 52 52 52 52 
52 52 52 52 52 52 52 52 52 
52 52 52 52 52 52 52 52 52 
52 52 52 52 52 52 52 52 52 
52 52 52 52 52 52 52 52 52 
52 52 52 52 52 52 52 52 52 
52 52 52 52 52 52 52 52 52 
52 52 52 52 52 52 52 52 52 
52 52 52 52 52 52 52 52 52 
52 52 52 52 52 52 52 52 52 
52 52 52 52 52 52 52 52 52 
52 52 52 52 52 52 52 52 52 
52 52 52 52 52 52 52 52 52 
52 52 52 52 52 52 52 52 52 
52 52 52 52 52 52 52 52 52 
52 52 52 52 52 52 52 52 52 
52 52 52 52 52 52 52 52 52 
52 52 52 52 52 52 52 52 52 
52 52 52 52 52 52 52 52 52 
52 52 52 52 52 52 52 52 52 
52 52 52 52 52 52 52 52 52 
52 52 52 52 52 52 52 52 52 
52 52 52 52 52 52 52 52 52 
52 52 52 52 52 52 52 52 52 
52 52 52 52 52 52 52 52 52 
52 52 52 52 52 52 52 52 52 
52 52 52 52 52 52 52 52 52 
52 52 52 52 52 52 52 52 52 
52 52 52 52 52 52 52 52 52 
52 52 52 52 52 52 52 52 52 
52 52 52 52 52 52 52 52 52 
52 52 52 52 52 52 52 52 52 
52 52 52 52 52 52 52 52 52 
52 52 52 52 52 52 52 52 52 
52 52 52 52 52 52 52 52 52 
52 52 52 52 52 52 52 52 52 
52 52 52 52 52 52 52 52 52 
52 52 52 52 52 52 52 52 52 
52 52 52 52 52 52 52 52 52 
52 52 52 52 52 52 52 52 52 
52 52 52 52 52 52 52 52 52 
52 52 52 52 52 52 52 52 52 
52 52 52 52 52 52 52 52 52 
52 52 52 52 52 52 52 52 52 
52 52 52 52 52 52 52 52 52 
52 52 52 52 52 52 52 52 52 
52 52 52 52 52 52 52 52 52 
52 52 52 52 52 52 52 52 52 
52 52 52 52 52 52 52 52 52 
52 52 52 52 52 52 52 52 52 
52 52 52 52 52 52 52 52 52 
52 52 52 52 52 52 52 52 52 
52 52 52 52 52 52 52 52 52 
52 52 52 52 52 52 52 52 52 
52 52 52 52 52 52 52 52 52 
52 52 52 52 52 52 52 52 52 
52 52 52 52 52 52 52 52 52 
52 52 52 52 52 52 52 52 52 
52 52 52 52 52 52 52 52 52 
52 52 52 52 52 52 52 52 52 
52 52 52 52 52 52 52 52 52 
52 52 52 52 52 52 52 52 52 
52 52 52 52 52 52 52 52 52 
52 52 52 52 52 52 52 52 52 
52 52 52 52 52 52 52 52 52 
52 52 52 52 52 52 52 52 52 
52 52 52 52 52 52 52 52 52 
52 52 52 52 52 52 52 52 52 
52 52 52 52 52 52 52 52 52 
52 52 52 52 52 52 52 52 52 
52 52 52 52 52 52 52 52 52 
52 52 52 52 52 52 52 52 52 
52 52 52 52 52 52 52 52 52 
52 52 52 52 52 52 52 52 52 
52 52 52 52 52 52 52 52 52 
52 52 52 52 52 52 52 52 52 
52 52 52 52 52 52 52 52 52 
52 52 52 52 52 52 52 52 52 
52 52 52 52 52 52 52 52 52 
52 52 52 52 52 52 52 52 52 
52 52 52 52 52 52 52 52 52 
52 52 52 52 52 52 52 52 52 
52 52 52 52 52 52 52 52 52 
52 52 52 52 52 52 52 52 52 
52 52 52 52 52 52 52 52 52 
52 52 52 52 52 52 52 52 52 
52 52 52 52 52 52 52 52 52 
52 52 52 52 52 52 52 52 52 
52 52 52 52 52 52 52 52 52 
52 52 52 
