# vtk DataFile Version 4.2
vtk output
ASCII
DATASET POLYDATA
POINTS 1392 float
23.0314 17.8012 -13.6273 23.4626 17.4356 -13.1621 23.7823 17.4771 -13.8297 
22.0782 17.8827 -13.6154 22.6314 17.5146 -12.9801 21.0675 17.8699 -13.638 
21.6248 17.523 -12.9652 20.0746 17.8692 -13.6343 20.6083 17.5055 -12.9952 
19.0711 17.8969 -13.6136 19.5771 17.4979 -13.0022 18.0525 17.93 -13.6455 
18.5304 17.5312 -12.9892 17.3086 17.7794 -13.7619 17.5909 17.5368 -13.0699 
16.9987 17.2334 -13.3301 23.2 17.7916 -14.4251 23.6762 17.3956 -14.5916 
22.3473 18.0169 -14.4565 21.3426 18.0279 -14.4931 20.3397 18.003 -14.4968 
19.3481 18.0087 -14.484 18.3268 18.0418 -14.4885 17.2416 17.9329 -14.5953 
16.8174 17.2537 -14.3218 23.156 17.5381 -15.0899 22.86 17.4704 -15.8545 
22.3941 17.8798 -15.4397 21.3687 18.0218 -15.4813 20.3568 17.9992 -15.5047 
19.3596 17.9852 -15.5006 18.3579 18.0081 -15.491 17.3034 18.0528 -15.5108 
16.4061 17.533 -14.9753 16.1585 17.9515 -15.5825 15.2624 17.7893 -15.7934 
15.6165 17.3426 -15.123 14.9527 17.2294 -15.3106 22.3052 17.8618 -16.6337 
22.9449 17.541 -16.5944 21.3327 17.9861 -16.492 20.3114 17.984 -16.5208 
19.2998 17.9668 -16.5339 18.2868 17.9759 -16.5345 17.2566 18.0252 -16.5414 
16.2157 18.071 -16.5782 15.3422 17.9354 -16.5893 14.8577 17.4078 -16.2651 
23.9894 17.775 -17.633 24.3783 17.3902 -17.2034 24.7382 17.4716 -17.8477 
23.0381 17.874 -17.4327 23.612 17.464 -16.9421 22.1669 17.987 -17.6507 
21.3192 17.9871 -17.5117 20.287 17.9875 -17.5241 19.2531 17.9872 -17.5563 
18.2391 18.0002 -17.5606 17.233 18.0207 -17.5892 16.2153 18.0452 -17.6352 
15.3474 17.9339 -17.6171 14.8611 17.4207 -17.3268 24.2013 17.852 -18.5104 
24.8323 17.4799 -18.7723 23.3346 18.0029 -18.4569 22.3416 18.0073 -18.4942 
21.3205 17.9985 -18.5271 20.2851 17.9985 -18.5309 19.2678 18.0082 -18.5722 
18.2559 18.0223 -18.5867 17.4012 18.0337 -18.4435 16.5338 17.9159 -18.6709 
15.5768 17.8499 -18.5095 15.0205 17.4778 -18.2857 24.316 17.8687 -19.6145 
24.9768 17.5467 -19.5681 23.3461 18.0106 -19.4783 22.327 18.0259 -19.5131 
21.2829 18.0199 -19.555 20.2502 18.0187 -19.5687 19.4201 18.016 -19.4279 
18.5446 17.9011 -19.6551 17.4573 17.8221 -19.3687 16.8008 17.3681 -19.2962 
16.1443 17.4529 -18.9012 15.5016 17.4514 -18.7536 26.1434 17.82 -20.7431 
26.3837 17.4021 -20.1902 26.8946 17.5972 -20.6753 25.0415 17.8616 -20.4345 
25.64 17.4589 -19.9366 24.1433 17.994 -20.6602 23.3094 18.0167 -20.5138 
22.3017 18.0283 -20.5314 21.279 18.0372 -20.5754 20.2551 18.0461 -20.6032 
19.2794 17.9256 -20.4834 18.7081 17.5275 -20.5092 18.0777 17.2524 -20.0771 
17.3175 17.214 -19.7734 28.0984 17.807 -21.6398 28.4903 17.4765 -21.2401 
28.8262 17.4202 -21.6583 27.0861 17.9416 -21.4726 27.665 17.5607 -20.9741 
26.177 18.0435 -21.6787 25.3119 18.0124 -21.5017 24.2907 18.0138 -21.5108 
23.2761 18.0282 -21.5307 22.442 18.0266 -21.3786 21.5575 17.9167 -21.5977 
20.5278 17.9073 -21.4502 19.5932 17.8399 -21.4484 18.9916 17.3958 -21.2495 
28.4074 17.4425 -22.0817 27.7888 17.1744 -22.5351 27.5626 17.8497 -22.26 
26.4571 17.9567 -22.5166 25.3311 18.063 -22.5503 24.2856 18.0485 -22.544 
23.2652 18.0318 -22.5696 22.2778 17.9079 -22.4447 21.6935 17.5084 -22.4608 
21.0346 17.3065 -22.0433 19.9833 17.4052 -21.9433 19.2687 17.2719 -21.8515 
27.0057 17.406 -22.8072 26.2416 17.5612 -23.1312 25.8319 17.4142 -23.6916 
25.4061 17.9618 -23.5319 24.3063 18.0731 -23.5907 23.4217 18.0508 -23.4479 
22.5804 17.8646 -23.6684 21.9419 17.2662 -23.4074 25.3489 17.8371 -24.3519 
25.6223 17.2129 -24.4212 24.5909 17.967 -24.4881 23.4417 17.9033 -24.4046 
22.6483 17.6361 -24.5215 22.1765 17.3778 -24.2235 25.0243 17.4769 -24.9198 
24.0507 17.4453 -25.0266 23.0482 17.2913 -24.9634 23.1069 16.8111 -11.7349 
23.3822 16.1594 -11.1839 23.888 16.5645 -11.6624 22.0211 16.8669 -11.6444 
22.3337 16.3605 -11.1406 21.1058 16.777 -11.7726 21.5662 16.4855 -11.2393 
20.8311 16.2977 -11.3205 26.1912 16.8421 -12.7154 26.258 16.5368 -12.0734 
26.8391 16.526 -12.4677 25.1087 16.8528 -12.5993 25.5893 16.5084 -11.995 
24.1224 16.8706 -12.2898 24.6456 16.5174 -11.9103 23.3493 17.1456 -12.5877 
22.3348 17.1629 -12.3345 21.3089 17.1408 -12.3517 20.3844 16.5394 -11.8725 
20.205 16.9813 -12.4121 19.0191 16.9686 -12.5171 19.5649 16.4802 -12.0286 
17.9876 16.9986 -12.5109 18.5556 16.4653 -12.0005 17.2623 17.0025 -12.6536 
17.5955 16.4852 -12.0614 16.9261 16.5502 -12.5739 27.0474 16.8437 -13.4472 
27.543 16.4559 -13.0492 27.8076 16.4932 -13.8335 26.2181 17.0109 -13.6686 
25.3595 16.9942 -13.5093 24.2956 17.1122 -13.209 16.7062 16.5618 -13.5377 
27.2004 16.7853 -14.4391 27.6768 16.4008 -14.6013 26.3507 16.9967 -14.4955 
25.344 16.9812 -14.5501 24.348 17.0801 -14.4058 16.586 16.4287 -14.3067 
15.2223 16.8515 -14.6823 15.4458 16.3452 -14.2483 15.7188 16.6085 -14.623 
14.9013 16.5294 -14.5477 27.1443 16.5394 -15.0957 26.8688 16.4805 -15.8691 
26.3703 16.859 -15.4741 25.3014 16.9609 -15.5583 24.2718 16.9453 -15.5406 
23.5353 17.1454 -15.3359 16.2578 16.7993 -14.7752 14.6063 16.6646 -15.4775 
26.2819 16.8482 -16.6441 26.9461 16.5317 -16.6261 25.4459 16.9689 -16.3608 
24.3881 17.0692 -16.5319 23.4141 17.1498 -16.2139 14.5872 16.6694 -16.5679 
26.9396 16.7722 -17.5031 27.4432 16.3985 -17.0991 27.7112 16.4599 -17.8671 
26.1239 16.9602 -17.6619 25.2473 17.0906 -17.2518 14.7242 16.4673 -17.7626 
27.1381 16.7956 -18.5714 27.7977 16.4594 -18.8171 26.2846 16.9599 -18.5001 
25.4434 17.1175 -18.254 15.9562 16.9256 -18.5442 16.5036 16.7538 -18.7858 
16.0603 16.3813 -18.3357 15.4283 16.4088 -18.2285 15.289 17.0145 -18.4199 
27.3846 16.8261 -19.5487 27.9676 16.5481 -19.6365 26.4099 17.0692 -19.5007 
25.472 17.1792 -19.171 16.8245 16.6264 -19.3828 29.138 16.7794 -20.5847 
29.4859 16.3269 -20.165 29.6541 16.5098 -20.795 28.1984 17.0099 -20.4914 
28.6579 16.5088 -19.9913 27.113 17.1984 -20.2584 18.598 16.8311 -20.7269 
18.0714 16.4899 -20.2941 17.3917 16.5796 -19.9389 29.2021 16.9854 -21.2204 
29.6085 16.2676 -21.262 18.7531 16.4284 -21.6379 29.0586 16.6835 -21.8114 
28.3839 16.7084 -22.2348 27.8252 16.1992 -22.5443 21.6343 16.6568 -22.7511 
21.0978 16.4943 -22.2514 20.2787 16.6458 -22.1801 19.389 16.6061 -22.1588 
27.1338 16.4598 -22.8721 26.4117 16.8017 -23.1559 25.9383 16.511 -23.6906 
21.8189 16.4899 -23.5274 25.7064 16.2474 -24.4321 22.3783 17.1175 -24.729 
21.9617 16.5287 -24.2479 25.2293 16.5676 -24.952 24.3415 16.5908 -25.1549 
23.2877 16.5082 -25.1586 22.4192 16.408 -24.9303 20.1788 15.8251 -10.7582 
20.3474 15.1018 -10.2214 20.788 15.4738 -10.5242 19.0128 15.8495 -10.6445 
19.2802 15.317 -10.1784 18.1023 15.7801 -10.7404 18.365 15.3308 -10.224 
17.725 15.311 -10.4348 26.232 16.0198 -11.6753 26.5093 15.2196 -11.2037 
26.9121 15.59 -11.6349 25.0721 16.0333 -11.4702 25.6027 15.3299 -10.9894 
24.226 16.1841 -11.4261 24.3958 15.6199 -10.9857 23.4597 15.4949 -10.8554 
22.5634 15.6151 -10.8711 21.4262 15.7574 -10.8376 20.0928 16.2175 -11.5133 
19.3149 16.1257 -11.3801 18.3152 16.1134 -11.3465 17.3854 15.5547 -10.8191 
17.1776 15.9944 -11.5243 16.0387 15.8873 -11.6354 16.536 15.5161 -10.9755 
15.2897 15.7854 -11.734 15.5958 15.5368 -11.0827 14.9919 15.2623 -11.3089 
29.1929 15.8773 -12.7104 29.2314 15.2306 -12.174 29.92 15.5615 -12.6031 
28.2131 15.8712 -12.4583 28.5294 15.5056 -12.1407 27.3532 16.0316 -12.3457 
27.6701 15.3746 -11.9019 16.3048 16.0918 -12.6335 15.2262 15.8974 -12.5642 
14.8013 15.3221 -12.2846 30.0648 15.8764 -13.4524 30.6078 15.1984 -12.9953 
30.8738 15.543 -13.8036 29.1942 16.0453 -13.6447 28.3081 16.1444 -13.2219 
16.3386 16.08 -13.6962 15.3675 16.0533 -13.6492 14.4628 15.5429 -13.0286 
14.2047 15.8523 -13.6286 13.8526 15.1969 -13.5627 30.2385 15.8434 -14.4604 
30.8252 15.5466 -14.4226 29.3229 16.0078 -14.5272 28.3495 16.1179 -14.4209 
16.0682 16.1794 -14.2739 14.2579 16.1278 -14.6188 13.3778 15.5161 -14.0469 
13.3839 15.8286 -14.5633 12.9519 15.3098 -14.521 30.492 15.4257 -15.0404 
29.8979 15.5077 -15.8949 29.3671 15.8814 -15.5151 28.3173 15.9846 -15.5284 
27.5522 16.1689 -15.3414 14.2422 16.1924 -15.7104 13.6179 15.817 -15.5798 
12.9712 15.3512 -15.1547 29.134 15.8506 -16.5567 29.7868 15.338 -16.8331 
28.4126 15.9783 -16.3652 27.5255 16.1461 -16.362 14.1722 15.9945 -16.6928 
13.742 15.4674 -16.4763 13.3023 15.1454 -15.9262 29.1379 15.8346 -17.5235 
29.6683 15.4871 -17.7303 28.2302 16.0959 -17.2262 14.3126 15.8459 -17.4807 
14.0319 15.3514 -17.2148 29.2914 15.8891 -18.6298 29.9799 15.4479 -18.4692 
28.4289 16.1193 -18.2578 16.1796 16.176 -18.8406 15.4506 15.9564 -18.5989 
14.8672 15.6952 -18.3991 14.378 15.2952 -17.9435 30.0152 15.807 -19.4946 
30.4262 15.3425 -18.937 30.6087 15.1698 -19.4762 29.1714 16.1706 -19.5485 
28.4501 16.2073 -19.208 16.521 16.1186 -19.7022 15.6084 15.8056 -19.5696 
14.9762 15.3603 -19.1673 30.3682 15.4367 -19.929 29.8932 15.5637 -20.5016 
18.1866 16.191 -20.8886 17.3344 16.1041 -20.4006 16.3948 15.8222 -20.5918 
15.7304 15.5227 -20.4107 15.25 15.18 -19.9662 29.4413 15.5121 -21.1886 
29.1959 15.8996 -21.6153 28.8748 15.1164 -21.7126 18.2288 15.9703 -21.4815 
17.4765 15.8148 -21.3187 16.7693 15.5001 -21.4304 16.2368 15.2189 -21.0319 
28.4992 15.833 -22.1096 27.9006 15.5498 -22.5173 21.3542 15.9552 -22.645 
20.5953 15.9541 -22.4914 19.655 15.9478 -22.5323 19.0084 15.7772 -22.3764 
18.2994 15.3591 -22.0234 17.304 15.2806 -21.8482 27.3426 15.3931 -22.9649 
26.4143 15.8358 -23.2238 26.0029 15.6346 -23.8619 21.7078 15.724 -23.4673 
21.0798 15.2177 -22.9922 20.1579 15.4408 -22.827 19.5534 15.2524 -22.7764 
25.8971 15.4408 -24.5402 21.9422 15.4288 -24.4324 25.3479 15.4256 -24.9623 
24.3816 15.548 -25.1113 23.3365 15.4855 -25.1297 22.4431 15.4216 -24.9811 
24.995 14.9192 -10.5298 25.2226 14.1493 -10.2412 25.683 14.5568 -10.5817 
24.0407 14.995 -10.5263 24.5113 14.4479 -10.1995 23.0465 14.9591 -10.5371 
23.6308 14.2873 -10.0452 22.0335 14.9985 -10.5269 22.5679 14.4371 -10.0477 
21.1938 15.1319 -10.4463 21.4238 14.5677 -10.0502 20.4824 14.4569 -9.8846 
19.558 14.5878 -9.90344 18.5721 14.6129 -9.89834 16.9588 15.042 -10.4958 
17.5776 14.6282 -10.0311 15.9943 15.0102 -10.5328 16.5032 14.4662 -10.0421 
[...]
CELL_DATA 2780
SCALARS scalars float
LOOKUP_TABLE default
54 54 54 54 54 54 54 54 54 
54 54 54 54 54 54 54 54 54 
54 54 54 54 54 54 54 54 54 
54 54 54 54 54 54 54 54 54 
54 54 54 54 54 54 54 54 54 
54 54 54 54 54 54 54 54 54 
54 54 54 54 54 54 54 54 54 
54 54 54 54 54 54 54 54 54 
54 54 54 54 54 54 54 54 54 
54 54 54 54 54 54 54 54 54 
54 54 54 54 54 54 54 54 54 
54 54 54 54 54 54 54 54 54 
54 54 54 54 54 54 54 54 54 
54 54 54 54 54 54 54 54 54 
54 54 54 54 54 54 54 54 54 
54 54 54 54 54 54 54 54 54 
54 54 54 54 54 54 54 54 54 
54 54 54 54 54 54 54 54 54 
54 54 54 54 54 54 54 54 54 
54 54 54 54 54 54 54 54 54 
54 54 54 54 54 54 54 54 54 
54 54 54 54 54 54 54 54 54 
54 54 54 54 54 54 54 54 54 
54 54 54 54 54 54 54 54 54 
54 54 54 54 54 54 54 54 54 
54 54 54 54 54 54 54 54 54 
54 54 54 54 54 54 54 54 54 
54 54 54 54 54 54 54 54 54 
54 54 54 54 54 54 54 54 54 
54 54 54 54 54 54 54 54 54 
54 54 54 54 54 54 54 54 54 
54 54 54 54 54 54 54 54 54 
54 54 54 54 54 54 54 54 54 
54 54 54 54 54 54 54 54 54 
54 54 54 54 54 54 54 54 54 
54 54 54 54 54 54 54 54 54 
54 54 54 54 54 54 54 54 54 
54 54 54 54 54 54 54 54 54 
54 54 54 54 54 54 54 54 54 
54 54 54 54 54 54 54 54 54 
54 54 54 54 54 54 54 54 54 
54 54 54 54 54 54 54 54 54 
54 54 54 54 54 54 54 54 54 
54 54 54 54 54 54 54 54 54 
54 54 54 54 54 54 54 54 54 
54 54 54 54 54 54 54 54 54 
54 54 54 54 54 54 54 54 54 
54 54 54 54 54 54 54 54 54 
54 54 54 54 54 54 54 54 54 
54 54 54 54 54 54 54 54 54 
54 54 54 54 54 54 54 54 54 
54 54 54 54 54 54 54 54 54 
54 54 54 54 54 54 54 54 54 
54 54 54 54 54 54 54 54 54 
54 54 54 54 54 54 54 54 54 
54 54 54 54 54 54 54 54 54 
54 54 54 54 54 54 54 54 54 
54 54 54 54 54 54 54 54 54 
54 54 54 54 54 54 54 54 54 
54 54 54 54 54 54 54 54 54 
54 54 54 54 54 54 54 54 54 
54 54 54 54 54 54 54 54 54 
54 54 54 54 54 54 54 54 54 
54 54 54 54 54 54 54 54 54 
54 54 54 54 54 54 54 54 54 
54 54 54 54 54 54 54 54 54 
54 54 54 54 54 54 54 54 54 
54 54 54 54 54 54 54 54 54 
54 54 54 54 54 54 54 54 54 
54 54 54 54 54 54 54 54 54 
54 54 54 54 54 54 54 54 54 
54 54 54 54 54 54 54 54 54 
54 54 54 54 54 54 54 54 54 
54 54 54 54 54 54 54 54 54 
54 54 54 54 54 54 54 54 54 
54 54 54 54 54 54 54 54 54 
54 54 54 54 54 54 54 54 54 
54 54 54 54 54 54 54 54 54 
54 54 54 54 54 54 54 54 54 
54 54 54 54 54 54 54 54 54 
54 54 54 54 54 54 54 54 54 
54 54 54 54 54 54 54 54 54 
54 54 54 54 54 54 54 54 54 
54 54 54 54 54 54 54 54 54 
54 54 54 54 54 54 54 54 54 
54 54 54 54 54 54 54 54 54 
54 54 54 54 54 54 54 54 54 
54 54 54 54 54 54 54 54 54 
54 54 54 54 54 54 54 54 54 
54 54 54 54 54 54 54 54 54 
54 54 54 54 54 54 54 54 54 
54 54 54 54 54 54 54 54 54 
54 54 54 54 54 54 54 54 54 
54 54 54 54 54 54 54 54 54 
54 54 54 54 54 54 54 54 54 
54 54 54 54 54 54 54 54 54 
54 54 54 54 54 54 54 54 54 
54 54 54 54 54 54 54 54 54 
54 54 54 54 54 54 54 54 54 
54 54 54 54 54 54 54 54 54 
54 54 54 54 54 54 54 54 54 
54 54 54 54 54 54 54 54 54 
54 54 54 54 54 54 54 54 54 
54 54 54 54 54 54 54 54 54 
54 54 54 54 54 54 54 54 54 
54 54 54 54 54 54 54 54 54 
54 54 54 54 54 54 54 54 54 
54 54 54 54 54 54 54 54 54 
54 54 54 54 54 54 54 54 54 
54 54 54 54 54 54 54 54 54 
54 54 54 54 54 54 54 54 54 
54 54 54 54 54 54 54 54 54 
54 54 54 54 54 54 54 54 54 
54 54 54 54 54 54 54 54 54 
54 54 54 54 54 54 54 54 54 
54 54 54 54 54 54 54 54 54 
54 54 54 54 54 54 54 54 54 
54 54 54 54 54 54 54 54 54 
54 54 54 54 54 54 54 54 54 
54 54 54 54 54 54 54 54 54 
54 54 54 54 54 54 54 54 54 
54 54 54 54 54 54 54 54 54 
54 54 54 54 54 54 54 54 54 
54 54 54 54 54 54 54 54 54 
54 54 54 54 54 54 54 54 54 
54 54 54 54 54 54 54 54 54 
54 54 54 54 54 54 54 54 54 
54 54 54 54 54 54 54 54 54 
54 54 54 54 54 54 54 54 54 
54 54 54 54 54 54 54 54 54 
54 54 54 54 54 54 54 54 54 
54 54 54 54 54 54 54 54 54 
54 54 54 54 54 54 54 54 54 
54 54 54 54 54 54 54 54 54 
54 54 54 54 54 54 54 54 54 
54 54 54 54 54 54 54 54 54 
54 54 54 54 54 54 54 54 54 
54 54 54 54 54 54 54 54 54 
54 54 54 54 54 54 54 54 54 
54 54 54 54 54 54 54 54 54 
54 54 54 54 54 54 54 54 54 
54 54 54 54 54 54 54 54 54 
54 54 54 54 54 54 54 54 54 
54 54 54 54 54 54 54 54 54 
54 54 54 54 54 54 54 54 54 
54 54 54 54 54 54 54 54 54 
54 54 54 54 54 54 54 54 54 
54 54 54 54 54 54 54 54 54 
54 54 54 54 54 54 54 54 54 
54 54 54 54 54 54 54 54 54 
54 54 54 54 54 54 54 54 54 
54 54 54 54 54 54 54 54 54 
54 54 54 54 54 54 54 54 54 
54 54 54 54 54 54 54 54 54 
54 54 54 54 54 54 54 54 54 
54 54 54 54 54 54 54 54 54 
54 54 54 54 54 54 54 54 54 
54 54 54 54 54 54 54 54 54 
54 54 54 54 54 54 54 54 54 
54 54 54 54 54 54 54 54 54 
54 54 54 54 54 54 54 54 54 
54 54 54 54 54 54 54 54 54 
54 54 54 54 54 54 54 54 54 
54 54 54 54 54 54 54 54 54 
54 54 54 54 54 54 54 54 54 
54 54 54 54 54 54 54 54 54 
54 54 54 54 54 54 54 54 54 
54 54 54 54 54 54 54 54 54 
54 54 54 54 54 54 54 54 54 
54 54 54 54 54 54 54 54 54 
54 54 54 54 54 54 54 54 54 
54 54 54 54 54 54 54 54 54 
54 54 54 54 54 54 54 54 54 
54 54 54 54 54 54 54 54 54 
54 54 54 54 54 54 54 54 54 
54 54 54 54 54 54 54 54 54 
54 54 54 54 54 54 54 54 54 
54 54 54 54 54 54 54 54 54 
54 54 54 54 54 54 54 54 54 
54 54 54 54 54 54 54 54 54 
54 54 54 54 54 54 54 54 54 
54 54 54 54 54 54 54 54 54 
54 54 54 54 54 54 54 54 54 
54 54 54 54 54 54 54 54 54 
54 54 54 54 54 54 54 54 54 
54 54 54 54 54 54 54 54 54 
54 54 54 54 54 54 54 54 54 
54 54 54 54 54 54 54 54 54 
54 54 54 54 54 54 54 54 54 
54 54 54 54 54 54 54 54 54 
54 54 54 54 54 54 54 54 54 
54 54 54 54 54 54 54 54 54 
54 54 54 54 54 54 54 54 54 
54 54 54 54 54 54 54 54 54 
54 54 54 54 54 54 54 54 54 
54 54 54 54 54 54 54 54 54 
54 54 54 54 54 54 54 54 54 
54 54 54 54 54 54 54 54 54 
54 54 54 54 54 54 54 54 54 
54 54 54 54 54 54 54 54 54 
54 54 54 54 54 54 54 54 54 
54 54 54 54 54 54 54 54 54 
54 54 54 54 54 54 54 54 54 
54 54 54 54 54 54 54 54 54 
54 54 54 54 54 54 54 54 54 
54 54 54 54 54 54 54 54 54 
54 54 54 54 54 54 54 54 54 
54 54 54 54 54 54 54 54 54 
54 54 54 54 54 54 54 54 54 
54 54 54 54 54 54 54 54 54 
54 54 54 54 54 54 54 54 54 
54 54 54 54 54 54 54 54 54 
54 54 54 54 54 54 54 54 54 
54 54 54 54 54 54 54 54 54 
54 54 54 54 54 54 54 54 54 
54 54 54 54 54 54 54 54 54 
54 54 54 54 54 54 54 54 54 
54 54 54 54 54 54 54 54 54 
54 54 54 54 54 54 54 54 54 
54 54 54 54 54 54 54 54 54 
54 54 54 54 54 54 54 54 54 
54 54 54 54 54 54 54 54 54 
54 54 54 54 54 54 54 54 54 
54 54 54 54 54 54 54 54 54 
54 54 54 54 54 54 54 54 54 
54 54 54 54 54 54 54 54 54 
54 54 54 54 54 54 54 54 54 
54 54 54 54 54 54 54 54 54 
54 54 54 54 54 54 54 54 54 
54 54 54 54 54 54 54 54 54 
54 54 54 54 54 54 54 54 54 
54 54 54 54 54 54 54 54 54 
54 54 54 54 54 54 54 54 54 
54 54 54 54 54 54 54 54 54 
54 54 54 54 54 54 54 54 54 
54 54 54 54 54 54 54 54 54 
54 54 54 54 54 54 54 54 54 
54 54 54 54 54 54 54 54 54 
54 54 54 54 54 54 54 54 54 
54 54 54 54 54 54 54 54 54 
54 54 54 54 54 54 54 54 54 
54 54 54 54 54 54 54 54 54 
54 54 54 54 54 54 54 54 54 
54 54 54 54 54 54 54 54 54 
54 54 54 54 54 54 54 54 54 
54 54 54 54 54 54 54 54 54 
54 54 54 54 54 54 54 54 54 
54 54 54 54 54 54 54 54 54 
54 54 54 54 54 54 54 54 54 
54 54 54 54 54 54 54 54 54 
54 54 54 54 54 54 54 54 54 
54 54 54 54 54 54 54 54 54 
54 54 54 54 54 54 54 54 54 
54 54 54 54 54 54 54 54 54 
54 54 54 54 54 54 54 54 54 
54 54 54 54 54 54 54 54 54 
54 54 54 54 54 54 54 54 54 
54 54 54 54 54 54 54 54 54 
54 54 54 54 54 54 54 54 54 
54 54 54 54 54 54 54 54 54 
54 54 54 54 54 54 54 54 54 
54 54 54 54 54 54 54 54 54 
54 54 54 54 54 54 54 54 54 
54 54 54 54 54 54 54 54 54 
54 54 54 54 54 54 54 54 54 
54 54 54 54 54 54 54 54 54 
54 54 54 54 54 54 54 54 54 
54 54 54 54 54 54 54 54 54 
54 54 54 54 54 54 54 54 54 
54 54 54 54 54 54 54 54 54 
54 54 54 54 54 54 54 54 54 
54 54 54 54 54 54 54 54 54 
54 54 54 54 54 54 54 54 54 
54 54 54 54 54 54 54 54 54 
54 54 54 54 54 54 54 54 54 
54 54 54 54 54 54 54 54 54 
54 54 54 54 54 54 54 54 54 
54 54 54 54 54 54 54 54 54 
54 54 54 54 54 54 54 54 54 
54 54 54 54 54 54 54 54 54 
54 54 54 54 54 54 54 54 54 
54 54 54 54 54 54 54 54 54 
54 54 54 54 54 54 54 54 54 
54 54 54 54 54 54 54 54 54 
54 54 54 54 54 54 54 54 54 
54 54 54 54 54 54 54 54 54 
54 54 54 54 54 54 54 54 54 
54 54 54 54 54 54 54 54 54 
54 54 54 54 54 54 54 54 54 
54 54 54 54 54 54 54 54 54 
54 54 54 54 54 54 54 54 54 
54 54 54 54 54 54 54 54 54 
54 54 54 54 54 54 54 54 54 
54 54 54 54 54 54 54 54 54 
54 54 54 54 54 54 54 54 54 
54 54 54 54 54 54 54 54 54 
54 54 54 54 54 54 54 54 54 
54 54 54 54 54 54 54 54 54 
54 54 54 54 54 54 54 54 54 
54 54 54 54 54 54 54 54 54 
54 54 54 54 54 54 54 54 54 
54 54 54 54 54 54 54 54 54 
54 54 54 54 54 54 54 54 54 
54 54 54 54 54 54 54 54 54 
54 54 54 54 54 54 54 54 54 
54 54 54 54 54 54 54 54 54 
54 54 54 54 54 54 54 54 54 
54 54 54 54 54 54 54 54 54 
54 54 54 54 54 54 54 54 
