# vtk DataFile Version 4.2
vtk output
ASCII
DATASET POLYDATA
POINTS 1392 float
-23.0314 -13.6273 17.8012 -23.4626 -13.1621 17.4356 -23.7823 -13.8297 17.4771 
-22.0782 -13.6154 17.8827 -22.6314 -12.9801 17.5146 -21.0675 -13.638 17.8699 
-21.6248 -12.9652 17.523 -20.0746 -13.6343 17.8692 -20.6083 -12.9952 17.5055 
-19.0711 -13.6136 17.8969 -19.5771 -13.0022 17.4979 -18.0525 -13.6455 17.93 
-18.5304 -12.9892 17.5312 -17.3086 -13.7619 17.7794 -17.5909 -13.0699 17.5368 
-16.9987 -13.3301 17.2334 -23.2 -14.4251 17.7916 -23.6762 -14.5916 17.3956 
-22.3473 -14.4565 18.0169 -21.3426 -14.4931 18.0279 -20.3397 -14.4968 18.003 
-19.3481 -14.484 18.0087 -18.3268 -14.4885 18.0418 -17.2416 -14.5953 17.9329 
-16.8174 -14.3218 17.2537 -23.156 -15.0899 17.5381 -22.86 -15.8545 17.4704 
-22.3941 -15.4397 17.8798 -21.3687 -15.4813 18.0218 -20.3568 -15.5047 17.9992 
-19.3596 -15.5006 17.9852 -18.3579 -15.491 18.0081 -17.3034 -15.5108 18.0528 
-16.4061 -14.9753 17.533 -16.1585 -15.5825 17.9515 -15.2624 -15.7934 17.7893 
-15.6165 -15.123 17.3426 -14.9527 -15.3106 17.2294 -22.3052 -16.6337 17.8618 
-22.9449 -16.5944 17.541 -21.3327 -16.492 17.9861 -20.3114 -16.5208 17.984 
-19.2998 -16.5339 17.9668 -18.2868 -16.5345 17.9759 -17.2566 -16.5414 18.0252 
-16.2157 -16.5782 18.071 -15.3422 -16.5893 17.9354 -14.8577 -16.2651 17.4078 
-23.9894 -17.633 17.775 -24.3783 -17.2034 17.3902 -24.7382 -17.8477 17.4716 
-23.0381 -17.4327 17.874 -23.612 -16.9421 17.464 -22.1669 -17.6507 17.987 
-21.3192 -17.5117 17.9871 -20.287 -17.5241 17.9875 -19.2531 -17.5563 17.9872 
-18.2391 -17.5606 18.0002 -17.233 -17.5892 18.0207 -16.2153 -17.6352 18.0452 
-15.3474 -17.6171 17.9339 -14.8611 -17.3268 17.4207 -24.2013 -18.5104 17.852 
-24.8323 -18.7723 17.4799 -23.3346 -18.4569 18.0029 -22.3416 -18.4942 18.0073 
-21.3205 -18.5271 17.9985 -20.2851 -18.5309 17.9985 -19.2678 -18.5722 18.0082 
-18.2559 -18.5867 18.0223 -17.4012 -18.4435 18.0337 -16.5338 -18.6709 17.9159 
-15.5768 -18.5095 17.8499 -15.0205 -18.2857 17.4778 -24.316 -19.6145 17.8687 
-24.9768 -19.5681 17.5467 -23.3461 -19.4783 18.0106 -22.327 -19.5131 18.0259 
-21.2829 -19.555 18.0199 -20.2502 -19.5687 18.0187 -19.4201 -19.4279 18.016 
-18.5446 -19.6551 17.9011 -17.4573 -19.3687 17.8221 -16.8008 -19.2962 17.3681 
-16.1443 -18.9012 17.4529 -15.5016 -18.7536 17.4514 -26.1434 -20.7431 17.82 
-26.3837 -20.1902 17.4021 -26.8946 -20.6753 17.5972 -25.0415 -20.4345 17.8616 
-25.64 -19.9366 17.4589 -24.1433 -20.6602 17.994 -23.3094 -20.5138 18.0167 
-22.3017 -20.5314 18.0283 -21.279 -20.5754 18.0372 -20.2551 -20.6032 18.0461 
-19.2794 -20.4834 17.9256 -18.7081 -20.5092 17.5275 -18.0777 -20.0771 17.2524 
-17.3175 -19.7734 17.214 -28.0984 -21.6398 17.807 -28.4903 -21.2401 17.4765 
-28.8262 -21.6583 17.4202 -27.0861 -21.4726 17.9416 -27.665 -20.9741 17.5607 
-26.177 -21.6787 18.0435 -25.3119 -21.5017 18.0124 -24.2907 -21.5108 18.0138 
-23.2761 -21.5307 18.0282 -22.442 -21.3786 18.0266 -21.5575 -21.5977 17.9167 
-20.5278 -21.4502 17.9073 -19.5932 -21.4484 17.8399 -18.9916 -21.2495 17.3958 
-28.4074 -22.0817 17.4425 -27.7888 -22.5351 17.1744 -27.5626 -22.26 17.8497 
-26.4571 -22.5166 17.9567 -25.3311 -22.5503 18.063 -24.2856 -22.544 18.0485 
-23.2652 -22.5696 18.0318 -22.2778 -22.4447 17.9079 -21.6935 -22.4608 17.5084 
-21.0346 -22.0433 17.3065 -19.9833 -21.9433 17.4052 -19.2687 -21.8515 17.2719 
-27.0057 -22.8072 17.406 -26.2416 -23.1312 17.5612 -25.8319 -23.6916 17.4142 
-25.4061 -23.5319 17.9618 -24.3063 -23.5907 18.0731 -23.4217 -23.4479 18.0508 
-22.5804 -23.6684 17.8646 -21.9419 -23.4074 17.2662 -25.3489 -24.3519 17.8371 
-25.6223 -24.4212 17.2129 -24.5909 -24.4881 17.967 -23.4417 -24.4046 17.9033 
-22.6483 -24.5215 17.6361 -22.1765 -24.2235 17.3778 -25.0243 -24.9198 17.4769 
-24.0507 -25.0266 17.4453 -23.0482 -24.9634 17.2913 -23.1069 -11.7349 16.8111 
-23.3822 -11.1839 16.1594 -23.888 -11.6624 16.5645 -22.0211 -11.6444 16.8669 
-22.3337 -11.1406 16.3605 -21.1058 -11.7726 16.777 -21.5662 -11.2393 16.4855 
-20.8311 -11.3205 16.2977 -26.1912 -12.7154 16.8421 -26.258 -12.0734 16.5368 
-26.8391 -12.4677 16.526 -25.1087 -12.5993 16.8528 -25.5893 -11.995 16.5084 
-24.1224 -12.2898 16.8706 -24.6456 -11.9103 16.5174 -23.3493 -12.5877 17.1456 
-22.3348 -12.3345 17.1629 -21.3089 -12.3517 17.1408 -20.3844 -11.8725 16.5394 
-20.205 -12.4121 16.9813 -19.0191 -12.5171 16.9686 -19.5649 -12.0286 16.4802 
-17.9876 -12.5109 16.9986 -18.5556 -12.0005 16.4653 -17.2623 -12.6536 17.0025 
-17.5955 -12.0614 16.4852 -16.9261 -12.5739 16.5502 -27.0474 -13.4472 16.8437 
-27.543 -13.0492 16.4559 -27.8076 -13.8335 16.4932 -26.2181 -13.6686 17.0109 
-25.3595 -13.5093 16.9942 -24.2956 -13.209 17.1122 -16.7062 -13.5377 16.5618 
-27.2004 -14.4391 16.7853 -27.6768 -14.6013 16.4008 -26.3507 -14.4955 16.9967 
-25.344 -14.5501 16.9812 -24.348 -14.4058 17.0801 -16.586 -14.3067 16.4287 
-15.2223 -14.6823 16.8515 -15.4458 -14.2483 16.3452 -15.7188 -14.623 16.6085 
-14.9013 -14.5477 16.5294 -27.1443 -15.0957 16.5394 -26.8688 -15.8691 16.4805 
-26.3703 -15.4741 16.859 -25.3014 -15.5583 16.9609 -24.2718 -15.5406 16.9453 
-23.5353 -15.3359 17.1454 -16.2578 -14.7752 16.7993 -14.6063 -15.4775 16.6646 
-26.2819 -16.6441 16.8482 -26.9461 -16.6261 16.5317 -25.4459 -16.3608 16.9689 
-24.3881 -16.5319 17.0692 -23.4141 -16.2139 17.1498 -14.5872 -16.5679 16.6694 
-26.9396 -17.5031 16.7722 -27.4432 -17.0991 16.3985 -27.7112 -17.8671 16.4599 
-26.1239 -17.6619 16.9602 -25.2473 -17.2518 17.0906 -14.7242 -17.7626 16.4673 
-27.1381 -18.5714 16.7956 -27.7977 -18.8171 16.4594 -26.2846 -18.5001 16.9599 
-25.4434 -18.254 17.1175 -15.9562 -18.5442 16.9256 -16.5036 -18.7858 16.7538 
-16.0603 -18.3357 16.3813 -15.4283 -18.2285 16.4088 -15.289 -18.4199 17.0145 
-27.3846 -19.5487 16.8261 -27.9676 -19.6365 16.5481 -26.4099 -19.5007 17.0692 
-25.472 -19.171 17.1792 -16.8245 -19.3828 16.6264 -29.138 -20.5847 16.7794 
-29.4859 -20.165 16.3269 -29.6541 -20.795 16.5098 -28.1984 -20.4914 17.0099 
-28.6579 -19.9913 16.5088 -27.113 -20.2584 17.1984 -18.598 -20.7269 16.8311 
-18.0714 -20.2941 16.4899 -17.3917 -19.9389 16.5796 -29.2021 -21.2204 16.9854 
-29.6085 -21.262 16.2676 -18.7531 -21.6379 16.4284 -29.0586 -21.8114 16.6835 
-28.3839 -22.2348 16.7084 -27.8252 -22.5443 16.1992 -21.6343 -22.7511 16.6568 
-21.0978 -22.2514 16.4943 -20.2787 -22.1801 16.6458 -19.389 -22.1588 16.6061 
-27.1338 -22.8721 16.4598 -26.4117 -23.1559 16.8017 -25.9383 -23.6906 16.511 
-21.8189 -23.5274 16.4899 -25.7064 -24.4321 16.2474 -22.3783 -24.729 17.1175 
-21.9617 -24.2479 16.5287 -25.2293 -24.952 16.5676 -24.3415 -25.1549 16.5908 
-23.2877 -25.1586 16.5082 -22.4192 -24.9303 16.408 -20.1788 -10.7582 15.8251 
-20.3474 -10.2214 15.1018 -20.788 -10.5242 15.4738 -19.0128 -10.6445 15.8495 
-19.2802 -10.1784 15.317 -18.1023 -10.7404 15.7801 -18.365 -10.224 15.3308 
-17.725 -10.4348 15.311 -26.232 -11.6753 16.0198 -26.5093 -11.2037 15.2196 
-26.9121 -11.6349 15.59 -25.0721 -11.4702 16.0333 -25.6027 -10.9894 15.3299 
-24.226 -11.4261 16.1841 -24.3958 -10.9857 15.6199 -23.4597 -10.8554 15.4949 
-22.5634 -10.8711 15.6151 -21.4262 -10.8376 15.7574 -20.0928 -11.5133 16.2175 
-19.3149 -11.3801 16.1257 -18.3152 -11.3465 16.1134 -17.3854 -10.8191 15.5547 
-17.1776 -11.5243 15.9944 -16.0387 -11.6354 15.8873 -16.536 -10.9755 15.5161 
-15.2897 -11.734 15.7854 -15.5958 -11.0827 15.5368 -14.9919 -11.3089 15.2623 
-29.1929 -12.7104 15.8773 -29.2314 -12.174 15.2306 -29.92 -12.6031 15.5615 
-28.2131 -12.4583 15.8712 -28.5294 -12.1407 15.5056 -27.3532 -12.3457 16.0316 
-27.6701 -11.9019 15.3746 -16.3048 -12.6335 16.0918 -15.2262 -12.5642 15.8974 
-14.8013 -12.2846 15.3221 -30.0648 -13.4524 15.8764 -30.6078 -12.9953 15.1984 
-30.8738 -13.8036 15.543 -29.1942 -13.6447 16.0453 -28.3081 -13.2219 16.1444 
-16.3386 -13.6962 16.08 -15.3675 -13.6492 16.0533 -14.4628 -13.0286 15.5429 
-14.2047 -13.6286 15.8523 -13.8526 -13.5627 15.1969 -30.2385 -14.4604 15.8434 
-30.8252 -14.4226 15.5466 -29.3229 -14.5272 16.0078 -28.3495 -14.4209 16.1179 
-16.0682 -14.2739 16.1794 -14.2579 -14.6188 16.1278 -13.3778 -14.0469 15.5161 
-13.3839 -14.5633 15.8286 -12.9519 -14.521 15.3098 -30.492 -15.0404 15.4257 
-29.8979 -15.8949 15.5077 -29.3671 -15.5151 15.8814 -28.3173 -15.5284 15.9846 
-27.5522 -15.3414 16.1689 -14.2422 -15.7104 16.1924 -13.6179 -15.5798 15.817 
-12.9712 -15.1547 15.3512 -29.134 -16.5567 15.8506 -29.7868 -16.8331 15.338 
-28.4126 -16.3652 15.9783 -27.5255 -16.362 16.1461 -14.1722 -16.6928 15.9945 
-13.742 -16.4763 15.4674 -13.3023 -15.9262 15.1454 -29.1379 -17.5235 15.8346 
-29.6683 -17.7303 15.4871 -28.2302 -17.2262 16.0959 -14.3126 -17.4807 15.8459 
-14.0319 -17.2148 15.3514 -29.2914 -18.6298 15.8891 -29.9799 -18.4692 15.4479 
-28.4289 -18.2578 16.1193 -16.1796 -18.8406 16.176 -15.4506 -18.5989 15.9564 
-14.8672 -18.3991 15.6952 -14.378 -17.9435 15.2952 -30.0152 -19.4946 15.807 
-30.4262 -18.937 15.3425 -30.6087 -19.4762 15.1698 -29.1714 -19.5485 16.1706 
-28.4501 -19.208 16.2073 -16.521 -19.7022 16.1186 -15.6084 -19.5696 15.8056 
-14.9762 -19.1673 15.3603 -30.3682 -19.929 15.4367 -29.8932 -20.5016 15.5637 
-18.1866 -20.8886 16.191 -17.3344 -20.4006 16.1041 -16.3948 -20.5918 15.8222 
-15.7304 -20.4107 15.5227 -15.25 -19.9662 15.18 -29.4413 -21.1886 15.5121 
-29.1959 -21.6153 15.8996 -28.8748 -21.7126 15.1164 -18.2288 -21.4815 15.9703 
-17.4765 -21.3187 15.8148 -16.7693 -21.4304 15.5001 -16.2368 -21.0319 15.2189 
-28.4992 -22.1096 15.833 -27.9006 -22.5173 15.5498 -21.3542 -22.645 15.9552 
-20.5953 -22.4914 15.9541 -19.655 -22.5323 15.9478 -19.0084 -22.3764 15.7772 
-18.2994 -22.0234 15.3591 -17.304 -21.8482 15.2806 -27.3426 -22.9649 15.3931 
-26.4143 -23.2238 15.8358 -26.0029 -23.8619 15.6346 -21.7078 -23.4673 15.724 
-21.0798 -22.9922 15.2177 -20.1579 -22.827 15.4408 -19.5534 -22.7764 15.2524 
-25.8971 -24.5402 15.4408 -21.9422 -24.4324 15.4288 -25.3479 -24.9623 15.4256 
-24.3816 -25.1113 15.548 -23.3365 -25.1297 15.4855 -22.4431 -24.9811 15.4216 
-24.995 -10.5298 14.9192 -25.2226 -10.2412 14.1493 -25.683 -10.5817 14.5568 
[...]
CELL_DATA 2780
SCALARS scalars float
LOOKUP_TABLE default
54 54 54 54 54 54 54 54 54 
54 54 54 54 54 54 54 54 54 
54 54 54 54 54 54 54 54 54 
54 54 54 54 54 54 54 54 54 
54 54 54 54 54 54 54 54 54 
54 54 54 54 54 54 54 54 54 
54 54 54 54 54 54 54 54 54 
54 54 54 54 54 54 54 54 54 
54 54 54 54 54 54 54 54 54 
54 54 54 54 54 54 54 54 54 
54 54 54 54 54 54 54 54 54 
54 54 54 54 54 54 54 54 54 
54 54 54 54 54 54 54 54 54 
54 54 54 54 54 54 54 54 54 
54 54 54 54 54 54 54 54 54 
54 54 54 54 54 54 54 54 54 
54 54 54 54 54 54 54 54 54 
54 54 54 54 54 54 54 54 54 
54 54 54 54 54 54 54 54 54 
54 54 54 54 54 54 54 54 54 
54 54 54 54 54 54 54 54 54 
54 54 54 54 54 54 54 54 54 
54 54 54 54 54 54 54 54 54 
54 54 54 54 54 54 54 54 54 
54 54 54 54 54 54 54 54 54 
54 54 54 54 54 54 54 54 54 
54 54 54 54 54 54 54 54 54 
54 54 54 54 54 54 54 54 54 
54 54 54 54 54 54 54 54 54 
54 54 54 54 54 54 54 54 54 
54 54 54 54 54 54 54 54 54 
54 54 54 54 54 54 54 54 54 
54 54 54 54 54 54 54 54 54 
54 54 54 54 54 54 54 54 54 
54 54 54 54 54 54 54 54 54 
54 54 54 54 54 54 54 54 54 
54 54 54 54 54 54 54 54 54 
54 54 54 54 54 54 54 54 54 
54 54 54 54 54 54 54 54 54 
54 54 54 54 54 54 54 54 54 
54 54 54 54 54 54 54 54 54 
54 54 54 54 54 54 54 54 54 
54 54 54 54 54 54 54 54 54 
54 54 54 54 54 54 54 54 54 
54 54 54 54 54 54 54 54 54 
54 54 54 54 54 54 54 54 54 
54 54 54 54 54 54 54 54 54 
54 54 54 54 54 54 54 54 54 
54 54 54 54 54 54 54 54 54 
54 54 54 54 54 54 54 54 54 
54 54 54 54 54 54 54 54 54 
54 54 54 54 54 54 54 54 54 
54 54 54 54 54 54 54 54 54 
54 54 54 54 54 54 54 54 54 
54 54 54 54 54 54 54 54 54 
54 54 54 54 54 54 54 54 54 
54 54 54 54 54 54 54 54 54 
54 54 54 54 54 54 54 54 54 
54 54 54 54 54 54 54 54 54 
54 54 54 54 54 54 54 54 54 
54 54 54 54 54 54 54 54 54 
54 54 54 54 54 54 54 54 54 
54 54 54 54 54 54 54 54 54 
54 54 54 54 54 54 54 54 54 
54 54 54 54 54 54 54 54 54 
54 54 54 54 54 54 54 54 54 
54 54 54 54 54 54 54 54 54 
54 54 54 54 54 54 54 54 54 
54 54 54 54 54 54 54 54 54 
54 54 54 54 54 54 54 54 54 
54 54 54 54 54 54 54 54 54 
54 54 54 54 54 54 54 54 54 
54 54 54 54 54 54 54 54 54 
54 54 54 54 54 54 54 54 54 
54 54 54 54 54 54 54 54 54 
54 54 54 54 54 54 54 54 54 
54 54 54 54 54 54 54 54 54 
54 54 54 54 54 54 54 54 54 
54 54 54 54 54 54 54 54 54 
54 54 54 54 54 54 54 54 54 
54 54 54 54 54 54 54 54 54 
54 54 54 54 54 54 54 54 54 
54 54 54 54 54 54 54 54 54 
54 54 54 54 54 54 54 54 54 
54 54 54 54 54 54 54 54 54 
54 54 54 54 54 54 54 54 54 
54 54 54 54 54 54 54 54 54 
54 54 54 54 54 54 54 54 54 
54 54 54 54 54 54 54 54 54 
54 54 54 54 54 54 54 54 54 
54 54 54 54 54 54 54 54 54 
54 54 54 54 54 54 54 54 54 
54 54 54 54 54 54 54 54 54 
54 54 54 54 54 54 54 54 54 
54 54 54 54 54 54 54 54 54 
54 54 54 54 54 54 54 54 54 
54 54 54 54 54 54 54 54 54 
54 54 54 54 54 54 54 54 54 
54 54 54 54 54 54 54 54 54 
54 54 54 54 54 54 54 54 54 
54 54 54 54 54 54 54 54 54 
54 54 54 54 54 54 54 54 54 
54 54 54 54 54 54 54 54 54 
54 54 54 54 54 54 54 54 54 
54 54 54 54 54 54 54 54 54 
54 54 54 54 54 54 54 54 54 
54 54 54 54 54 54 54 54 54 
54 54 54 54 54 54 54 54 54 
54 54 54 54 54 54 54 54 54 
54 54 54 54 54 54 54 54 54 
54 54 54 54 54 54 54 54 54 
54 54 54 54 54 54 54 54 54 
54 54 54 54 54 54 54 54 54 
54 54 54 54 54 54 54 54 54 
54 54 54 54 54 54 54 54 54 
54 54 54 54 54 54 54 54 54 
54 54 54 54 54 54 54 54 54 
54 54 54 54 54 54 54 54 54 
54 54 54 54 54 54 54 54 54 
54 54 54 54 54 54 54 54 54 
54 54 54 54 54 54 54 54 54 
54 54 54 54 54 54 54 54 54 
54 54 54 54 54 54 54 54 54 
54 54 54 54 54 54 54 54 54 
54 54 54 54 54 54 54 54 54 
54 54 54 54 54 54 54 54 54 
54 54 54 54 54 54 54 54 54 
54 54 54 54 54 54 54 54 54 
54 54 54 54 54 54 54 54 54 
54 54 54 54 54 54 54 54 54 
54 54 54 54 54 54 54 54 54 
54 54 54 54 54 54 54 54 54 
54 54 54 54 54 54 54 54 54 
54 54 54 54 54 54 54 54 54 
54 54 54 54 54 54 54 54 54 
54 54 54 54 54 54 54 54 54 
54 54 54 54 54 54 54 54 54 
54 54 54 54 54 54 54 54 54 
54 54 54 54 54 54 54 54 54 
54 54 54 54 54 54 54 54 54 
54 54 54 54 54 54 54 54 54 
54 54 54 54 54 54 54 54 54 
54 54 54 54 54 54 54 54 54 
54 54 54 54 54 54 54 54 54 
54 54 54 54 54 54 54 54 54 
54 54 54 54 54 54 54 54 54 
54 54 54 54 54 54 54 54 54 
54 54 54 54 54 54 54 54 54 
54 54 54 54 54 54 54 54 54 
54 54 54 54 54 54 54 54 54 
54 54 54 54 54 54 54 54 54 
54 54 54 54 54 54 54 54 54 
54 54 54 54 54 54 54 54 54 
54 54 54 54 54 54 54 54 54 
54 54 54 54 54 54 54 54 54 
54 54 54 54 54 54 54 54 54 
54 54 54 54 54 54 54 54 54 
54 54 54 54 54 54 54 54 54 
54 54 54 54 54 54 54 54 54 
54 54 54 54 54 54 54 54 54 
54 54 54 54 54 54 54 54 54 
54 54 54 54 54 54 54 54 54 
54 54 54 54 54 54 54 54 54 
54 54 54 54 54 54 54 54 54 
54 54 54 54 54 54 54 54 54 
54 54 54 54 54 54 54 54 54 
54 54 54 54 54 54 54 54 54 
54 54 54 54 54 54 54 54 54 
54 54 54 54 54 54 54 54 54 
54 54 54 54 54 54 54 54 54 
54 54 54 54 54 54 54 54 54 
54 54 54 54 54 54 54 54 54 
54 54 54 54 54 54 54 54 54 
54 54 54 54 54 54 54 54 54 
54 54 54 54 54 54 54 54 54 
54 54 54 54 54 54 54 54 54 
54 54 54 54 54 54 54 54 54 
54 54 54 54 54 54 54 54 54 
54 54 54 54 54 54 54 54 54 
54 54 54 54 54 54 54 54 54 
54 54 54 54 54 54 54 54 54 
54 54 54 54 54 54 54 54 54 
54 54 54 54 54 54 54 54 54 
54 54 54 54 54 54 54 54 54 
54 54 54 54 54 54 54 54 54 
54 54 54 54 54 54 54 54 54 
54 54 54 54 54 54 54 54 54 
54 54 54 54 54 54 54 54 54 
54 54 54 54 54 54 54 54 54 
54 54 54 54 54 54 54 54 54 
54 54 54 54 54 54 54 54 54 
54 54 54 54 54 54 54 54 54 
54 54 54 54 54 54 54 54 54 
54 54 54 54 54 54 54 54 54 
54 54 54 54 54 54 54 54 54 
54 54 54 54 54 54 54 54 54 
54 54 54 54 54 54 54 54 54 
54 54 54 54 54 54 54 54 54 
54 54 54 54 54 54 54 54 54 
54 54 54 54 54 54 54 54 54 
54 54 54 54 54 54 54 54 54 
54 54 54 54 54 54 54 54 54 
54 54 54 54 54 54 54 54 54 
54 54 54 54 54 54 54 54 54 
54 54 54 54 54 54 54 54 54 
54 54 54 54 54 54 54 54 54 
54 54 54 54 54 54 54 54 54 
54 54 54 54 54 54 54 54 54 
54 54 54 54 54 54 54 54 54 
54 54 54 54 54 54 54 54 54 
54 54 54 54 54 54 54 54 54 
54 54 54 54 54 54 54 54 54 
54 54 54 54 54 54 54 54 54 
54 54 54 54 54 54 54 54 54 
54 54 54 54 54 54 54 54 54 
54 54 54 54 54 54 54 54 54 
54 54 54 54 54 54 54 54 54 
54 54 54 54 54 54 54 54 54 
54 54 54 54 54 54 54 54 54 
54 54 54 54 54 54 54 54 54 
54 54 54 54 54 54 54 54 54 
54 54 54 54 54 54 54 54 54 
54 54 54 54 54 54 54 54 54 
54 54 54 54 54 54 54 54 54 
54 54 54 54 54 54 54 54 54 
54 54 54 54 54 54 54 54 54 
54 54 54 54 54 54 54 54 54 
54 54 54 54 54 54 54 54 54 
54 54 54 54 54 54 54 54 54 
54 54 54 54 54 54 54 54 54 
54 54 54 54 54 54 54 54 54 
54 54 54 54 54 54 54 54 54 
54 54 54 54 54 54 54 54 54 
54 54 54 54 54 54 54 54 54 
54 54 54 54 54 54 54 54 54 
54 54 54 54 54 54 54 54 54 
54 54 54 54 54 54 54 54 54 
54 54 54 54 54 54 54 54 54 
54 54 54 54 54 54 54 54 54 
54 54 54 54 54 54 54 54 54 
54 54 54 54 54 54 54 54 54 
54 54 54 54 54 54 54 54 54 
54 54 54 54 54 54 54 54 54 
54 54 54 54 54 54 54 54 54 
54 54 54 54 54 54 54 54 54 
54 54 54 54 54 54 54 54 54 
54 54 54 54 54 54 54 54 54 
54 54 54 54 54 54 54 54 54 
54 54 54 54 54 54 54 54 54 
54 54 54 54 54 54 54 54 54 
54 54 54 54 54 54 54 54 54 
54 54 54 54 54 54 54 54 54 
54 54 54 54 54 54 54 54 54 
54 54 54 54 54 54 54 54 54 
54 54 54 54 54 54 54 54 54 
54 54 54 54 54 54 54 54 54 
54 54 54 54 54 54 54 54 54 
54 54 54 54 54 54 54 54 54 
54 54 54 54 54 54 54 54 54 
54 54 54 54 54 54 54 54 54 
54 54 54 54 54 54 54 54 54 
54 54 54 54 54 54 54 54 54 
54 54 54 54 54 54 54 54 54 
54 54 54 54 54 54 54 54 54 
54 54 54 54 54 54 54 54 54 
54 54 54 54 54 54 54 54 54 
54 54 54 54 54 54 54 54 54 
54 54 54 54 54 54 54 54 54 
54 54 54 54 54 54 54 54 54 
54 54 54 54 54 54 54 54 54 
54 54 54 54 54 54 54 54 54 
54 54 54 54 54 54 54 54 54 
54 54 54 54 54 54 54 54 54 
54 54 54 54 54 54 54 54 54 
54 54 54 54 54 54 54 54 54 
54 54 54 54 54 54 54 54 54 
54 54 54 54 54 54 54 54 54 
54 54 54 54 54 54 54 54 54 
54 54 54 54 54 54 54 54 54 
54 54 54 54 54 54 54 54 54 
54 54 54 54 54 54 54 54 54 
54 54 54 54 54 54 54 54 54 
54 54 54 54 54 54 54 54 54 
54 54 54 54 54 54 54 54 54 
54 54 54 54 54 54 54 54 54 
54 54 54 54 54 54 54 54 54 
54 54 54 54 54 54 54 54 54 
54 54 54 54 54 54 54 54 54 
54 54 54 54 54 54 54 54 54 
54 54 54 54 54 54 54 54 54 
54 54 54 54 54 54 54 54 54 
54 54 54 54 54 54 54 54 54 
54 54 54 54 54 54 54 54 54 
54 54 54 54 54 54 54 54 54 
54 54 54 54 54 54 54 54 54 
54 54 54 54 54 54 54 54 54 
54 54 54 54 54 54 54 54 54 
54 54 54 54 54 54 54 54 54 
54 54 54 54 54 54 54 54 54 
54 54 54 54 54 54 54 54 54 
54 54 54 54 54 54 54 54 54 
54 54 54 54 54 54 54 54 54 
54 54 54 54 54 54 54 54 54 
54 54 54 54 54 54 54 54 54 
54 54 54 54 54 54 54 54 54 
54 54 54 54 54 54 54 54 54 
54 54 54 54 54 54 54 54 54 
54 54 54 54 54 54 54 54 54 
54 54 54 54 54 54 54 54 
