# vtk DataFile Version 4.2
vtk output
ASCII
DATASET POLYDATA
POINTS 1520 float
-16.0141 2.37377 27.926 -16.2271 2.83786 27.2811 -16.6248 2.31007 27.5791 
-15.3147 2.30926 27.8664 -15.5634 2.79119 27.6052 -15.0599 2.52626 27.3469 
-16.2345 1.56663 27.9068 -16.663 1.66341 27.24 -15.4583 1.52094 27.976 
-14.781 1.77968 27.3707 -16.1965 0.983691 27.5791 -15.8264 0.273 27.4249 
-15.5304 0.531544 27.8643 -14.7965 0.738467 27.6006 -15.3923 -0.32435 27.7103 
-15.6497 -0.657023 27.1874 -14.8743 -0.23349 27.6014 -15.1357 -0.823349 27.4846 
-16.2196 3.11369 26.3422 -16.7471 2.54443 26.6125 -15.4831 2.87821 26.8162 
-14.804 2.38858 26.3922 -16.7222 1.44773 26.2129 -14.2153 1.85949 26.4225 
-14.0628 1.13002 26.9818 -13.6684 1.53526 26.3646 -16.3223 0.918195 26.8658 
-16.0109 0.103127 26.6674 -14.1189 0.128152 27.2216 -13.3788 1.04636 26.5962 
-13.377 0.368215 26.8431 -12.9577 0.673022 26.2599 -16.0071 -0.728532 26.4978 
-14.3271 -0.904653 27.2186 -13.3867 -0.619903 26.9294 -12.9085 -0.281947 26.3665 
-15.1657 -1.32433 27.0435 -15.8411 -1.41144 26.5105 -14.2872 -1.74569 26.9388 
-13.4251 -1.63206 26.9311 -12.9026 -1.31414 26.3963 -15.1427 -1.89803 26.3209 
-14.2016 -2.1817 26.564 -13.7139 -2.59463 26.2341 -13.5304 -2.35333 26.7898 
-12.9811 -2.2663 26.4292 -13.204 -2.76682 26.299 -16.2335 4.31678 25.6697 
-16.3866 4.69619 25.2698 -16.5561 4.28444 25.5116 -16.0528 4.54389 25.2516 
-16.2348 3.68155 25.8029 -16.7125 3.47952 25.5829 -15.7552 3.84372 25.3173 
-16.9266 2.41043 25.4665 -15.3181 3.0612 25.5641 -14.6068 2.54793 25.3668 
-16.9586 1.34154 25.4575 -14.2825 2.21624 25.6907 -13.1902 1.35221 26.0919 
-13.5951 1.94141 25.6508 -12.9556 1.53235 25.3642 -16.3796 0.573072 26.1758 
-16.7992 0.376473 25.5591 -12.7947 0.48567 25.4762 -16.3336 -0.291297 25.9858 
-16.8218 -0.829996 25.2497 -12.676 -0.498599 25.4405 -16.3536 -1.2291 25.8913 
-16.5929 -1.58839 25.2096 -12.6254 -1.61469 25.669 -16.0665 -1.84863 25.6632 
-15.3332 -2.18021 25.3664 -14.4505 -2.28124 25.8646 -13.953 -2.65068 25.4788 
-12.778 -2.48904 25.6994 -13.2079 -2.89704 25.3866 -16.3844 4.85689 24.6392 
-16.816 4.31299 24.7454 -15.7933 4.51819 24.6479 -17.0151 3.31044 24.7172 
-15.364 3.87155 24.6427 -15.3157 3.43743 24.9641 -14.9372 3.47771 24.5376 
-17.194 2.5599 24.7566 -17.4366 2.88802 24.3525 -17.7012 2.1294 24.4394 
-13.95 2.47732 25.007 -14.2869 2.94797 24.5488 -13.296 2.31365 24.9377 
-13.5049 2.71751 24.4332 -12.9919 2.35478 24.3764 -17.2713 1.73642 24.9415 
-17.8227 1.1785 24.4802 -12.6763 1.55901 24.4003 -17.2945 0.726273 24.9659 
-17.8105 0.179044 24.4534 -12.6078 0.55086 24.6041 -17.2896 -0.239503 24.8661 
-17.6352 -0.64255 24.3754 -12.3329 -0.0148097 24.6307 -12.0464 -0.824981 24.997 
-11.2548 -0.790597 24.7598 -11.6377 -0.0793303 24.4855 -10.951 -0.315617 24.2618 
-17.2318 -0.992982 24.5874 -16.8303 -1.59901 24.5829 -12.142 -1.89959 25.179 
-11.3678 -1.59834 24.8933 -10.8372 -1.3153 24.4138 -16.1462 -2.12183 24.783 
-15.3896 -2.46036 24.7734 -15.7899 -2.53035 24.4429 -14.6408 -2.54527 25.0619 
-12.3798 -2.62722 25.1352 -11.5958 -2.48824 24.8354 -10.9321 -2.27609 24.409 
-15.223 -2.94868 24.3353 -13.9884 -3.06371 24.5142 -13.0869 -3.09297 24.3634 
-12.1617 -3.00783 24.5264 -11.2416 -2.8964 24.294 -17.2474 6.18682 23.8022 
-17.4519 6.67271 23.3291 -17.8835 6.34723 23.5641 -16.9016 6.52519 23.1731 
-18.0252 5.5764 23.8661 -18.3697 5.9452 23.2331 -18.5944 5.23565 23.5173 
-17.3364 5.57112 24.024 -16.2864 6.1019 23.4106 -16.2521 5.39266 24.0281 
-15.0713 5.21244 23.821 -15.5323 5.76926 23.5189 -14.8454 5.4972 23.2034 
-18.2258 4.50574 23.8715 -18.7034 4.45147 23.385 -17.2842 4.85294 24.128 
-15.1544 4.39483 24.1655 -14.4301 4.97253 23.5151 -14.4041 4.4156 23.7956 
-14.0094 4.48398 23.279 -18.4641 3.48357 23.8532 -18.887 3.53998 23.3449 
-17.5738 3.67937 24.1493 -14.2821 3.60887 23.9642 -13.7135 3.80844 23.3059 
-18.9845 2.53689 23.8111 -19.3101 2.89298 23.1412 -19.5688 2.21669 23.4571 
-18.1232 2.6616 24.106 -13.2961 3.05978 23.5487 -12.6507 2.44076 23.5316 
-19.219 1.50681 23.8604 -19.7012 1.44423 23.3521 -18.4567 1.71667 24.1342 
-12.1392 2.03143 23.4723 -12.0507 1.28889 23.9671 -11.2557 1.27785 23.7313 
-11.511 1.78908 23.4655 -10.9901 1.52544 23.2469 -19.2034 0.500255 23.8378 
-19.8235 0.352812 23.3786 -18.5028 0.711902 24.127 -12.104 0.517189 24.2276 
-11.4046 0.584603 24.0556 -10.8256 0.622049 23.4872 -19.1464 -0.577984 23.8681 
-19.8183 -0.81908 23.5485 -18.3048 -0.459117 24.1012 -10.6986 -0.552087 23.5414 
-19.1423 -1.5238 23.8369 -19.7157 -1.49995 23.5632 -18.2921 -1.56412 24.0103 
-17.4298 -1.51419 24.152 -10.7091 -1.62585 23.5602 -19.4369 -2.09053 23.4491 
-18.8946 -2.65169 23.3847 -18.5023 -2.33104 23.8171 -17.5756 -2.43603 23.8549 
-16.4858 -2.47202 24.0848 -10.8469 -2.52742 23.5333 -18.2072 -2.88439 23.3927 
-17.1958 -3.09762 23.3991 -16.0776 -3.2321 23.7072 -15.3134 -3.53754 23.8426 
-15.8618 -3.7046 23.3672 -14.5607 -3.57916 23.9173 -13.9206 -3.51364 23.605 
-13.2752 -3.20164 23.3985 -12.2678 -3.11669 23.5239 -11.3645 -3.01735 23.5317 
-15.1392 -3.93716 23.2532 -14.2885 -3.85945 23.2741 -17.1423 6.79162 22.5082 
-17.9245 6.64994 22.658 -16.6233 6.60813 22.3998 -18.4327 6.19266 22.4364 
-18.6894 5.47804 22.6179 -16.304 6.30964 22.754 -15.5191 6.02862 22.7475 
-14.7594 5.69046 22.1999 -18.8872 4.38224 22.517 -14.1538 4.98918 22.6255 
-13.6187 4.38599 22.567 -19.0551 3.49018 22.7145 -13.3082 3.88262 22.6216 
-13.2641 3.48518 22.9656 -12.868 3.56696 22.2724 -19.4572 2.97734 22.474 
-19.8225 2.23923 22.6981 -12.1182 2.43935 22.8752 -12.4796 2.85003 22.6602 
-11.8389 2.49787 22.1278 -20.0572 1.27363 22.7503 -11.432 2.04169 22.7415 
-10.8568 1.39469 22.4904 -21.0057 0.330698 22.811 -21.3358 0.963361 22.336 
-21.6359 0.389754 22.406 -20.3346 0.543985 22.9206 -20.6802 1.03719 22.4828 
-10.7125 0.476099 22.4792 -21.2436 -0.557713 22.9406 -21.7628 -0.544638 22.4239 
-20.4648 -0.28995 23.1716 -10.7188 -0.575115 22.5001 -21.3872 -1.33958 22.8054 
-21.6857 -1.4093 22.1863 -20.4522 -1.42589 23.1323 -10.7321 -1.62251 22.5025 
-21.0432 -1.88903 22.4243 -20.1397 -2.16263 22.6688 -19.4541 -2.51257 22.949 
-19.7437 -2.54774 22.1555 -10.8693 -2.49777 22.4969 -18.9522 -2.88049 22.5848 
-18.0923 -3.21354 22.7126 -17.4074 -3.52245 22.8253 -17.7551 -3.58011 22.1479 
-16.6477 -3.60835 23.0879 -13.8749 -3.57083 22.8287 -13.3458 -3.168 22.2049 
-12.2731 -3.08518 22.4829 -11.381 -2.97332 22.5058 -17.1223 -3.82838 22.493 
-16.3335 -3.89268 22.5267 -15.4845 -3.92303 22.5029 -14.6224 -3.87962 22.6374 
-18.2164 8.3163 21.7415 -18.3931 8.77067 21.3465 -18.5422 8.31256 21.5504 
-18.073 8.56682 21.3214 -18.1968 7.47386 21.8725 -18.6641 7.532 21.3712 
-17.8225 7.73815 21.3241 -18.4076 6.78264 21.9997 -18.6734 6.43598 21.5114 
-17.3331 7.03591 21.5897 -15.9509 6.50941 22.058 -16.3403 6.86683 21.5136 
-15.2795 6.32724 21.9651 -15.5068 6.73314 21.4509 -14.9703 6.36414 21.3721 
-18.8289 5.39998 21.5038 -14.5604 5.76245 21.2604 -19.2878 4.41112 21.82 
-19.4045 4.90528 21.1312 -19.8304 4.30083 21.5551 -14.12 5.20792 21.5671 
-13.1876 4.28525 22.034 -13.5184 4.77146 21.7087 -12.9773 4.36244 21.3667 
-20.1527 3.50845 21.8074 -20.478 3.89498 21.4774 -20.9338 3.3132 21.5582 
-19.3915 3.56048 22.1741 -12.6314 3.65745 21.1867 -20.9756 2.52364 21.7801 
-21.4505 3.04434 21.3311 -21.6567 2.37904 21.343 -20.0741 2.68566 22.0881 
-12.2888 2.99047 21.7138 -11.7656 2.50775 21.159 -21.2147 1.62222 21.9671 
-21.7396 1.41335 21.5714 -20.4656 1.80201 22.1888 -11.2439 2.01902 21.6968 
-10.8563 1.38391 21.4361 -21.86 0.475064 21.5403 -10.7395 0.523401 21.4069 
-21.861 -0.522388 21.5076 -10.7333 -0.497284 21.4354 -21.707 -1.39875 21.2178 
-10.7213 -1.54781 21.4407 -21.358 -1.91105 21.6804 -20.5669 -2.25318 21.6808 
-19.9903 -2.60569 21.3388 -10.8394 -2.43802 21.4429 -19.2587 -2.90577 21.3681 
-18.4279 -3.18968 21.7727 -17.8348 -3.56926 21.1854 -16.0424 -3.57259 21.9295 
-16.709 -3.64565 21.6197 -16.2649 -3.23024 21.172 -15.371 -3.14295 21.3676 
-15.0942 -3.55339 22.0151 -14.2152 -3.13003 21.4804 -14.2459 -3.48008 22.1733 
-13.1172 -3.04072 21.3042 -12.2327 -3.06158 21.4629 -11.3414 -2.9381 21.4711 
-17.2254 -3.82818 21.6031 -18.4901 8.87466 20.4889 -18.8261 8.36432 20.7416 
-17.9647 8.41779 20.541 -18.9374 7.2385 20.5699 -17.601 7.74243 20.3191 
-18.8774 6.18485 20.5715 -17.3063 7.224 20.7492 -16.4138 7.08678 20.498 
-15.4463 6.85244 20.7291 -14.7764 6.3859 20.3832 -18.9622 5.45442 20.6652 
-14.3505 5.82869 20.55 -14.1148 5.42643 20.8927 -13.8502 5.47831 20.1618 
-21.0642 4.49564 20.7689 -21.3141 4.7367 20.2397 -21.5828 4.26417 20.5041 
-20.3495 4.43045 21.145 -20.4405 4.9511 20.416 -19.4842 5.19646 20.4438 
-13.4595 4.99357 20.7722 -12.9017 4.37349 20.464 -21.1879 3.83248 21.0938 
-21.8706 3.36256 20.558 -12.6488 3.62369 20.1987 -21.9967 2.22272 20.6403 
-12.2784 3.02042 20.7168 -11.7761 2.50139 20.1524 -21.9721 1.24317 20.6184 
-11.2361 2.02663 20.6456 -10.8605 1.39032 20.3979 -21.9226 0.202909 20.4325 
-10.7355 0.513756 20.3929 -21.8171 -0.699981 20.5956 -10.7248 -0.515414 20.4224 
-21.6733 -1.60978 20.1504 -10.7064 -1.57672 20.4205 -21.1745 -2.10923 20.7991 
-20.4954 -2.48191 20.8885 -20.7915 -2.53056 20.4592 -10.82 -2.47192 20.4355 
-20.2033 -2.94699 20.4508 -19.1296 -3.19258 20.4999 -18.4357 -3.25592 20.8113 
-17.9675 -3.6433 20.3733 -16.89 -3.5448 20.7817 -16.2506 -3.11568 20.2219 
-15.3926 -2.95733 20.4952 -14.3622 -2.98223 20.5158 -13.287 -3.0345 20.489 
-12.2472 -3.07026 20.4658 -11.343 -2.96224 20.4528 -17.4503 -3.82137 20.3494 
-19.1495 8.59762 19.9784 -19.0671 8.91061 19.3272 -19.5894 8.34411 19.4577 
-18.3389 8.87899 19.7013 -17.8303 8.3944 19.3789 -19.4325 7.65442 19.9463 
-19.9847 7.5595 19.4056 -17.1748 7.9006 19.4268 -16.9681 7.45741 20.0413 
-16.2138 7.40052 19.7789 -16.5345 7.71592 19.4599 -15.8546 7.49944 19.134 
-19.9535 6.51974 19.7605 -20.3419 6.8985 19.4567 -20.7 6.23687 19.4187 
-19.2803 6.63348 20.0589 -15.4345 7.01214 19.7337 -14.7553 6.52325 19.2314 
-20.1352 5.54022 19.9589 -20.826 5.43186 19.6585 -19.3524 5.77989 20.1299 
[...]
CELL_DATA 3036
SCALARS scalars float
LOOKUP_TABLE default
52 52 52 52 52 52 52 52 52 
52 52 52 52 52 52 52 52 52 
52 52 52 52 52 52 52 52 52 
52 52 52 52 52 52 52 52 52 
52 52 52 52 52 52 52 52 52 
52 52 52 52 52 52 52 52 52 
52 52 52 52 52 52 52 52 52 
52 52 52 52 52 52 52 52 52 
52 52 52 52 52 52 52 52 52 
52 52 52 52 52 52 52 52 52 
52 52 52 52 52 52 52 52 52 
52 52 52 52 52 52 52 52 52 
52 52 52 52 52 52 52 52 52 
52 52 52 52 52 52 52 52 52 
52 52 52 52 52 52 52 52 52 
52 52 52 52 52 52 52 52 52 
52 52 52 52 52 52 52 52 52 
52 52 52 52 52 52 52 52 52 
52 52 52 52 52 52 52 52 52 
52 52 52 52 52 52 52 52 52 
52 52 52 52 52 52 52 52 52 
52 52 52 52 52 52 52 52 52 
52 52 52 52 52 52 52 52 52 
52 52 52 52 52 52 52 52 52 
52 52 52 52 52 52 52 52 52 
52 52 52 52 52 52 52 52 52 
52 52 52 52 52 52 52 52 52 
52 52 52 52 52 52 52 52 52 
52 52 52 52 52 52 52 52 52 
52 52 52 52 52 52 52 52 52 
52 52 52 52 52 52 52 52 52 
52 52 52 52 52 52 52 52 52 
52 52 52 52 52 52 52 52 52 
52 52 52 52 52 52 52 52 52 
52 52 52 52 52 52 52 52 52 
52 52 52 52 52 52 52 52 52 
52 52 52 52 52 52 52 52 52 
52 52 52 52 52 52 52 52 52 
52 52 52 52 52 52 52 52 52 
52 52 52 52 52 52 52 52 52 
52 52 52 52 52 52 52 52 52 
52 52 52 52 52 52 52 52 52 
52 52 52 52 52 52 52 52 52 
52 52 52 52 52 52 52 52 52 
52 52 52 52 52 52 52 52 52 
52 52 52 52 52 52 52 52 52 
52 52 52 52 52 52 52 52 52 
52 52 52 52 52 52 52 52 52 
52 52 52 52 52 52 52 52 52 
52 52 52 52 52 52 52 52 52 
52 52 52 52 52 52 52 52 52 
52 52 52 52 52 52 52 52 52 
52 52 52 52 52 52 52 52 52 
52 52 52 52 52 52 52 52 52 
52 52 52 52 52 52 52 52 52 
52 52 52 52 52 52 52 52 52 
52 52 52 52 52 52 52 52 52 
52 52 52 52 52 52 52 52 52 
52 52 52 52 52 52 52 52 52 
52 52 52 52 52 52 52 52 52 
52 52 52 52 52 52 52 52 52 
52 52 52 52 52 52 52 52 52 
52 52 52 52 52 52 52 52 52 
52 52 52 52 52 52 52 52 52 
52 52 52 52 52 52 52 52 52 
52 52 52 52 52 52 52 52 52 
52 52 52 52 52 52 52 52 52 
52 52 52 52 52 52 52 52 52 
52 52 52 52 52 52 52 52 52 
52 52 52 52 52 52 52 52 52 
52 52 52 52 52 52 52 52 52 
52 52 52 52 52 52 52 52 52 
52 52 52 52 52 52 52 52 52 
52 52 52 52 52 52 52 52 52 
52 52 52 52 52 52 52 52 52 
52 52 52 52 52 52 52 52 52 
52 52 52 52 52 52 52 52 52 
52 52 52 52 52 52 52 52 52 
52 52 52 52 52 52 52 52 52 
52 52 52 52 52 52 52 52 52 
52 52 52 52 52 52 52 52 52 
52 52 52 52 52 52 52 52 52 
52 52 52 52 52 52 52 52 52 
52 52 52 52 52 52 52 52 52 
52 52 52 52 52 52 52 52 52 
52 52 52 52 52 52 52 52 52 
52 52 52 52 52 52 52 52 52 
52 52 52 52 52 52 52 52 52 
52 52 52 52 52 52 52 52 52 
52 52 52 52 52 52 52 52 52 
52 52 52 52 52 52 52 52 52 
52 52 52 52 52 52 52 52 52 
52 52 52 52 52 52 52 52 52 
52 52 52 52 52 52 52 52 52 
52 52 52 52 52 52 52 52 52 
52 52 52 52 52 52 52 52 52 
52 52 52 52 52 52 52 52 52 
52 52 52 52 52 52 52 52 52 
52 52 52 52 52 52 52 52 52 
52 52 52 52 52 52 52 52 52 
52 52 52 52 52 52 52 52 52 
52 52 52 52 52 52 52 52 52 
52 52 52 52 52 52 52 52 52 
52 52 52 52 52 52 52 52 52 
52 52 52 52 52 52 52 52 52 
52 52 52 52 52 52 52 52 52 
52 52 52 52 52 52 52 52 52 
52 52 52 52 52 52 52 52 52 
52 52 52 52 52 52 52 52 52 
52 52 52 52 52 52 52 52 52 
52 52 52 52 52 52 52 52 52 
52 52 52 52 52 52 52 52 52 
52 52 52 52 52 52 52 52 52 
52 52 52 52 52 52 52 52 52 
52 52 52 52 52 52 52 52 52 
52 52 52 52 52 52 52 52 52 
52 52 52 52 52 52 52 52 52 
52 52 52 52 52 52 52 52 52 
52 52 52 52 52 52 52 52 52 
52 52 52 52 52 52 52 52 52 
52 52 52 52 52 52 52 52 52 
52 52 52 52 52 52 52 52 52 
52 52 52 52 52 52 52 52 52 
52 52 52 52 52 52 52 52 52 
52 52 52 52 52 52 52 52 52 
52 52 52 52 52 52 52 52 52 
52 52 52 52 52 52 52 52 52 
52 52 52 52 52 52 52 52 52 
52 52 52 52 52 52 52 52 52 
52 52 52 52 52 52 52 52 52 
52 52 52 52 52 52 52 52 52 
52 52 52 52 52 52 52 52 52 
52 52 52 52 52 52 52 52 52 
52 52 52 52 52 52 52 52 52 
52 52 52 52 52 52 52 52 52 
52 52 52 52 52 52 52 52 52 
52 52 52 52 52 52 52 52 52 
52 52 52 52 52 52 52 52 52 
52 52 52 52 52 52 52 52 52 
52 52 52 52 52 52 52 52 52 
52 52 52 52 52 52 52 52 52 
52 52 52 52 52 52 52 52 52 
52 52 52 52 52 52 52 52 52 
52 52 52 52 52 52 52 52 52 
52 52 52 52 52 52 52 52 52 
52 52 52 52 52 52 52 52 52 
52 52 52 52 52 52 52 52 52 
52 52 52 52 52 52 52 52 52 
52 52 52 52 52 52 52 52 52 
52 52 52 52 52 52 52 52 52 
52 52 52 52 52 52 52 52 52 
52 52 52 52 52 52 52 52 52 
52 52 52 52 52 52 52 52 52 
52 52 52 52 52 52 52 52 52 
52 52 52 52 52 52 52 52 52 
52 52 52 52 52 52 52 52 52 
52 52 52 52 52 52 52 52 52 
52 52 52 52 52 52 52 52 52 
52 52 52 52 52 52 52 52 52 
52 52 52 52 52 52 52 52 52 
52 52 52 52 52 52 52 52 52 
52 52 52 52 52 52 52 52 52 
52 52 52 52 52 52 52 52 52 
52 52 52 52 52 52 52 52 52 
52 52 52 52 52 52 52 52 52 
52 52 52 52 52 52 52 52 52 
52 52 52 52 52 52 52 52 52 
52 52 52 52 52 52 52 52 52 
52 52 52 52 52 52 52 52 52 
52 52 52 52 52 52 52 52 52 
52 52 52 52 52 52 52 52 52 
52 52 52 52 52 52 52 52 52 
52 52 52 52 52 52 52 52 52 
52 52 52 52 52 52 52 52 52 
52 52 52 52 52 52 52 52 52 
52 52 52 52 52 52 52 52 52 
52 52 52 52 52 52 52 52 52 
52 52 52 52 52 52 52 52 52 
52 52 52 52 52 52 52 52 52 
52 52 52 52 52 52 52 52 52 
52 52 52 52 52 52 52 52 52 
52 52 52 52 52 52 52 52 52 
52 52 52 52 52 52 52 52 52 
52 52 52 52 52 52 52 52 52 
52 52 52 52 52 52 52 52 52 
52 52 52 52 52 52 52 52 52 
52 52 52 52 52 52 52 52 52 
52 52 52 52 52 52 52 52 52 
52 52 52 52 52 52 52 52 52 
52 52 52 52 52 52 52 52 52 
52 52 52 52 52 52 52 52 52 
52 52 52 52 52 52 52 52 52 
52 52 52 52 52 52 52 52 52 
52 52 52 52 52 52 52 52 52 
52 52 52 52 52 52 52 52 52 
52 52 52 52 52 52 52 52 52 
52 52 52 52 52 52 52 52 52 
52 52 52 52 52 52 52 52 52 
52 52 52 52 52 52 52 52 52 
52 52 52 52 52 52 52 52 52 
52 52 52 52 52 52 52 52 52 
52 52 52 52 52 52 52 52 52 
52 52 52 52 52 52 52 52 52 
52 52 52 52 52 52 52 52 52 
52 52 52 52 52 52 52 52 52 
52 52 52 52 52 52 52 52 52 
52 52 52 52 52 52 52 52 52 
52 52 52 52 52 52 52 52 52 
52 52 52 52 52 52 52 52 52 
52 52 52 52 52 52 52 52 52 
52 52 52 52 52 52 52 52 52 
52 52 52 52 52 52 52 52 52 
52 52 52 52 52 52 52 52 52 
52 52 52 52 52 52 52 52 52 
52 52 52 52 52 52 52 52 52 
52 52 52 52 52 52 52 52 52 
52 52 52 52 52 52 52 52 52 
52 52 52 52 52 52 52 52 52 
52 52 52 52 52 52 52 52 52 
52 52 52 52 52 52 52 52 52 
52 52 52 52 52 52 52 52 52 
52 52 52 52 52 52 52 52 52 
52 52 52 52 52 52 52 52 52 
52 52 52 52 52 52 52 52 52 
52 52 52 52 52 52 52 52 52 
52 52 52 52 52 52 52 52 52 
52 52 52 52 52 52 52 52 52 
52 52 52 52 52 52 52 52 52 
52 52 52 52 52 52 52 52 52 
52 52 52 52 52 52 52 52 52 
52 52 52 52 52 52 52 52 52 
52 52 52 52 52 52 52 52 52 
52 52 52 52 52 52 52 52 52 
52 52 52 52 52 52 52 52 52 
52 52 52 52 52 52 52 52 52 
52 52 52 52 52 52 52 52 52 
52 52 52 52 52 52 52 52 52 
52 52 52 52 52 52 52 52 52 
52 52 52 52 52 52 52 52 52 
52 52 52 52 52 52 52 52 52 
52 52 52 52 52 52 52 52 52 
52 52 52 52 52 52 52 52 52 
52 52 52 52 52 52 52 52 52 
52 52 52 52 52 52 52 52 52 
52 52 52 52 52 52 52 52 52 
52 52 52 52 52 52 52 52 52 
52 52 52 52 52 52 52 52 52 
52 52 52 52 52 52 52 52 52 
52 52 52 52 52 52 52 52 52 
52 52 52 52 52 52 52 52 52 
52 52 52 52 52 52 52 52 52 
52 52 52 52 52 52 52 52 52 
52 52 52 52 52 52 52 52 52 
52 52 52 52 52 52 52 52 52 
52 52 52 52 52 52 52 52 52 
52 52 52 52 52 52 52 52 52 
52 52 52 52 52 52 52 52 52 
52 52 52 52 52 52 52 52 52 
52 52 52 52 52 52 52 52 52 
52 52 52 52 52 52 52 52 52 
52 52 52 52 52 52 52 52 52 
52 52 52 52 52 52 52 52 52 
52 52 52 52 52 52 52 52 52 
52 52 52 52 52 52 52 52 52 
52 52 52 52 52 52 52 52 52 
52 52 52 52 52 52 52 52 52 
52 52 52 52 52 52 52 52 52 
52 52 52 52 52 52 52 52 52 
52 52 52 52 52 52 52 52 52 
52 52 52 52 52 52 52 52 52 
52 52 52 52 52 52 52 52 52 
52 52 52 52 52 52 52 52 52 
52 52 52 52 52 52 52 52 52 
52 52 52 52 52 52 52 52 52 
52 52 52 52 52 52 52 52 52 
52 52 52 52 52 52 52 52 52 
52 52 52 52 52 52 52 52 52 
52 52 52 52 52 52 52 52 52 
52 52 52 52 52 52 52 52 52 
52 52 52 52 52 52 52 52 52 
52 52 52 52 52 52 52 52 52 
52 52 52 52 52 52 52 52 52 
52 52 52 52 52 52 52 52 52 
52 52 52 52 52 52 52 52 52 
52 52 52 52 52 52 52 52 52 
52 52 52 52 52 52 52 52 52 
52 52 52 52 52 52 52 52 52 
52 52 52 52 52 52 52 52 52 
52 52 52 52 52 52 52 52 52 
52 52 52 52 52 52 52 52 52 
52 52 52 52 52 52 52 52 52 
52 52 52 52 52 52 52 52 52 
52 52 52 52 52 52 52 52 52 
52 52 52 52 52 52 52 52 52 
52 52 52 52 52 52 52 52 52 
52 52 52 52 52 52 52 52 52 
52 52 52 52 52 52 52 52 52 
52 52 52 52 52 52 52 52 52 
52 52 52 52 52 52 52 52 52 
52 52 52 52 52 52 52 52 52 
52 52 52 52 52 52 52 52 52 
52 52 52 52 52 52 52 52 52 
52 52 52 52 52 52 52 52 52 
52 52 52 52 52 52 52 52 52 
52 52 52 52 52 52 52 52 52 
52 52 52 52 52 52 52 52 52 
52 52 52 52 52 52 52 52 52 
52 52 52 52 52 52 52 52 52 
52 52 52 52 52 52 52 52 52 
52 52 52 52 52 52 52 52 52 
52 52 52 52 52 52 52 52 52 
52 52 52 52 52 52 52 52 52 
52 52 52 52 52 52 52 52 52 
52 52 52 52 52 52 52 52 52 
52 52 52 52 52 52 52 52 52 
52 52 52 52 52 52 52 52 52 
52 52 52 52 52 52 52 52 52 
52 52 52 52 52 52 52 52 52 
52 52 52 52 52 52 52 52 52 
52 52 52 52 52 52 52 52 52 
52 52 52 52 52 52 52 52 52 
52 52 52 52 52 52 52 52 52 
52 52 52 52 52 52 52 52 52 
52 52 52 52 52 52 52 52 52 
52 52 52 52 52 52 52 52 52 
52 52 52 52 52 52 52 52 52 
52 52 52 52 52 52 52 52 52 
52 52 52 52 52 52 52 52 52 
52 52 52 52 52 52 52 52 52 
52 52 52 52 52 52 52 52 52 
52 52 52 52 52 52 52 52 52 
52 52 52 52 52 52 52 52 52 
52 52 52 52 52 52 52 52 52 
52 52 52 52 52 52 52 52 52 
52 52 52 52 52 52 52 52 52 
52 52 52 52 52 52 52 52 52 
52 52 52 52 52 52 52 52 52 
52 52 52 
