# vtk DataFile Version 4.2
vtk output
ASCII
DATASET POLYDATA
POINTS 1392 float
13.8217 -32.7596 2.29757 14.0804 -32.4805 2.07812 14.2722 -32.8811 2.10301 
13.2498 -32.7523 2.34661 13.5818 -32.3712 2.12568 12.6434 -32.7657 2.33907 
12.9778 -32.3621 2.13086 12.0476 -32.7633 2.33882 12.3679 -32.3799 2.12051 
11.4455 -32.7507 2.3556 11.7492 -32.3839 2.1161 10.8344 -32.7697 2.37561 
11.1211 -32.376 2.13624 10.388 -32.8394 2.28539 10.5574 -32.4243 2.13978 
10.202 -32.5802 1.95786 13.9227 -33.2383 2.29177 14.2084 -33.3382 2.05413 
13.4111 -33.2569 2.42709 12.8083 -33.2787 2.43383 12.2066 -33.2808 2.41909 
11.6116 -33.273 2.42266 10.9989 -33.2755 2.44268 10.3477 -33.3395 2.37749 
10.0931 -33.1753 1.97001 13.8962 -33.6371 2.1397 13.7185 -34.0958 2.09911 
13.439 -33.8469 2.34484 12.8238 -33.8717 2.43019 12.2167 -33.8855 2.41675 
11.6184 -33.883 2.40855 11.0174 -33.877 2.42241 10.3847 -33.8888 2.44944 
9.84624 -33.5673 2.13766 9.69769 -33.9316 2.38882 9.15997 -34.058 2.29162 
9.37242 -33.6558 2.02358 8.97413 -33.7682 1.95578 13.3855 -34.5633 2.33401 
13.7693 -34.5398 2.14146 12.8021 -34.4781 2.40876 12.1893 -34.4952 2.40768 
11.5823 -34.5029 2.39754 10.9745 -34.5032 2.40312 10.3564 -34.5071 2.43285 
9.73189 -34.529 2.46049 9.20771 -34.5355 2.37931 8.91699 -34.341 2.06281 
14.3959 -35.1631 2.28172 14.6292 -34.9054 2.05076 14.845 -35.2921 2.09952 
13.8251 -35.0428 2.34124 14.1695 -34.7485 2.09518 13.3024 -35.1735 2.40917 
12.7938 -35.0899 2.40939 12.1745 -35.0972 2.40975 11.5541 -35.1163 2.40978 
10.9458 -35.1188 2.41771 10.3421 -35.1358 2.43018 9.73144 -35.1632 2.44501 
9.21067 -35.1522 2.37837 8.91887 -34.978 2.07056 14.5229 -35.6896 2.32783 
14.9014 -35.8468 2.10451 14.0029 -35.6574 2.41855 13.4071 -35.6796 2.4213 
12.7944 -35.6992 2.41623 12.1732 -35.7013 2.41638 11.5628 -35.7259 2.42236 
10.9557 -35.7344 2.43097 10.4429 -35.6484 2.43795 9.92238 -35.7847 2.36741 
9.34816 -35.6877 2.32798 9.01441 -35.5533 2.1048 14.5915 -36.352 2.33787 
14.988 -36.3243 2.14454 14.0096 -36.2702 2.42318 13.3982 -36.2909 2.43248 
12.7717 -36.3159 2.42908 12.1521 -36.3239 2.4285 11.6541 -36.2394 2.42704 
11.1287 -36.3755 2.35822 10.4763 -36.2035 2.311 10.0824 -36.1599 2.03868 
9.68858 -35.9228 2.08969 9.30294 -35.8341 2.08886 15.6878 -37.0295 2.30837 
15.832 -36.6978 2.05757 16.1385 -36.9889 2.17453 15.0267 -36.8442 2.33346 
15.3858 -36.5455 2.09179 14.4877 -36.9794 2.41307 13.9874 -36.8915 2.42684 
13.3828 -36.9019 2.43396 12.7692 -36.9281 2.43945 12.1549 -36.9447 2.44492 
11.5694 -36.8726 2.37278 11.2266 -36.888 2.13405 10.8484 -36.6286 1.96906 
10.3923 -36.4463 1.94612 16.8606 -37.5678 2.30024 17.0958 -37.3281 2.1019 
17.2972 -37.579 2.06805 16.2533 -37.4674 2.38118 16.6007 -37.1684 2.15252 
15.7078 -37.5909 2.44245 15.1888 -37.4845 2.42395 14.5761 -37.4898 2.42495 
13.9673 -37.5016 2.43371 13.4669 -37.4102 2.43287 12.9361 -37.5416 2.36709 
12.3183 -37.4529 2.36161 11.7575 -37.4516 2.32131 11.3965 -37.3322 2.05494 
17.0459 -37.833 2.0815 16.6746 -38.105 1.92074 16.5391 -37.9399 2.32597 
15.8758 -38.0937 2.39031 15.2002 -38.1137 2.45426 14.5728 -38.1097 2.44576 
13.9606 -38.1249 2.43587 13.3682 -38.0499 2.36168 13.0175 -38.0594 2.12206 
12.6222 -37.8088 2.00107 11.9915 -37.7487 2.06043 11.5627 -37.6935 1.98055 
16.2048 -38.2681 2.05984 15.7463 -38.4624 2.15303 15.5003 -38.7986 2.06493 
15.245 -38.7027 2.39355 14.5851 -38.7378 2.4605 14.0544 -38.6519 2.44729 
13.5495 -38.7841 2.33568 13.1664 -38.6275 1.97674 15.2105 -39.1947 2.31875 
15.3745 -39.2363 1.94415 14.7557 -39.2763 2.39681 14.0662 -39.226 2.35876 
13.5901 -39.296 2.19858 13.307 -39.1171 2.04368 15.0156 -39.5353 2.10265 
14.4314 -39.5993 2.08388 13.8299 -39.5612 1.99162 13.8672 -31.6241 1.70347 
14.0323 -31.2936 1.31243 14.3358 -31.5807 1.55542 13.2157 -31.5696 1.73712 
13.4032 -31.2674 1.43323 12.6665 -31.6464 1.68336 12.9427 -31.3265 1.50836 
12.5016 -31.3751 1.39581 15.7175 -32.2129 1.72163 15.7577 -31.8277 1.53839 
16.1063 -32.0644 1.53185 15.0681 -32.143 1.7282 15.3565 -31.7806 1.52149 
14.4764 -31.9572 1.73906 14.7903 -31.7296 1.52701 14.0125 -32.1358 1.90418 
13.4038 -31.9837 1.91468 12.7883 -31.9939 1.90159 12.2336 -31.7062 1.5409 
12.1259 -32.03 1.80604 11.4144 -32.0928 1.79866 11.7418 -31.7998 1.50551 
10.7955 -32.0889 1.81677 11.1363 -31.7828 1.49675 10.3602 -32.1744 1.81926 
10.5602 -31.8191 1.50881 10.1585 -32.1266 1.5479 16.2312 -32.6521 1.72241 
16.5285 -32.4134 1.48965 16.6872 -32.884 1.51201 15.7336 -32.7848 1.82291 
15.2185 -32.6891 1.81298 14.5802 -32.5088 1.88396 10.0264 -32.7048 1.55492 
16.3228 -33.2473 1.68736 16.6086 -33.3446 1.45658 15.813 -33.281 1.81436 
15.209 -33.3136 1.80523 14.6114 -33.2269 1.86471 9.95411 -33.1661 1.47509 
9.13593 -33.3913 1.72896 9.27003 -33.131 1.42514 9.43382 -33.3558 1.58307 
8.9433 -33.3105 1.53575 16.289 -33.6412 1.53985 16.1236 -34.1052 1.50453 
15.8246 -33.8682 1.73171 15.1832 -33.9185 1.79303 14.5655 -33.9077 1.78383 
14.1237 -33.7848 1.90403 9.7572 -33.4472 1.69748 8.76619 -33.8683 1.6169 
15.7714 -34.5701 1.72527 16.1698 -34.5594 1.53523 15.2698 -34.4 1.79779 
14.6352 -34.5025 1.85817 14.0508 -34.3115 1.90667 8.75451 -34.5226 1.61982 
16.1658 -35.0856 1.67952 16.468 -34.8433 1.45524 16.6287 -35.3041 1.49204 
15.6764 -35.1808 1.79247 15.1506 -34.9346 1.87086 8.83649 -35.2394 1.49852 
16.2848 -35.7267 1.69356 16.6804 -35.8742 1.49172 15.7727 -35.6837 1.79225 
15.2681 -35.5359 1.88697 9.57565 -35.7086 1.77329 9.90405 -35.8536 1.67013 
9.63809 -35.5835 1.44673 9.25889 -35.5191 1.46334 9.1754 -35.6339 1.82674 
16.4325 -36.3131 1.71181 16.7823 -36.3659 1.54495 15.8477 -36.2841 1.85781 
15.2851 -36.0862 1.924 10.0965 -36.2119 1.59364 17.4844 -36.9349 1.6835 
17.6931 -36.6832 1.41198 17.794 -37.0612 1.52171 16.9207 -36.8788 1.82195 
17.1964 -36.5788 1.52126 16.2695 -36.7389 1.93527 11.1604 -37.0186 1.7162 
10.8445 -36.7588 1.51154 10.4367 -36.5456 1.56551 17.5228 -37.3164 1.8071 
17.7665 -37.3414 1.37634 11.2533 -37.5652 1.47455 17.4366 -37.671 1.62599 
17.0317 -37.9249 1.64102 16.6963 -38.1105 1.33563 12.9818 -38.2336 1.61113 
12.66 -37.9337 1.5137 12.1686 -37.8908 1.60475 11.6347 -37.8779 1.5811 
16.2815 -38.3071 1.49207 15.8482 -38.4772 1.69731 15.5641 -38.798 1.52298 
13.0925 -38.6994 1.51095 15.4247 -39.2429 1.36489 13.428 -39.4204 1.88743 
13.178 -39.1318 1.53425 15.1385 -39.5547 1.55706 14.6058 -39.6763 1.57113 
13.9734 -39.6784 1.5217 13.4524 -39.5412 1.46172 12.1103 -31.0376 1.11237 
12.2114 -30.7156 0.678374 12.4758 -30.8973 0.901447 11.4107 -30.9692 1.12716 
11.5711 -30.6896 0.807628 10.8644 -31.0266 1.08565 11.022 -30.7168 0.816042 
10.638 -30.8432 0.804263 15.7421 -31.5889 1.22819 15.9084 -31.3059 0.748032 
16.1501 -31.5647 0.970244 15.0462 -31.4656 1.23649 15.3645 -31.1772 0.814357 
14.5386 -31.439 1.32713 14.6404 -31.1748 0.988559 14.0788 -31.0965 0.913692 
13.541 -31.1057 0.985954 12.8587 -31.0855 1.07156 12.0586 -31.4907 1.34783 
11.5919 -31.4107 1.29287 10.9921 -31.3903 1.28562 10.4342 -31.0737 0.950542 
10.3095 -31.4968 1.21439 9.62612 -31.5633 1.15031 9.92452 -31.1675 0.927534 
9.17666 -31.6223 1.08928 9.36036 -31.2316 0.940086 8.99795 -31.3672 0.775511 
17.5185 -32.2104 1.14224 17.5415 -31.8885 0.754221 17.9546 -32.1461 0.95267 
16.9306 -32.059 1.13875 17.1204 -31.8685 0.919322 16.4147 -31.9913 1.23514 
16.6048 -31.7251 0.840903 9.78565 -32.1622 1.27298 9.13847 -32.1204 1.15649 
8.88346 -31.9527 0.811372 18.0415 -32.6557 1.14155 18.3672 -32.3815 0.734702 
18.5267 -32.8666 0.941437 17.5191 -32.771 1.24303 16.9875 -32.5171 1.30269 
9.80572 -32.7998 1.2659 9.22305 -32.7715 1.25 8.68025 -32.399 0.943927 
8.52534 -32.7589 1.1296 8.314 -32.7194 0.736418 18.1455 -33.2605 1.12173 
18.4975 -33.2379 0.943597 17.5962 -33.3005 1.22053 17.0122 -33.2365 1.28677 
9.6434 -33.1464 1.32558 8.55715 -33.353 1.29489 8.02912 -33.0098 0.928024 
8.03274 -33.3196 1.11553 7.77345 -33.2942 0.804304 18.2975 -33.6086 0.871115 
17.9409 -34.1212 0.92037 17.6225 -33.8932 1.14468 16.9927 -33.901 1.20676 
16.5336 -33.7887 1.31746 8.54757 -34.008 1.33364 8.17299 -33.9296 1.1085 
7.78494 -33.6744 0.829143 17.4825 -34.5182 1.12626 17.874 -34.6841 0.818559 
17.0497 -34.4032 1.203 16.5174 -34.4011 1.30379 8.5054 -34.5975 1.21492 
8.24726 -34.4675 0.898723 7.98348 -34.1374 0.705597 17.4847 -35.0982 1.11666 
17.8028 -35.2224 0.908043 16.9401 -34.9197 1.27358 8.58951 -35.0702 1.12575 
8.42108 -34.9107 0.829097 17.5766 -35.762 1.14933 17.9896 -35.6658 0.8845 
17.0592 -35.5387 1.28758 9.70955 -35.8865 1.32353 9.27217 -35.7413 1.19187 
8.92211 -35.6213 1.03523 8.62862 -35.3479 0.795328 18.0107 -36.281 1.09993 
18.2574 -35.9465 0.821155 18.3668 -36.2701 0.717531 17.5045 -36.3132 1.31822 
17.0718 -36.1088 1.34035 9.91426 -36.4035 1.28901 9.36666 -36.3237 1.10135 
8.9873 -36.0823 0.83427 18.2224 -36.5417 0.877716 17.9373 -36.8852 0.95397 
10.9134 -37.1155 1.3322 10.4022 -36.8227 1.2802 9.83834 -36.9372 1.1112 
9.43966 -36.8284 0.931599 9.15143 -36.5617 0.726073 17.6661 -37.2973 0.923076 
17.5188 -37.5533 1.15561 17.326 -37.6116 0.685753 10.9386 -37.4713 1.19979 
10.4872 -37.3735 1.10662 10.0628 -37.4404 0.917889 9.74339 -37.2013 0.749272 
17.1008 -37.8498 1.11579 16.7415 -38.0943 0.945941 12.8137 -38.1699 1.19021 
12.3584 -38.0776 1.1897 11.7942 -38.102 1.18606 11.4062 -38.0084 1.08381 
10.9808 -37.7964 0.833075 10.3836 -37.6912 0.786127 16.4066 -38.3628 0.852036 
15.8496 -38.518 1.1178 15.6027 -38.9008 0.997137 13.0257 -38.6633 1.05146 
12.6488 -38.3781 0.747762 12.0958 -38.2789 0.881758 11.7331 -38.2485 0.768832 
15.539 -39.3077 0.880879 13.1661 -39.2424 0.874283 15.2094 -39.5609 0.871816 
14.6297 -39.6502 0.945424 14.0026 -39.661 0.908102 13.4665 -39.5717 0.869893 
14.9999 -30.9013 0.568053 15.1364 -30.7282 0.106091 15.4126 -30.9326 0.350523 
14.4273 -30.8991 0.613664 14.7097 -30.7031 0.285329 13.8308 -30.9054 0.5923 
14.1813 -30.6104 0.189157 13.223 -30.8991 0.616081 13.5436 -30.6117 0.279167 
12.7192 -30.8507 0.696295 12.8572 -30.613 0.357687 12.2923 -30.5135 0.291371 
11.7377 -30.5247 0.370093 11.1462 -30.5215 0.385286 10.1782 -30.8797 0.643025 
[...]
CELL_DATA 2780
SCALARS scalars float
LOOKUP_TABLE default
54 54 54 54 54 54 54 54 54 
54 54 54 54 54 54 54 54 54 
54 54 54 54 54 54 54 54 54 
54 54 54 54 54 54 54 54 54 
54 54 54 54 54 54 54 54 54 
54 54 54 54 54 54 54 54 54 
54 54 54 54 54 54 54 54 54 
54 54 54 54 54 54 54 54 54 
54 54 54 54 54 54 54 54 54 
54 54 54 54 54 54 54 54 54 
54 54 54 54 54 54 54 54 54 
54 54 54 54 54 54 54 54 54 
54 54 54 54 54 54 54 54 54 
54 54 54 54 54 54 54 54 54 
54 54 54 54 54 54 54 54 54 
54 54 54 54 54 54 54 54 54 
54 54 54 54 54 54 54 54 54 
54 54 54 54 54 54 54 54 54 
54 54 54 54 54 54 54 54 54 
54 54 54 54 54 54 54 54 54 
54 54 54 54 54 54 54 54 54 
54 54 54 54 54 54 54 54 54 
54 54 54 54 54 54 54 54 54 
54 54 54 54 54 54 54 54 54 
54 54 54 54 54 54 54 54 54 
54 54 54 54 54 54 54 54 54 
54 54 54 54 54 54 54 54 54 
54 54 54 54 54 54 54 54 54 
54 54 54 54 54 54 54 54 54 
54 54 54 54 54 54 54 54 54 
54 54 54 54 54 54 54 54 54 
54 54 54 54 54 54 54 54 54 
54 54 54 54 54 54 54 54 54 
54 54 54 54 54 54 54 54 54 
54 54 54 54 54 54 54 54 54 
54 54 54 54 54 54 54 54 54 
54 54 54 54 54 54 54 54 54 
54 54 54 54 54 54 54 54 54 
54 54 54 54 54 54 54 54 54 
54 54 54 54 54 54 54 54 54 
54 54 54 54 54 54 54 54 54 
54 54 54 54 54 54 54 54 54 
54 54 54 54 54 54 54 54 54 
54 54 54 54 54 54 54 54 54 
54 54 54 54 54 54 54 54 54 
54 54 54 54 54 54 54 54 54 
54 54 54 54 54 54 54 54 54 
54 54 54 54 54 54 54 54 54 
54 54 54 54 54 54 54 54 54 
54 54 54 54 54 54 54 54 54 
54 54 54 54 54 54 54 54 54 
54 54 54 54 54 54 54 54 54 
54 54 54 54 54 54 54 54 54 
54 54 54 54 54 54 54 54 54 
54 54 54 54 54 54 54 54 54 
54 54 54 54 54 54 54 54 54 
54 54 54 54 54 54 54 54 54 
54 54 54 54 54 54 54 54 54 
54 54 54 54 54 54 54 54 54 
54 54 54 54 54 54 54 54 54 
54 54 54 54 54 54 54 54 54 
54 54 54 54 54 54 54 54 54 
54 54 54 54 54 54 54 54 54 
54 54 54 54 54 54 54 54 54 
54 54 54 54 54 54 54 54 54 
54 54 54 54 54 54 54 54 54 
54 54 54 54 54 54 54 54 54 
54 54 54 54 54 54 54 54 54 
54 54 54 54 54 54 54 54 54 
54 54 54 54 54 54 54 54 54 
54 54 54 54 54 54 54 54 54 
54 54 54 54 54 54 54 54 54 
54 54 54 54 54 54 54 54 54 
54 54 54 54 54 54 54 54 54 
54 54 54 54 54 54 54 54 54 
54 54 54 54 54 54 54 54 54 
54 54 54 54 54 54 54 54 54 
54 54 54 54 54 54 54 54 54 
54 54 54 54 54 54 54 54 54 
54 54 54 54 54 54 54 54 54 
54 54 54 54 54 54 54 54 54 
54 54 54 54 54 54 54 54 54 
54 54 54 54 54 54 54 54 54 
54 54 54 54 54 54 54 54 54 
54 54 54 54 54 54 54 54 54 
54 54 54 54 54 54 54 54 54 
54 54 54 54 54 54 54 54 54 
54 54 54 54 54 54 54 54 54 
54 54 54 54 54 54 54 54 54 
54 54 54 54 54 54 54 54 54 
54 54 54 54 54 54 54 54 54 
54 54 54 54 54 54 54 54 54 
54 54 54 54 54 54 54 54 54 
54 54 54 54 54 54 54 54 54 
54 54 54 54 54 54 54 54 54 
54 54 54 54 54 54 54 54 54 
54 54 54 54 54 54 54 54 54 
54 54 54 54 54 54 54 54 54 
54 54 54 54 54 54 54 54 54 
54 54 54 54 54 54 54 54 54 
54 54 54 54 54 54 54 54 54 
54 54 54 54 54 54 54 54 54 
54 54 54 54 54 54 54 54 54 
54 54 54 54 54 54 54 54 54 
54 54 54 54 54 54 54 54 54 
54 54 54 54 54 54 54 54 54 
54 54 54 54 54 54 54 54 54 
54 54 54 54 54 54 54 54 54 
54 54 54 54 54 54 54 54 54 
54 54 54 54 54 54 54 54 54 
54 54 54 54 54 54 54 54 54 
54 54 54 54 54 54 54 54 54 
54 54 54 54 54 54 54 54 54 
54 54 54 54 54 54 54 54 54 
54 54 54 54 54 54 54 54 54 
54 54 54 54 54 54 54 54 54 
54 54 54 54 54 54 54 54 54 
54 54 54 54 54 54 54 54 54 
54 54 54 54 54 54 54 54 54 
54 54 54 54 54 54 54 54 54 
54 54 54 54 54 54 54 54 54 
54 54 54 54 54 54 54 54 54 
54 54 54 54 54 54 54 54 54 
54 54 54 54 54 54 54 54 54 
54 54 54 54 54 54 54 54 54 
54 54 54 54 54 54 54 54 54 
54 54 54 54 54 54 54 54 54 
54 54 54 54 54 54 54 54 54 
54 54 54 54 54 54 54 54 54 
54 54 54 54 54 54 54 54 54 
54 54 54 54 54 54 54 54 54 
54 54 54 54 54 54 54 54 54 
54 54 54 54 54 54 54 54 54 
54 54 54 54 54 54 54 54 54 
54 54 54 54 54 54 54 54 54 
54 54 54 54 54 54 54 54 54 
54 54 54 54 54 54 54 54 54 
54 54 54 54 54 54 54 54 54 
54 54 54 54 54 54 54 54 54 
54 54 54 54 54 54 54 54 54 
54 54 54 54 54 54 54 54 54 
54 54 54 54 54 54 54 54 54 
54 54 54 54 54 54 54 54 54 
54 54 54 54 54 54 54 54 54 
54 54 54 54 54 54 54 54 54 
54 54 54 54 54 54 54 54 54 
54 54 54 54 54 54 54 54 54 
54 54 54 54 54 54 54 54 54 
54 54 54 54 54 54 54 54 54 
54 54 54 54 54 54 54 54 54 
54 54 54 54 54 54 54 54 54 
54 54 54 54 54 54 54 54 54 
54 54 54 54 54 54 54 54 54 
54 54 54 54 54 54 54 54 54 
54 54 54 54 54 54 54 54 54 
54 54 54 54 54 54 54 54 54 
54 54 54 54 54 54 54 54 54 
54 54 54 54 54 54 54 54 54 
54 54 54 54 54 54 54 54 54 
54 54 54 54 54 54 54 54 54 
54 54 54 54 54 54 54 54 54 
54 54 54 54 54 54 54 54 54 
54 54 54 54 54 54 54 54 54 
54 54 54 54 54 54 54 54 54 
54 54 54 54 54 54 54 54 54 
54 54 54 54 54 54 54 54 54 
54 54 54 54 54 54 54 54 54 
54 54 54 54 54 54 54 54 54 
54 54 54 54 54 54 54 54 54 
54 54 54 54 54 54 54 54 54 
54 54 54 54 54 54 54 54 54 
54 54 54 54 54 54 54 54 54 
54 54 54 54 54 54 54 54 54 
54 54 54 54 54 54 54 54 54 
54 54 54 54 54 54 54 54 54 
54 54 54 54 54 54 54 54 54 
54 54 54 54 54 54 54 54 54 
54 54 54 54 54 54 54 54 54 
54 54 54 54 54 54 54 54 54 
54 54 54 54 54 54 54 54 54 
54 54 54 54 54 54 54 54 54 
54 54 54 54 54 54 54 54 54 
54 54 54 54 54 54 54 54 54 
54 54 54 54 54 54 54 54 54 
54 54 54 54 54 54 54 54 54 
54 54 54 54 54 54 54 54 54 
54 54 54 54 54 54 54 54 54 
54 54 54 54 54 54 54 54 54 
54 54 54 54 54 54 54 54 54 
54 54 54 54 54 54 54 54 54 
54 54 54 54 54 54 54 54 54 
54 54 54 54 54 54 54 54 54 
54 54 54 54 54 54 54 54 54 
54 54 54 54 54 54 54 54 54 
54 54 54 54 54 54 54 54 54 
54 54 54 54 54 54 54 54 54 
54 54 54 54 54 54 54 54 54 
54 54 54 54 54 54 54 54 54 
54 54 54 54 54 54 54 54 54 
54 54 54 54 54 54 54 54 54 
54 54 54 54 54 54 54 54 54 
54 54 54 54 54 54 54 54 54 
54 54 54 54 54 54 54 54 54 
54 54 54 54 54 54 54 54 54 
54 54 54 54 54 54 54 54 54 
54 54 54 54 54 54 54 54 54 
54 54 54 54 54 54 54 54 54 
54 54 54 54 54 54 54 54 54 
54 54 54 54 54 54 54 54 54 
54 54 54 54 54 54 54 54 54 
54 54 54 54 54 54 54 54 54 
54 54 54 54 54 54 54 54 54 
54 54 54 54 54 54 54 54 54 
54 54 54 54 54 54 54 54 54 
54 54 54 54 54 54 54 54 54 
54 54 54 54 54 54 54 54 54 
54 54 54 54 54 54 54 54 54 
54 54 54 54 54 54 54 54 54 
54 54 54 54 54 54 54 54 54 
54 54 54 54 54 54 54 54 54 
54 54 54 54 54 54 54 54 54 
54 54 54 54 54 54 54 54 54 
54 54 54 54 54 54 54 54 54 
54 54 54 54 54 54 54 54 54 
54 54 54 54 54 54 54 54 54 
54 54 54 54 54 54 54 54 54 
54 54 54 54 54 54 54 54 54 
54 54 54 54 54 54 54 54 54 
54 54 54 54 54 54 54 54 54 
54 54 54 54 54 54 54 54 54 
54 54 54 54 54 54 54 54 54 
54 54 54 54 54 54 54 54 54 
54 54 54 54 54 54 54 54 54 
54 54 54 54 54 54 54 54 54 
54 54 54 54 54 54 54 54 54 
54 54 54 54 54 54 54 54 54 
54 54 54 54 54 54 54 54 54 
54 54 54 54 54 54 54 54 54 
54 54 54 54 54 54 54 54 54 
54 54 54 54 54 54 54 54 54 
54 54 54 54 54 54 54 54 54 
54 54 54 54 54 54 54 54 54 
54 54 54 54 54 54 54 54 54 
54 54 54 54 54 54 54 54 54 
54 54 54 54 54 54 54 54 54 
54 54 54 54 54 54 54 54 54 
54 54 54 54 54 54 54 54 54 
54 54 54 54 54 54 54 54 54 
54 54 54 54 54 54 54 54 54 
54 54 54 54 54 54 54 54 54 
54 54 54 54 54 54 54 54 54 
54 54 54 54 54 54 54 54 54 
54 54 54 54 54 54 54 54 54 
54 54 54 54 54 54 54 54 54 
54 54 54 54 54 54 54 54 54 
54 54 54 54 54 54 54 54 54 
54 54 54 54 54 54 54 54 54 
54 54 54 54 54 54 54 54 54 
54 54 54 54 54 54 54 54 54 
54 54 54 54 54 54 54 54 54 
54 54 54 54 54 54 54 54 54 
54 54 54 54 54 54 54 54 54 
54 54 54 54 54 54 54 54 54 
54 54 54 54 54 54 54 54 54 
54 54 54 54 54 54 54 54 54 
54 54 54 54 54 54 54 54 54 
54 54 54 54 54 54 54 54 54 
54 54 54 54 54 54 54 54 54 
54 54 54 54 54 54 54 54 54 
54 54 54 54 54 54 54 54 54 
54 54 54 54 54 54 54 54 54 
54 54 54 54 54 54 54 54 54 
54 54 54 54 54 54 54 54 54 
54 54 54 54 54 54 54 54 54 
54 54 54 54 54 54 54 54 54 
54 54 54 54 54 54 54 54 54 
54 54 54 54 54 54 54 54 54 
54 54 54 54 54 54 54 54 54 
54 54 54 54 54 54 54 54 54 
54 54 54 54 54 54 54 54 54 
54 54 54 54 54 54 54 54 54 
54 54 54 54 54 54 54 54 54 
54 54 54 54 54 54 54 54 54 
54 54 54 54 54 54 54 54 54 
54 54 54 54 54 54 54 54 54 
54 54 54 54 54 54 54 54 54 
54 54 54 54 54 54 54 54 54 
54 54 54 54 54 54 54 54 54 
54 54 54 54 54 54 54 54 54 
54 54 54 54 54 54 54 54 54 
54 54 54 54 54 54 54 54 54 
54 54 54 54 54 54 54 54 54 
54 54 54 54 54 54 54 54 54 
54 54 54 54 54 54 54 54 54 
54 54 54 54 54 54 54 54 54 
54 54 54 54 54 54 54 54 54 
54 54 54 54 54 54 54 54 54 
54 54 54 54 54 54 54 54 54 
54 54 54 54 54 54 54 54 54 
54 54 54 54 54 54 54 54 54 
54 54 54 54 54 54 54 54 54 
54 54 54 54 54 54 54 54 54 
54 54 54 54 54 54 54 54 54 
54 54 54 54 54 54 54 54 54 
54 54 54 54 54 54 54 54 54 
54 54 54 54 54 54 54 54 54 
54 54 54 54 54 54 54 54 54 
54 54 54 54 54 54 54 54 54 
54 54 54 54 54 54 54 54 
